 Entering Gaussian System, Link 0=g16
 Input=MN_83_RKT07_BH76_TPSShDBJ_631Gs.in
 Output=MN_83_RKT07_BH76_TPSShDBJ_631Gs.log
 Initial command:
 /udrive/faculty/rpeverati/g16/g16/l1.exe "/udrive/scratch-directories/gaussian09/rpeverati/Gau-34271.inp" -scrdir="/udrive/scratch-directories/gaussian09/rpeverati/"
 Entering Link 1 = /udrive/faculty/rpeverati/g16/g16/l1.exe PID=     34272.
  
 Copyright (c) 1988,1990,1992,1993,1995,1998,2003,2009,2016,
            Gaussian, Inc.  All Rights Reserved.
  
 This is part of the Gaussian(R) 16 program.  It is based on
 the Gaussian(R) 09 system (copyright 2009, Gaussian, Inc.),
 the Gaussian(R) 03 system (copyright 2003, Gaussian, Inc.),
 the Gaussian(R) 98 system (copyright 1998, Gaussian, Inc.),
 the Gaussian(R) 94 system (copyright 1995, Gaussian, Inc.),
 the Gaussian 92(TM) system (copyright 1992, Gaussian, Inc.),
 the Gaussian 90(TM) system (copyright 1990, Gaussian, Inc.),
 the Gaussian 88(TM) system (copyright 1988, Gaussian, Inc.),
 the Gaussian 86(TM) system (copyright 1986, Carnegie Mellon
 University), and the Gaussian 82(TM) system (copyright 1983,
 Carnegie Mellon University). Gaussian is a federally registered
 trademark of Gaussian, Inc.
  
 This software contains proprietary and confidential information,
 including trade secrets, belonging to Gaussian, Inc.
  
 This software is provided under written license and may be
 used, copied, transmitted, or stored only in accord with that
 written license.
  
 The following legend is applicable only to US Government
 contracts under FAR:
  
                    RESTRICTED RIGHTS LEGEND
  
 Use, reproduction and disclosure by the US Government is
 subject to restrictions as set forth in subparagraphs (a)
 and (c) of the Commercial Computer Software - Restricted
 Rights clause in FAR 52.227-19.
  
 Gaussian, Inc.
 340 Quinnipiac St., Bldg. 40, Wallingford CT 06492
  
  
 ---------------------------------------------------------------
 Warning -- This program may not be used in any manner that
 competes with the business of Gaussian, Inc. or will provide
 assistance to any competitor of Gaussian, Inc.  The licensee
 of this program is prohibited from giving any competitor of
 Gaussian, Inc. access to this program.  By using this program,
 the user acknowledges that Gaussian, Inc. is engaged in the
 business of creating and licensing software in the field of
 computational chemistry and represents and warrants to the
 licensee that it is not a competitor of Gaussian, Inc. and that
 it will not use this program in any manner prohibited above.
 ---------------------------------------------------------------
  

 Cite this work as:
 Gaussian 16, Revision A.03,
 M. J. Frisch, G. W. Trucks, H. B. Schlegel, G. E. Scuseria, 
 M. A. Robb, J. R. Cheeseman, G. Scalmani, V. Barone, 
 G. A. Petersson, H. Nakatsuji, X. Li, M. Caricato, A. V. Marenich, 
 J. Bloino, B. G. Janesko, R. Gomperts, B. Mennucci, H. P. Hratchian, 
 J. V. Ortiz, A. F. Izmaylov, J. L. Sonnenberg, D. Williams-Young, 
 F. Ding, F. Lipparini, F. Egidi, J. Goings, B. Peng, A. Petrone, 
 T. Henderson, D. Ranasinghe, V. G. Zakrzewski, J. Gao, N. Rega, 
 G. Zheng, W. Liang, M. Hada, M. Ehara, K. Toyota, R. Fukuda, 
 J. Hasegawa, M. Ishida, T. Nakajima, Y. Honda, O. Kitao, H. Nakai, 
 T. Vreven, K. Throssell, J. A. Montgomery, Jr., J. E. Peralta, 
 F. Ogliaro, M. J. Bearpark, J. J. Heyd, E. N. Brothers, K. N. Kudin, 
 V. N. Staroverov, T. A. Keith, R. Kobayashi, J. Normand, 
 K. Raghavachari, A. P. Rendell, J. C. Burant, S. S. Iyengar, 
 J. Tomasi, M. Cossi, J. M. Millam, M. Klene, C. Adamo, R. Cammi, 
 J. W. Ochterski, R. L. Martin, K. Morokuma, O. Farkas, 
 J. B. Foresman, and D. J. Fox, Gaussian, Inc., Wallingford CT, 2016.
 
 ******************************************
 Gaussian 16:  ES64L-G16RevA.03 25-Dec-2016
                 7-Oct-2020 
 ******************************************
 %NoSave
 %nproc=12
 Will use up to   12 processors via shared memory.
 %mem=20GB
 %chk=MN_83_RKT07_BH76_TPSShDBJ_631Gs
 ----------------------------------------------------------------------
 #P Opt(TS,MaxCyc=50,NoEigenTest,MaxStep=10,AddRedundant) TPSSh/6-31G* 
 5D 7F Integral=UltraFineGrid SCF=(NoSymm,XQC,MaxCyc=120) IOp(1/33=1,3/
 174=1000000,3/175=2238200,3/177=0452900,3/178=4655000) EmpiricalDisper
 sion=GD3BJ
 ----------------------------------------------------------------------
 1/5=1,6=50,8=10,11=1,18=120,26=4,33=1,38=1/1,3;
 2/9=110,12=2,17=6,18=5,40=1/2;
 3/5=1,6=6,7=1,8=11,11=2,25=1,30=1,71=1,74=-35,75=-5,124=41,174=1000000,175=2238200,177=452900,178=4655000/1,2,3;
 4/9=2/1;
 5/5=2,7=120,8=3,13=1,38=5/2,8;
 6/7=2,8=2,9=2,10=2,28=1/1;
 7//1,2,3,16;
 1/5=1,6=50,8=10,11=1,18=20,26=4,33=1/3(2);
 2/9=110/2;
 99//99;
 2/9=110/2;
 3/5=1,6=6,7=1,8=11,11=2,25=1,30=1,71=1,74=-35,75=-5,124=41,174=1000000,175=2238200,177=452900,178=4655000/1,2,3;
 4/5=5,9=2,16=3,69=1/1;
 5/5=2,7=120,8=3,13=1,38=5/2,8;
 7//1,2,3,16;
 1/5=1,6=50,8=10,11=1,18=20,26=4,33=1/3(-5);
 2/9=110/2;
 6/7=2,8=2,9=2,10=2,19=2,28=1/1;
 99/9=1/99;
 Leave Link    1 at Wed Oct  7 14:43:11 2020, MaxMem=  2684354560 cpu:               4.4 elap:               0.4
 (Enter /udrive/faculty/rpeverati/g16/g16/l101.exe)
 ONIOM data not found on unit 2.
 ------------------
 TS search on BH76.
 ------------------
 TstMul:  ICh=     0
 TstMul:  Mul=     2
 TstMul:  ICh=     0
 TstMul:  Mul=     2
 Symbolic Z-matrix:
 Charge =  0 Multiplicity = 2
 N                    -1.15082  -0.04393  -0.10256 
 O                     1.17919  -0.0927   -0.01029 
 H                    -1.30318  -0.54764   0.76657 
 H                    -1.33891   0.93581   0.09185 
 H                    -0.03069  -0.15383  -0.35318 
 H                     1.29501   0.81475   0.29499 
 
 RdStrC is calling ZToCFu for IStruc=1 NZ=     6.
 PrtBox:  NBox=     1 Levels=  1 BoxLen=    8.00 SMaxX=        4.98
          Shift=            2.530180            1.034890            0.667421
 Box      1 Number                   0 centers from      1 to      6:
 After GenITR:
 ITRead=  0  0  0  0  0  0
 MicOpt= -1 -1 -1 -1 -1 -1
 Add virtual bond connecting atoms H5         and O2         Dist= 2.38D+00.
 The following ModRedundant input section has been read:
 
 Add atom      1 valence  3 ND=      2 dihedral       3      1      4      5
 ITRead=  0  0  0  0  0  0
 MicOpt= -1 -1 -1 -1 -1 -1
 NAtoms=      6 NQM=        6 NQMF=       0 NMMI=      0 NMMIF=      0
                NMic=       0 NMicF=      0.
                    Isotopes and Nuclear Properties:
 (Nuclear quadrupole moments (NQMom) in fm**2, nuclear magnetic moments (NMagM)
  in nuclear magnetons)

  Atom         1           2           3           4           5           6
 IAtWgt=          14          16           1           1           1           1
 AtmWgt=  14.0030740  15.9949146   1.0078250   1.0078250   1.0078250   1.0078250
 NucSpn=           2           0           1           1           1           1
 AtZEff=   0.0000000   0.0000000   0.0000000   0.0000000   0.0000000   0.0000000
 NQMom=    2.0440000   0.0000000   0.0000000   0.0000000   0.0000000   0.0000000
 NMagM=    0.4037610   0.0000000   2.7928460   2.7928460   2.7928460   2.7928460
 AtZNuc=   7.0000000   8.0000000   1.0000000   1.0000000   1.0000000   1.0000000
 No MM parameters found.
 Leave Link  101 at Wed Oct  7 14:43:11 2020, MaxMem=  2684354560 cpu:               3.5 elap:               0.3
 (Enter /udrive/faculty/rpeverati/g16/g16/l103.exe)

 GradGradGradGradGradGradGradGradGradGradGradGradGradGradGradGradGradGrad
 Berny optimization.
 Optmz: redundant internal coordinate code flag= 1
 Initialization pass.
                           ----------------------------
                           !    Initial Parameters    !
                           ! (Angstroms and Degrees)  !
 --------------------------                            --------------------------
 ! Name  Definition              Value          Derivative Info.                !
 --------------------------------------------------------------------------------
 ! R1    R(1,3)                  1.016          estimate D2E/DX2                !
 ! R2    R(1,4)                  1.0164         estimate D2E/DX2                !
 ! R3    R(1,5)                  1.1531         estimate D2E/DX2                !
 ! R4    R(2,5)                  1.259          estimate D2E/DX2                !
 ! R5    R(2,6)                  0.9644         estimate D2E/DX2                !
 ! A1    A(3,1,4)              106.6489         estimate D2E/DX2                !
 ! A2    A(3,1,5)              106.5202         estimate D2E/DX2                !
 ! A3    A(4,1,5)              108.2535         estimate D2E/DX2                !
 ! A4    A(5,2,6)              104.3186         estimate D2E/DX2                !
 ! A5    A(1,5,2)              150.4226         estimate D2E/DX2                !
 ! D1    D(3,1,4,5)            114.2771         estimate D2E/DX2                !
 ! D2    D(3,1,5,2)            -48.7384         estimate D2E/DX2                !
 ! D3    D(4,1,5,2)             65.6236         estimate D2E/DX2                !
 ! D4    D(6,2,5,1)            -57.509          estimate D2E/DX2                !
 --------------------------------------------------------------------------------
 Maximum allowed force set to 1.00D+20.
 Trust Radius=1.00D-01 FncErr=1.00D-07 GrdErr=1.00D-06 EigMax=2.50D+02 EigMin=1.00D-04
 Number of steps in this run=     50 maximum allowed number of steps=    100.
 Search for a saddle point of order  1.
 GradGradGradGradGradGradGradGradGradGradGradGradGradGradGradGradGradGrad

 Leave Link  103 at Wed Oct  7 14:43:12 2020, MaxMem=  2684354560 cpu:               0.4 elap:               0.2
 (Enter /udrive/faculty/rpeverati/g16/g16/l202.exe)
                          Input orientation:                          
 ---------------------------------------------------------------------
 Center     Atomic      Atomic             Coordinates (Angstroms)
 Number     Number       Type             X           Y           Z
 ---------------------------------------------------------------------
      1          7           0       -1.150818   -0.043932   -0.102559
      2          8           0        1.179187   -0.092696   -0.010290
      3          1           0       -1.303184   -0.547640    0.766571
      4          1           0       -1.338914    0.935808    0.091854
      5          1           0       -0.030687   -0.153834   -0.353184
      6          1           0        1.295008    0.814753    0.294991
 ---------------------------------------------------------------------
                    Distance matrix (angstroms):
                    1          2          3          4          5
     1  N    0.000000
     2  O    2.332340   0.000000
     3  H    1.016034   2.640578   0.000000
     4  H    1.016399   2.721963   1.630073   0.000000
     5  H    1.153076   1.259011   1.740168   1.759782   0.000000
     6  H    2.622489   0.964404   2.971380   2.644515   1.765151
                    6
     6  H    0.000000
 Stoichiometry    H4NO(2)
 Framework group  C1[X(H4NO)]
 Deg. of freedom    12
 Full point group                 C1      NOp   1
 Largest Abelian subgroup         C1      NOp   1
 Largest concise Abelian subgroup C1      NOp   1
                         Standard orientation:                         
 ---------------------------------------------------------------------
 Center     Atomic      Atomic             Coordinates (Angstroms)
 Number     Number       Type             X           Y           Z
 ---------------------------------------------------------------------
      1          7           0       -1.150817   -0.043932   -0.102559
      2          8           0        1.179187   -0.092696   -0.010290
      3          1           0       -1.303183   -0.547640    0.766571
      4          1           0       -1.338913    0.935808    0.091854
      5          1           0       -0.030687   -0.153834   -0.353184
      6          1           0        1.295008    0.814753    0.294991
 ---------------------------------------------------------------------
 Rotational constants (GHZ):         172.0639456          10.7778481          10.5364538
 Leave Link  202 at Wed Oct  7 14:43:12 2020, MaxMem=  2684354560 cpu:               0.8 elap:               0.3
 (Enter /udrive/faculty/rpeverati/g16/g16/l301.exe)
 Standard basis: 6-31G(d) (5D, 7F)
 Ernie: Thresh=  0.10000D-02 Tol=  0.10000D-05 Strict=F.
 There are    38 symmetry adapted cartesian basis functions of A   symmetry.
 There are    36 symmetry adapted basis functions of A   symmetry.
    36 basis functions,    72 primitive gaussians,    38 cartesian basis functions
    10 alpha electrons        9 beta electrons
       nuclear repulsion energy        37.1389864150 Hartrees.
 IExCor= 2523 DFT=T Ex+Corr=TPSSh ExCW=0 ScaHFX=  0.100000
 ScaDFX=  0.900000  0.900000  1.000000  1.000000 ScalE2=  1.000000  1.000000
 IRadAn=      5 IRanWt=     -1 IRanGd=            0 ICorTp=0 IEmpDi=141
 NAtoms=    6 NActive=    6 NUniq=    6 SFac= 1.00D+00 NAtFMM=   60 NAOKFM=F Big=F
 Integral buffers will be    131072 words long.
 Raffenetti 2 integral format.
 Two-electron integral symmetry is turned on.
 R6DIni: Non-standard D2/D3 S6 parameter, value=     1.000000
 R6DIni: Non-standard D2/D3 S8 parameter, value=     2.238200
 R6DIni: Non-standard D3BJ A1 parameter, value=     0.452900
 R6DIni: Non-standard D3BJ A2 parameter, value=     4.655000
 R6Disp:  Grimme-D3(BJ) Dispersion energy=       -0.0019600846 Hartrees.
 Nuclear repulsion after empirical dispersion term =       37.1370263304 Hartrees.
 Leave Link  301 at Wed Oct  7 14:43:13 2020, MaxMem=  2684354560 cpu:               1.6 elap:               0.4
 (Enter /udrive/faculty/rpeverati/g16/g16/l302.exe)
 NPDir=0 NMtPBC=     1 NCelOv=     1 NCel=       1 NClECP=     1 NCelD=      1
         NCelK=      1 NCelE2=     1 NClLst=     1 CellRange=     0.0.
 One-electron integrals computed using PRISM.
 One-electron integral symmetry used in STVInt
 NBasis=    36 RedAO= T EigKep=  2.35D-02  NBF=    36
 NBsUse=    36 1.00D-06 EigRej= -1.00D+00 NBFU=    36
 Precomputing XC quadrature grid using
 IXCGrd= 4 IRadAn=           5 IRanWt=          -1 IRanGd=           0 AccXCQ= 0.00D+00.
 Generated NRdTot=       0 NPtTot=           0 NUsed=           0 NTot=          32
 NSgBfM=    38    38    38    38    38 MxSgAt=     6 MxSgA2=     6.
 Leave Link  302 at Wed Oct  7 14:43:13 2020, MaxMem=  2684354560 cpu:               2.8 elap:               0.5
 (Enter /udrive/faculty/rpeverati/g16/g16/l303.exe)
 DipDrv:  MaxL=1.
 Leave Link  303 at Wed Oct  7 14:43:14 2020, MaxMem=  2684354560 cpu:               1.2 elap:               0.4
 (Enter /udrive/faculty/rpeverati/g16/g16/l401.exe)
 SCF N**3 symmetry information disabled.
 ExpMin= 1.61D-01 ExpMax= 5.48D+03 ExpMxC= 8.25D+02 IAcc=3 IRadAn=         5 AccDes= 0.00D+00
 Harris functional with IExCor= 1009 and IRadAn=       5 diagonalized for initial guess.
 HarFok:  IExCor= 1009 AccDes= 0.00D+00 IRadAn=         5 IDoV= 1 UseB2=F ITyADJ=14
 ICtDFT=  3500011 ScaDFX=  1.000000  1.000000  1.000000  1.000000
 FoFCou: FMM=F IPFlag=           0 FMFlag=      100000 FMFlg1=           0
         NFxFlg=           0 DoJE=T BraDBF=F KetDBF=T FulRan=T
         wScrn=  0.000000 ICntrl=       500 IOpCl=  0 I1Cent=   200000004 NGrid=           0
         NMat0=    1 NMatS0=      1 NMatT0=    0 NMatD0=    1 NMtDS0=    0 NMtDT0=    0
 Petite list used in FoFCou.
 Harris En= -132.152787198343    
 JPrj=0 DoOrth=F DoCkMO=F.
 Initial guess <Sx>= 0.0000 <Sy>= 0.0000 <Sz>= 0.5000 <S**2>= 0.7500 S= 0.5000
 Leave Link  401 at Wed Oct  7 14:43:15 2020, MaxMem=  2684354560 cpu:               5.3 elap:               0.9
 (Enter /udrive/faculty/rpeverati/g16/g16/l502.exe)
 Keep R1 and R2 ints in memory in canonical form, NReq=10808300.
 FoFCou: FMM=F IPFlag=           0 FMFlag=           0 FMFlg1=           0
         NFxFlg=           0 DoJE=F BraDBF=F KetDBF=F FulRan=T
         wScrn=  0.000000 ICntrl=       600 IOpCl=  0 I1Cent=           0 NGrid=           0
         NMat0=    1 NMatS0=    666 NMatT0=    0 NMatD0=    1 NMtDS0=    0 NMtDT0=    0
 Symmetry not used in FoFCou.
 Two-electron integral symmetry not used.
 UHF open shell SCF:
 Using DIIS extrapolation, IDIIS=  1040.
 NGot=  2684354560 LenX=  2683906368 LenY=  2683904483
 Requested convergence on RMS density matrix=1.00D-08 within 120 cycles.
 Requested convergence on MAX density matrix=1.00D-06.
 Requested convergence on             energy=1.00D-06.
 No special actions if energy rises.
 Integral accuracy reduced to 1.0D-05 until final iterations.

 Cycle   1  Pass 0  IDiag  1:
 E= -132.187846882089    
 DIIS: error= 5.88D-02 at cycle   1 NSaved=   1.
 NSaved= 1 IEnMin= 1 EnMin= -132.187846882089     IErMin= 1 ErrMin= 5.88D-02
 ErrMax= 5.88D-02  0.00D+00 EMaxC= 1.00D-01 BMatC= 3.79D-01 BMatP= 3.79D-01
 IDIUse=3 WtCom= 4.12D-01 WtEn= 5.88D-01
 Coeff-Com:  0.100D+01
 Coeff-En:   0.100D+01
 Coeff:      0.100D+01
 Gap=     0.258 Goal=   None    Shift=    0.000
 Gap=     0.003 Goal=   None    Shift=    0.000
 GapD=    0.003 DampG=0.250 DampE=0.500 DampFc=0.2500 IDamp=-1.
 Damping current iteration by 2.50D-01
 RMSDP=2.07D-02 MaxDP=2.08D-01              OVMax= 4.94D-01

 Cycle   2  Pass 0  IDiag  1:
 E= -132.218325175281     Delta-E=       -0.030478293192 Rises=F Damp=T
 DIIS: error= 1.86D-02 at cycle   2 NSaved=   2.
 NSaved= 2 IEnMin= 2 EnMin= -132.218325175281     IErMin= 2 ErrMin= 1.86D-02
 ErrMax= 1.86D-02  0.00D+00 EMaxC= 1.00D-01 BMatC= 6.21D-02 BMatP= 3.79D-01
 IDIUse=3 WtCom= 8.14D-01 WtEn= 1.86D-01
 Coeff-Com: -0.393D+00 0.139D+01
 Coeff-En:   0.000D+00 0.100D+01
 Coeff:     -0.320D+00 0.132D+01
 Gap=     0.327 Goal=   None    Shift=    0.000
 Gap=     0.090 Goal=   None    Shift=    0.000
 RMSDP=5.25D-03 MaxDP=5.65D-02 DE=-3.05D-02 OVMax= 4.39D-01

 Cycle   3  Pass 0  IDiag  1:
 E= -132.254238167196     Delta-E=       -0.035912991915 Rises=F Damp=F
 DIIS: error= 2.11D-02 at cycle   3 NSaved=   3.
 NSaved= 3 IEnMin= 3 EnMin= -132.254238167196     IErMin= 2 ErrMin= 1.86D-02
 ErrMax= 2.11D-02  0.00D+00 EMaxC= 1.00D-01 BMatC= 7.41D-02 BMatP= 6.21D-02
 IDIUse=2 WtCom= 0.00D+00 WtEn= 1.00D+00
 Coeff-En:   0.000D+00 0.000D+00 0.100D+01
 Coeff:      0.000D+00 0.000D+00 0.100D+01
 Gap=     0.358 Goal=   None    Shift=    0.000
 Gap=     0.086 Goal=   None    Shift=    0.000
 RMSDP=1.10D-02 MaxDP=1.36D-01 DE=-3.59D-02 OVMax= 3.97D-01

 Cycle   4  Pass 0  IDiag  1:
 E= -132.156091984202     Delta-E=        0.098146182994 Rises=F Damp=F
 DIIS: error= 4.76D-02 at cycle   4 NSaved=   4.
 NSaved= 4 IEnMin= 3 EnMin= -132.254238167196     IErMin= 2 ErrMin= 1.86D-02
 ErrMax= 4.76D-02  0.00D+00 EMaxC= 1.00D-01 BMatC= 4.94D-01 BMatP= 6.21D-02
 IDIUse=2 WtCom= 0.00D+00 WtEn= 1.00D+00
 Coeff-En:   0.000D+00 0.000D+00 0.801D+00 0.199D+00
 Coeff:      0.000D+00 0.000D+00 0.801D+00 0.199D+00
 Gap=     0.320 Goal=   None    Shift=    0.000
 Gap=     0.083 Goal=   None    Shift=    0.000
 RMSDP=6.04D-03 MaxDP=8.41D-02 DE= 9.81D-02 OVMax= 1.86D-01

 Cycle   5  Pass 0  IDiag  1:
 E= -132.264433327288     Delta-E=       -0.108341343086 Rises=F Damp=F
 DIIS: error= 1.44D-02 at cycle   5 NSaved=   5.
 NSaved= 5 IEnMin= 5 EnMin= -132.264433327288     IErMin= 5 ErrMin= 1.44D-02
 ErrMax= 1.44D-02  0.00D+00 EMaxC= 1.00D-01 BMatC= 3.78D-02 BMatP= 6.21D-02
 IDIUse=3 WtCom= 8.56D-01 WtEn= 1.44D-01
 Coeff-Com: -0.476D-01 0.566D-01 0.304D+00-0.118D+00 0.806D+00
 Coeff-En:   0.000D+00 0.000D+00 0.362D+00 0.000D+00 0.638D+00
 Coeff:     -0.407D-01 0.484D-01 0.312D+00-0.101D+00 0.781D+00
 Gap=     0.326 Goal=   None    Shift=    0.000
 Gap=     0.106 Goal=   None    Shift=    0.000
 RMSDP=2.23D-03 MaxDP=2.73D-02 DE=-1.08D-01 OVMax= 5.87D-02

 Cycle   6  Pass 0  IDiag  1:
 E= -132.273458430145     Delta-E=       -0.009025102856 Rises=F Damp=F
 DIIS: error= 4.93D-04 at cycle   6 NSaved=   6.
 NSaved= 6 IEnMin= 6 EnMin= -132.273458430145     IErMin= 6 ErrMin= 4.93D-04
 ErrMax= 4.93D-04  0.00D+00 EMaxC= 1.00D-01 BMatC= 3.70D-05 BMatP= 3.78D-02
 IDIUse=3 WtCom= 9.95D-01 WtEn= 4.93D-03
 Coeff-Com:  0.104D-01-0.179D-01-0.689D-01 0.542D-02-0.114D+00 0.119D+01
 Coeff-En:   0.000D+00 0.000D+00 0.000D+00 0.000D+00 0.000D+00 0.100D+01
 Coeff:      0.104D-01-0.179D-01-0.686D-01 0.540D-02-0.114D+00 0.118D+01
 Gap=     0.326 Goal=   None    Shift=    0.000
 Gap=     0.109 Goal=   None    Shift=    0.000
 RMSDP=3.27D-04 MaxDP=3.54D-03 DE=-9.03D-03 OVMax= 1.10D-02

 Cycle   7  Pass 0  IDiag  1:
 E= -132.273499862286     Delta-E=       -0.000041432142 Rises=F Damp=F
 DIIS: error= 2.76D-04 at cycle   7 NSaved=   7.
 NSaved= 7 IEnMin= 7 EnMin= -132.273499862286     IErMin= 7 ErrMin= 2.76D-04
 ErrMax= 2.76D-04  0.00D+00 EMaxC= 1.00D-01 BMatC= 1.30D-05 BMatP= 3.70D-05
 IDIUse=3 WtCom= 9.97D-01 WtEn= 2.76D-03
 Coeff-Com:  0.863D-02-0.901D-02-0.387D-01 0.125D-01-0.105D+00 0.365D-01
 Coeff-Com:  0.110D+01
 Coeff-En:   0.000D+00 0.000D+00 0.000D+00 0.000D+00 0.000D+00 0.000D+00
 Coeff-En:   0.100D+01
 Coeff:      0.861D-02-0.899D-02-0.386D-01 0.124D-01-0.105D+00 0.364D-01
 Coeff:      0.110D+01
 Gap=     0.325 Goal=   None    Shift=    0.000
 Gap=     0.110 Goal=   None    Shift=    0.000
 RMSDP=1.60D-04 MaxDP=2.03D-03 DE=-4.14D-05 OVMax= 6.24D-03

 Cycle   8  Pass 0  IDiag  1:
 E= -132.273509156697     Delta-E=       -0.000009294411 Rises=F Damp=F
 DIIS: error= 1.32D-04 at cycle   8 NSaved=   8.
 NSaved= 8 IEnMin= 8 EnMin= -132.273509156697     IErMin= 8 ErrMin= 1.32D-04
 ErrMax= 1.32D-04  0.00D+00 EMaxC= 1.00D-01 BMatC= 1.70D-06 BMatP= 1.30D-05
 IDIUse=3 WtCom= 9.99D-01 WtEn= 1.32D-03
 Coeff-Com: -0.288D-02 0.505D-02 0.730D-02-0.106D-02 0.160D-01-0.126D+00
 Coeff-Com:  0.783D-01 0.102D+01
 Coeff-En:   0.000D+00 0.000D+00 0.000D+00 0.000D+00 0.000D+00 0.000D+00
 Coeff-En:   0.000D+00 0.100D+01
 Coeff:     -0.288D-02 0.504D-02 0.729D-02-0.106D-02 0.160D-01-0.126D+00
 Coeff:      0.782D-01 0.102D+01
 Gap=     0.325 Goal=   None    Shift=    0.000
 Gap=     0.110 Goal=   None    Shift=    0.000
 RMSDP=6.13D-05 MaxDP=8.79D-04 DE=-9.29D-06 OVMax= 2.56D-03

 Cycle   9  Pass 0  IDiag  1:
 E= -132.273510820649     Delta-E=       -0.000001663952 Rises=F Damp=F
 DIIS: error= 6.74D-05 at cycle   9 NSaved=   9.
 NSaved= 9 IEnMin= 9 EnMin= -132.273510820649     IErMin= 9 ErrMin= 6.74D-05
 ErrMax= 6.74D-05  0.00D+00 EMaxC= 1.00D-01 BMatC= 2.13D-07 BMatP= 1.70D-06
 IDIUse=1 WtCom= 1.00D+00 WtEn= 0.00D+00
 Coeff-Com: -0.900D-03 0.918D-03 0.219D-02-0.639D-03 0.681D-02 0.516D-02
 Coeff-Com: -0.157D+00-0.223D+00 0.137D+01
 Coeff:     -0.900D-03 0.918D-03 0.219D-02-0.639D-03 0.681D-02 0.516D-02
 Coeff:     -0.157D+00-0.223D+00 0.137D+01
 Gap=     0.325 Goal=   None    Shift=    0.000
 Gap=     0.110 Goal=   None    Shift=    0.000
 RMSDP=4.97D-05 MaxDP=7.50D-04 DE=-1.66D-06 OVMax= 2.27D-03

 Cycle  10  Pass 0  IDiag  1:
 E= -132.273511367537     Delta-E=       -0.000000546888 Rises=F Damp=F
 DIIS: error= 2.26D-05 at cycle  10 NSaved=  10.
 NSaved=10 IEnMin=10 EnMin= -132.273511367537     IErMin=10 ErrMin= 2.26D-05
 ErrMax= 2.26D-05  0.00D+00 EMaxC= 1.00D-01 BMatC= 3.92D-08 BMatP= 2.13D-07
 IDIUse=1 WtCom= 1.00D+00 WtEn= 0.00D+00
 Coeff-Com:  0.262D-03-0.510D-03-0.183D-02 0.248D-03-0.349D-02 0.276D-01
 Coeff-Com: -0.318D-01-0.258D+00 0.179D+00 0.109D+01
 Coeff:      0.262D-03-0.510D-03-0.183D-02 0.248D-03-0.349D-02 0.276D-01
 Coeff:     -0.318D-01-0.258D+00 0.179D+00 0.109D+01
 Gap=     0.325 Goal=   None    Shift=    0.000
 Gap=     0.110 Goal=   None    Shift=    0.000
 RMSDP=2.08D-05 MaxDP=3.15D-04 DE=-5.47D-07 OVMax= 9.66D-04

 Cycle  11  Pass 0  IDiag  1:
 E= -132.273511434750     Delta-E=       -0.000000067213 Rises=F Damp=F
 DIIS: error= 6.75D-06 at cycle  11 NSaved=  11.
 NSaved=11 IEnMin=11 EnMin= -132.273511434750     IErMin=11 ErrMin= 6.75D-06
 ErrMax= 6.75D-06  0.00D+00 EMaxC= 1.00D-01 BMatC= 5.96D-09 BMatP= 3.92D-08
 IDIUse=1 WtCom= 1.00D+00 WtEn= 0.00D+00
 Coeff-Com:  0.822D-05 0.101D-04-0.326D-03 0.806D-04-0.660D-03 0.553D-04
 Coeff-Com:  0.177D-01 0.119D-01-0.126D+00 0.195D-01 0.108D+01
 Coeff:      0.822D-05 0.101D-04-0.326D-03 0.806D-04-0.660D-03 0.553D-04
 Coeff:      0.177D-01 0.119D-01-0.126D+00 0.195D-01 0.108D+01
 Gap=     0.325 Goal=   None    Shift=    0.000
 Gap=     0.110 Goal=   None    Shift=    0.000
 RMSDP=3.21D-06 MaxDP=4.62D-05 DE=-6.72D-08 OVMax= 1.43D-04

 Initial convergence to 1.0D-05 achieved.  Increase integral accuracy.
 Cycle  12  Pass 1  IDiag  1:
 E= -132.273510754926     Delta-E=        0.000000679824 Rises=F Damp=F
 DIIS: error= 1.50D-06 at cycle   1 NSaved=   1.
 NSaved= 1 IEnMin= 1 EnMin= -132.273510754926     IErMin= 1 ErrMin= 1.50D-06
 ErrMax= 1.50D-06  0.00D+00 EMaxC= 1.00D-01 BMatC= 5.03D-10 BMatP= 5.03D-10
 IDIUse=1 WtCom= 1.00D+00 WtEn= 0.00D+00
 Coeff-Com:  0.100D+01
 Coeff:      0.100D+01
 Gap=     0.325 Goal=   None    Shift=    0.000
 Gap=     0.110 Goal=   None    Shift=    0.000
 RMSDP=3.21D-06 MaxDP=4.62D-05 DE= 6.80D-07 OVMax= 2.75D-05

 Cycle  13  Pass 1  IDiag  1:
 E= -132.273510754505     Delta-E=        0.000000000421 Rises=F Damp=F
 DIIS: error= 4.08D-06 at cycle   2 NSaved=   2.
 NSaved= 2 IEnMin= 1 EnMin= -132.273510754926     IErMin= 1 ErrMin= 1.50D-06
 ErrMax= 4.08D-06  0.00D+00 EMaxC= 1.00D-01 BMatC= 2.36D-09 BMatP= 5.03D-10
 IDIUse=1 WtCom= 1.00D+00 WtEn= 0.00D+00
 Coeff-Com:  0.704D+00 0.296D+00
 Coeff:      0.704D+00 0.296D+00
 Gap=     0.325 Goal=   None    Shift=    0.000
 Gap=     0.110 Goal=   None    Shift=    0.000
 RMSDP=6.56D-07 MaxDP=9.41D-06 DE= 4.21D-10 OVMax= 2.43D-05

 Cycle  14  Pass 1  IDiag  1:
 E= -132.273510755042     Delta-E=       -0.000000000537 Rises=F Damp=F
 DIIS: error= 7.94D-07 at cycle   3 NSaved=   3.
 NSaved= 3 IEnMin= 3 EnMin= -132.273510755042     IErMin= 3 ErrMin= 7.94D-07
 ErrMax= 7.94D-07  0.00D+00 EMaxC= 1.00D-01 BMatC= 8.13D-11 BMatP= 5.03D-10
 IDIUse=1 WtCom= 1.00D+00 WtEn= 0.00D+00
 Coeff-Com:  0.248D-01 0.155D+00 0.820D+00
 Coeff:      0.248D-01 0.155D+00 0.820D+00
 Gap=     0.325 Goal=   None    Shift=    0.000
 Gap=     0.110 Goal=   None    Shift=    0.000
 RMSDP=1.11D-07 MaxDP=1.24D-06 DE=-5.37D-10 OVMax= 3.28D-06

 Cycle  15  Pass 1  IDiag  1:
 E= -132.273510755062     Delta-E=       -0.000000000020 Rises=F Damp=F
 DIIS: error= 1.42D-07 at cycle   4 NSaved=   4.
 NSaved= 4 IEnMin= 4 EnMin= -132.273510755062     IErMin= 4 ErrMin= 1.42D-07
 ErrMax= 1.42D-07  0.00D+00 EMaxC= 1.00D-01 BMatC= 2.71D-12 BMatP= 8.13D-11
 IDIUse=1 WtCom= 1.00D+00 WtEn= 0.00D+00
 Coeff-Com: -0.368D-01 0.303D-01 0.141D+00 0.866D+00
 Coeff:     -0.368D-01 0.303D-01 0.141D+00 0.866D+00
 Gap=     0.325 Goal=   None    Shift=    0.000
 Gap=     0.110 Goal=   None    Shift=    0.000
 RMSDP=4.96D-08 MaxDP=6.80D-07 DE=-2.02D-11 OVMax= 2.12D-06

 Cycle  16  Pass 1  IDiag  1:
 E= -132.273510755064     Delta-E=       -0.000000000001 Rises=F Damp=F
 DIIS: error= 7.45D-08 at cycle   5 NSaved=   5.
 NSaved= 5 IEnMin= 5 EnMin= -132.273510755064     IErMin= 5 ErrMin= 7.45D-08
 ErrMax= 7.45D-08  0.00D+00 EMaxC= 1.00D-01 BMatC= 7.54D-13 BMatP= 2.71D-12
 IDIUse=1 WtCom= 1.00D+00 WtEn= 0.00D+00
 Coeff-Com: -0.794D-02-0.108D-01-0.127D+00 0.116D+00 0.103D+01
 Coeff:     -0.794D-02-0.108D-01-0.127D+00 0.116D+00 0.103D+01
 Gap=     0.325 Goal=   None    Shift=    0.000
 Gap=     0.110 Goal=   None    Shift=    0.000
 RMSDP=4.00D-08 MaxDP=5.68D-07 DE=-1.48D-12 OVMax= 1.75D-06

 Cycle  17  Pass 1  IDiag  1:
 E= -132.273510755065     Delta-E=       -0.000000000001 Rises=F Damp=F
 DIIS: error= 4.24D-08 at cycle   6 NSaved=   6.
 NSaved= 6 IEnMin= 6 EnMin= -132.273510755065     IErMin= 6 ErrMin= 4.24D-08
 ErrMax= 4.24D-08  0.00D+00 EMaxC= 1.00D-01 BMatC= 1.94D-13 BMatP= 7.54D-13
 IDIUse=1 WtCom= 1.00D+00 WtEn= 0.00D+00
 Coeff-Com:  0.571D-02-0.130D-01-0.110D+00-0.170D+00 0.523D+00 0.764D+00
 Coeff:      0.571D-02-0.130D-01-0.110D+00-0.170D+00 0.523D+00 0.764D+00
 Gap=     0.325 Goal=   None    Shift=    0.000
 Gap=     0.110 Goal=   None    Shift=    0.000
 RMSDP=2.38D-08 MaxDP=3.58D-07 DE=-1.02D-12 OVMax= 1.09D-06

 Cycle  18  Pass 1  IDiag  1:
 E= -132.273510755065     Delta-E=       -0.000000000000 Rises=F Damp=F
 DIIS: error= 2.00D-08 at cycle   7 NSaved=   7.
 NSaved= 7 IEnMin= 7 EnMin= -132.273510755065     IErMin= 7 ErrMin= 2.00D-08
 ErrMax= 2.00D-08  0.00D+00 EMaxC= 1.00D-01 BMatC= 1.74D-14 BMatP= 1.94D-13
 IDIUse=1 WtCom= 1.00D+00 WtEn= 0.00D+00
 Coeff-Com:  0.822D-03 0.120D-02 0.172D-01-0.120D-01-0.172D+00 0.267D-01
 Coeff-Com:  0.114D+01
 Coeff:      0.822D-03 0.120D-02 0.172D-01-0.120D-01-0.172D+00 0.267D-01
 Coeff:      0.114D+01
 Gap=     0.325 Goal=   None    Shift=    0.000
 Gap=     0.110 Goal=   None    Shift=    0.000
 RMSDP=1.29D-08 MaxDP=1.93D-07 DE=-8.53D-14 OVMax= 5.81D-07

 Cycle  19  Pass 1  IDiag  1:
 E= -132.273510755065     Delta-E=       -0.000000000000 Rises=F Damp=F
 DIIS: error= 7.60D-09 at cycle   8 NSaved=   8.
 NSaved= 8 IEnMin= 8 EnMin= -132.273510755065     IErMin= 8 ErrMin= 7.60D-09
 ErrMax= 7.60D-09  0.00D+00 EMaxC= 1.00D-01 BMatC= 4.15D-15 BMatP= 1.74D-14
 IDIUse=1 WtCom= 1.00D+00 WtEn= 0.00D+00
 Coeff-Com: -0.163D-02 0.340D-02 0.334D-01 0.523D-01-0.168D+00-0.218D+00
 Coeff-Com:  0.768D-01 0.122D+01
 Coeff:     -0.163D-02 0.340D-02 0.334D-01 0.523D-01-0.168D+00-0.218D+00
 Coeff:      0.768D-01 0.122D+01
 Gap=     0.325 Goal=   None    Shift=    0.000
 Gap=     0.110 Goal=   None    Shift=    0.000
 RMSDP=7.45D-09 MaxDP=1.12D-07 DE=-2.84D-14 OVMax= 3.36D-07

 SCF Done:  E(UTPSSh) =  -132.273510755     A.U. after   19 cycles
            NFock= 19  Conv=0.75D-08     -V/T= 2.0051
 <Sx>= 0.0000 <Sy>= 0.0000 <Sz>= 0.5000 <S**2>= 0.7567 S= 0.5033
 <L.S>= 0.000000000000E+00
 KE= 1.316086200844D+02 PE=-3.856223408954D+02 EE= 8.460318372563D+01
 Annihilation of the first spin contaminant:
 S**2 before annihilation     0.7567,   after     0.7500
 Leave Link  502 at Wed Oct  7 14:43:20 2020, MaxMem=  2684354560 cpu:              55.4 elap:               5.0
 (Enter /udrive/faculty/rpeverati/g16/g16/l508.exe)
 QCSCF skips out because SCF is already converged.
 Leave Link  508 at Wed Oct  7 14:43:21 2020, MaxMem=  2684354560 cpu:               0.2 elap:               0.3
 (Enter /udrive/faculty/rpeverati/g16/g16/l601.exe)
 Copying SCF densities to generalized density rwf, IOpCl= 1 IROHF=0.

 **********************************************************************

            Population analysis using the SCF density.

 **********************************************************************

 Orbital symmetries:
 Alpha Orbitals:
       Occupied  (A) (A) (A) (A) (A) (A) (A) (A) (A) (A)
       Virtual   (A) (A) (A) (A) (A) (A) (A) (A) (A) (A) (A) (A)
                 (A) (A) (A) (A) (A) (A) (A) (A) (A) (A) (A) (A)
                 (A) (A)
 Beta  Orbitals:
       Occupied  (A) (A) (A) (A) (A) (A) (A) (A) (A)
       Virtual   (A) (A) (A) (A) (A) (A) (A) (A) (A) (A) (A) (A)
                 (A) (A) (A) (A) (A) (A) (A) (A) (A) (A) (A) (A)
                 (A) (A) (A)
 The electronic state is 2-A.
 Alpha  occ. eigenvalues --  -19.06972 -14.28461  -0.95948  -0.85448  -0.49880
 Alpha  occ. eigenvalues --   -0.47456  -0.39538  -0.31803  -0.26689  -0.26418
 Alpha virt. eigenvalues --    0.06090   0.11655   0.14613   0.28992   0.61645
 Alpha virt. eigenvalues --    0.64672   0.68135   0.81354   0.83110   0.84919
 Alpha virt. eigenvalues --    0.88070   0.93549   0.97546   1.09805   1.26613
 Alpha virt. eigenvalues --    1.43139   1.61660   1.66829   1.72491   1.74845
 Alpha virt. eigenvalues --    1.76802   1.89702   2.06626   2.39386   2.42606
 Alpha virt. eigenvalues --    2.61224
  Beta  occ. eigenvalues --  -19.05454 -14.27248  -0.92517  -0.82549  -0.47925
  Beta  occ. eigenvalues --   -0.46703  -0.37570  -0.26925  -0.25309
  Beta virt. eigenvalues --   -0.14329   0.06885   0.12336   0.15072   0.30058
  Beta virt. eigenvalues --    0.63569   0.65154   0.72101   0.82738   0.84266
  Beta virt. eigenvalues --    0.87205   0.89251   0.94806   1.00128   1.12269
  Beta virt. eigenvalues --    1.28587   1.45466   1.65790   1.69062   1.75594
  Beta virt. eigenvalues --    1.76907   1.79887   1.93176   2.10531   2.41331
  Beta virt. eigenvalues --    2.44799   2.64244
          Condensed to atoms (all electrons):
               1          2          3          4          5          6
     1  N    7.112655  -0.075537   0.291386   0.284092   0.186633   0.015585
     2  O   -0.075537   8.419922   0.006881   0.007200   0.113856   0.214079
     3  H    0.291386   0.006881   0.408071  -0.025295  -0.019076  -0.000136
     4  H    0.284092   0.007200  -0.025295   0.428671  -0.017787  -0.000402
     5  H    0.186633   0.113856  -0.019076  -0.017787   0.309027  -0.024094
     6  H    0.015585   0.214079  -0.000136  -0.000402  -0.024094   0.406886
          Atomic-Atomic Spin Densities.
               1          2          3          4          5          6
     1  N    0.649443  -0.080131  -0.005255  -0.005194  -0.006921   0.003471
     2  O   -0.080131   0.633545   0.001024   0.001286  -0.009331  -0.003573
     3  H   -0.005255   0.001024  -0.014940   0.001170   0.000226  -0.000118
     4  H   -0.005194   0.001286   0.001170  -0.015416   0.000092  -0.000232
     5  H   -0.006921  -0.009331   0.000226   0.000092  -0.032414   0.000215
     6  H    0.003471  -0.003573  -0.000118  -0.000232   0.000215  -0.013672
 Mulliken charges and spin densities:
               1          2
     1  N   -0.814814   0.555412
     2  O   -0.686400   0.542819
     3  H    0.338168  -0.017894
     4  H    0.323522  -0.018295
     5  H    0.451441  -0.048134
     6  H    0.388082  -0.013909
 Sum of Mulliken charges =  -0.00000   1.00000
 Mulliken charges and spin densities with hydrogens summed into heavy atoms:
               1          2
     1  N    0.298317   0.471090
     2  O   -0.298317   0.528910
 Electronic spatial extent (au):  <R**2>=            130.3882
 Charge=             -0.0000 electrons
 Dipole moment (field-independent basis, Debye):
    X=             -1.2014    Y=              2.0867    Z=              1.6781  Tot=              2.9350
 Quadrupole moment (field-independent basis, Debye-Ang):
   XX=            -14.3741   YY=            -11.0331   ZZ=            -13.6009
   XY=              1.1398   XZ=             -1.6494   YZ=             -0.0642
 Traceless Quadrupole moment (field-independent basis, Debye-Ang):
   XX=             -1.3714   YY=              1.9696   ZZ=             -0.5982
   XY=              1.1398   XZ=             -1.6494   YZ=             -0.0642
 Octapole moment (field-independent basis, Debye-Ang**2):
  XXX=              2.1096  YYY=              2.6955  ZZZ=              1.9006  XYY=              0.5016
  XXY=              4.5731  XXZ=              4.3720  XZZ=              0.3126  YZZ=              0.0514
  YYZ=              1.1026  XYZ=              1.7348
 Hexadecapole moment (field-independent basis, Debye-Ang**3):
 XXXX=           -119.6881 YYYY=            -14.2628 ZZZZ=            -14.2030 XXXY=              1.8427
 XXXZ=             -4.1216 YYYX=              0.1989 YYYZ=              0.1276 ZZZX=             -2.1427
 ZZZY=             -0.5737 XXYY=            -18.5800 XXZZ=            -22.6082 YYZZ=             -4.8104
 XXYZ=             -0.2742 YYXZ=             -0.6264 ZZXY=              0.7966
 N-N= 3.713702633036D+01 E-N=-3.856223408784D+02  KE= 1.316086200844D+02
                          Isotropic Fermi Contact Couplings
        Atom                 a.u.       MegaHertz       Gauss      10(-4) cm-1
     1  N(14)              0.06057      19.56974       6.98297       6.52776
     2  O(17)              0.08134     -49.31044     -17.59519     -16.44819
     3  H(1)              -0.00787     -35.18581     -12.55517     -11.73672
     4  H(1)              -0.00813     -36.31973     -12.95978     -12.11496
     5  H(1)              -0.02283    -102.02914     -36.40654     -34.03326
     6  H(1)              -0.00781     -34.92497     -12.46210     -11.64972
 --------------------------------------------------------
       Center         ----  Spin Dipole Couplings  ----
                      3XX-RR        3YY-RR        3ZZ-RR
 --------------------------------------------------------
     1   Atom        1.049640     -0.588855     -0.460786
     2   Atom        2.026530     -1.029257     -0.997273
     3   Atom       -0.010208     -0.022329      0.032537
     4   Atom       -0.009514      0.062681     -0.053167
     5   Atom        0.171972     -0.102094     -0.069879
     6   Atom       -0.019183      0.078050     -0.058867
 --------------------------------------------------------
                        XY            XZ            YZ
 --------------------------------------------------------
     1   Atom        0.273957      0.562293      0.083928
     2   Atom       -0.295149     -0.498624      0.060720
     3   Atom        0.021074     -0.011077     -0.055311
     4   Atom       -0.023046      0.008143      0.021339
     5   Atom       -0.016170     -0.011340      0.014309
     6   Atom        0.024767      0.002288      0.051080
 --------------------------------------------------------


 ---------------------------------------------------------------------------------
              Anisotropic Spin Dipole Couplings in Principal Axis System
 ---------------------------------------------------------------------------------

       Atom             a.u.   MegaHertz   Gauss  10(-4) cm-1        Axes

              Baa    -0.6496   -25.053    -8.940    -8.357 -0.3447  0.3533  0.8697
     1 N(14)  Bbb    -0.6303   -24.309    -8.674    -8.109 -0.0221  0.9232 -0.3837
              Bcc     1.2799    49.362    17.614    16.466  0.9384  0.1515  0.3105
 
              Baa    -1.0839    78.433    27.987    26.163  0.1001 -0.4468  0.8890
     2 O(17)  Bbb    -1.0513    76.073    27.145    25.375  0.1549  0.8896  0.4296
              Bcc     2.1353  -154.507   -55.132   -51.538  0.9828 -0.0947 -0.1583
 
              Baa    -0.0598   -31.899   -11.382   -10.640 -0.2523  0.8431  0.4748
     3 H(1)   Bbb    -0.0123    -6.536    -2.332    -2.180  0.9361  0.0883  0.3406
              Bcc     0.0720    38.435    13.715    12.821 -0.2452 -0.5304  0.8115
 
              Baa    -0.0601   -32.050   -11.436   -10.691 -0.2485 -0.2110  0.9454
     4 H(1)   Bbb    -0.0120    -6.420    -2.291    -2.141  0.9344  0.2050  0.2913
              Bcc     0.0721    38.470    13.727    12.832 -0.2553  0.9557  0.1462
 
              Baa    -0.1080   -57.613   -20.558   -19.218  0.0405  0.9393 -0.3407
     5 H(1)   Bbb    -0.0656   -34.976   -12.480   -11.667  0.0678  0.3376  0.9388
              Bcc     0.1735    92.588    33.038    30.884  0.9969 -0.0611 -0.0500
 
              Baa    -0.0764   -40.770   -14.548   -13.600  0.1041 -0.3273  0.9392
     6 H(1)   Bbb    -0.0235   -12.553    -4.479    -4.187  0.9743 -0.1559 -0.1623
              Bcc     0.0999    53.324    19.027    17.787  0.1996  0.9320  0.3026
 

 ---------------------------------------------------------------------------------

 No NMR shielding tensors so no spin-rotation constants.
 Leave Link  601 at Wed Oct  7 14:43:22 2020, MaxMem=  2684354560 cpu:               4.4 elap:               0.7
 (Enter /udrive/faculty/rpeverati/g16/g16/l701.exe)
 ... and contract with generalized density number  0.
 Compute integral first derivatives.
 R6Disp: Adding Grimme-D3(BJ) dispersion energy 1st derivatives to the gradient.
 Leave Link  701 at Wed Oct  7 14:43:23 2020, MaxMem=  2684354560 cpu:               3.8 elap:               0.7
 (Enter /udrive/faculty/rpeverati/g16/g16/l702.exe)
 L702 exits ... SP integral derivatives will be done elsewhere.
 Leave Link  702 at Wed Oct  7 14:43:23 2020, MaxMem=  2684354560 cpu:               1.1 elap:               0.4
 (Enter /udrive/faculty/rpeverati/g16/g16/l703.exe)
 Integral derivatives from FoFJK, PRISM(SPDF).
 Compute integral first derivatives, UseDBF=F ICtDFT=           0.
 Calling FoFJK, ICntrl=      2127 FMM=F ISym2X=0 I1Cent= 0 IOpClX= 1 NMat=1 NMatS=1 NMatT=0.
 FoFJK:  IHMeth= 1 ICntrl=    2127 DoSepK=F KAlg= 0 I1Cent=           0 FoldK=F
 IRaf=         0 NMat=       1 IRICut=       1 DoRegI=T DoRafI=F ISym2E= 0 IDoP0=0 IntGTp=1.
 FoFCou: FMM=F IPFlag=           0 FMFlag=      100000 FMFlg1=         800
         NFxFlg=           0 DoJE=F BraDBF=F KetDBF=F FulRan=T
         wScrn=  0.000000 ICntrl=      2127 IOpCl=  1 I1Cent=           0 NGrid=           0
         NMat0=    1 NMatS0=      1 NMatT0=    0 NMatD0=    1 NMtDS0=    0 NMtDT0=    0
 Symmetry not used in FoFCou.
 Leave Link  703 at Wed Oct  7 14:43:25 2020, MaxMem=  2684354560 cpu:               7.3 elap:               1.0
 (Enter /udrive/faculty/rpeverati/g16/g16/l716.exe)
 Dipole        =-4.72679236D-01 8.20990452D-01 6.60224767D-01
 ***** Axes restored to original set *****
 -------------------------------------------------------------------
 Center     Atomic                   Forces (Hartrees/Bohr)
 Number     Number              X              Y              Z
 -------------------------------------------------------------------
      1        7           0.000604797   -0.002795182   -0.005838720
      2        8           0.003073030   -0.011018752   -0.000661226
      3        1          -0.002162379   -0.003018516    0.006085827
      4        1          -0.002475393    0.006671912    0.002452256
      5        1          -0.002270175   -0.002377970   -0.005800186
      6        1           0.003230120    0.012538509    0.003762049
 -------------------------------------------------------------------
 Cartesian Forces:  Max     0.012538509 RMS     0.005308770
 Leave Link  716 at Wed Oct  7 14:43:25 2020, MaxMem=  2684354560 cpu:               1.3 elap:               0.5
 (Enter /udrive/faculty/rpeverati/g16/g16/l103.exe)

 GradGradGradGradGradGradGradGradGradGradGradGradGradGradGradGradGradGrad
 Berny optimization.
 Optmz: redundant internal coordinate code flag= 1
 FormGI is forming the generalized inverse of G from B-inverse, IUseBI=4.
 Internal  Forces:  Max     0.013377254 RMS     0.005157504
 Search for a saddle point.
 Step number   1 out of a maximum of   50
 All quantities printed in internal units (Hartrees-Bohrs-Radians)
 Swapping is turned off.
 Second derivative matrix not updated -- first step.
 The second derivative matrix:
                          R1        R2        R3        R4        R5
           R1           0.44977
           R2           0.00000   0.44918
           R3           0.00000   0.00000   0.28434
           R4           0.00000   0.00000   0.00000   0.20815
           R5           0.00000   0.00000   0.00000   0.00000   0.54537
           A1           0.00000   0.00000   0.00000   0.00000   0.00000
           A2           0.00000   0.00000   0.00000   0.00000   0.00000
           A3           0.00000   0.00000   0.00000   0.00000   0.00000
           A4           0.00000   0.00000   0.00000   0.00000   0.00000
           A5           0.00000   0.00000   0.00000   0.00000   0.00000
           D1           0.00000   0.00000   0.00000   0.00000   0.00000
           D2           0.00000   0.00000   0.00000   0.00000   0.00000
           D3           0.00000   0.00000   0.00000   0.00000   0.00000
           D4           0.00000   0.00000   0.00000   0.00000   0.00000
                          A1        A2        A3        A4        A5
           A1           0.16000
           A2           0.00000   0.16000
           A3           0.00000   0.00000   0.16000
           A4           0.00000   0.00000   0.00000   0.16000
           A5           0.00000   0.00000   0.00000   0.00000   0.25000
           D1           0.00000   0.00000   0.00000   0.00000   0.00000
           D2           0.00000   0.00000   0.00000   0.00000   0.00000
           D3           0.00000   0.00000   0.00000   0.00000   0.00000
           D4           0.00000   0.00000   0.00000   0.00000   0.00000
                          D1        D2        D3        D4
           D1           0.00811
           D2           0.00000   0.00230
           D3           0.00000   0.00000   0.00230
           D4           0.00000   0.00000   0.00000   0.00230
 ITU=  0
 Eigenvectors of the second derivative matrix:
                           1         2         3         4         5
     Eigenvalues --     0.00230   0.00230   0.05121   0.12546   0.16000
   1         R1         0.00000  -0.00000  -0.00000   0.00000  -0.00000
   2         R2        -0.00000   0.00000   0.00000  -0.00000   0.00000
   3         R3         0.00000  -0.00000  -0.00000   0.00000   0.00000
   4         R4         0.00000   0.00000   0.00000  -0.00000   0.00000
   5         R5        -0.00000   0.00000  -0.00000  -0.00000   0.00000
   6         A1        -0.00000  -0.00000   0.30699   0.69417   0.21655
   7         A2         0.00000  -0.00000   0.39559  -0.54294   0.21833
   8         A3         0.00000   0.00000   0.20249   0.04210  -0.75487
   9         A4        -0.00000  -0.00000  -0.00000   0.00000  -0.57931
  10         A5        -0.00000   0.00000   0.00000  -0.00000  -0.00000
  11         D1         0.00000  -0.00000   0.70630  -0.26273  -0.00000
  12         D2        -0.02870  -0.70652  -0.32357  -0.27618  -0.00000
  13         D3        -0.02870  -0.70652   0.32357   0.27618   0.00000
  14         D4         0.99918  -0.04058  -0.00000   0.00000   0.00000
                           6         7         8         9        10
     Eigenvalues --     0.16000   0.20815   0.25000   0.28434   0.44918
   1         R1         0.00000  -0.00000  -0.00000  -0.00000   0.00000
   2         R2        -0.00000   0.00000  -0.00000   0.00000  -1.00000
   3         R3        -0.00000  -0.00000  -0.00000   1.00000  -0.00000
   4         R4         0.00000   1.00000   0.00000   0.00000   0.00000
   5         R5        -0.00000   0.00000  -0.00000   0.00000   0.00000
   6         A1        -0.15391   0.00000  -0.00000  -0.00000   0.00000
   7         A2        -0.15517  -0.00000   0.00000   0.00000   0.00000
   8         A3         0.53650   0.00000  -0.00000   0.00000  -0.00000
   9         A4        -0.81511   0.00000   0.00000  -0.00000  -0.00000
  10         A5        -0.00000   0.00000  -1.00000  -0.00000   0.00000
  11         D1        -0.00000  -0.00000   0.00000   0.00000   0.00000
  12         D2         0.00000   0.00000  -0.00000  -0.00000  -0.00000
  13         D3         0.00000   0.00000  -0.00000  -0.00000   0.00000
  14         D4        -0.00000  -0.00000  -0.00000  -0.00000   0.00000
                          11        12
     Eigenvalues --     0.44977   0.54537
   1         R1        -1.00000   0.00000
   2         R2        -0.00000  -0.00000
   3         R3        -0.00000   0.00000
   4         R4         0.00000   0.00000
   5         R5        -0.00000  -1.00000
   6         A1         0.00000  -0.00000
   7         A2        -0.00000   0.00000
   8         A3         0.00000  -0.00000
   9         A4        -0.00000  -0.00000
  10         A5         0.00000   0.00000
  11         D1         0.00000   0.00000
  12         D2        -0.00000   0.00000
  13         D3         0.00000  -0.00000
  14         D4         0.00000  -0.00000
 Eigenvalue     1 is   2.30D-03 should be less than     0.000000 Eigenvector:
                          D4        D3        D2        D1        A2
   1                    0.99918  -0.02870  -0.02870   0.00000   0.00000
                          A3        A1        A4        R3        R4
   1                    0.00000  -0.00000  -0.00000   0.00000   0.00000
 RLam0= 2.98D-03.
 Iter=   1 RLamda= 0.00000000D+00 Sum=-1.32196893D-03.
 Iter=   2 RLamda=-1.32196893D-03 Sum=-1.19269211D-03.
 Iter=   3 RLamda=-1.19269211D-03 Sum=-1.20116263D-03.
 Iter=   4 RLamda=-1.20116263D-03 Sum=-1.20058943D-03.
 Iter=   5 RLamda=-1.20058943D-03 Sum=-1.20062813D-03.
 Iter=   6 RLamda=-1.20062813D-03 Sum=-1.20062552D-03.
 RFO step:  Lambda0=2.982911366D-03 Lambda=-1.20062813D-03.
 Linear search not attempted -- option 19 set.
 Iteration  1 RMS(Cart)=  0.03894226 RMS(Int)=  0.01517182
 Iteration  2 RMS(Cart)=  0.01494242 RMS(Int)=  0.00040072
 Iteration  3 RMS(Cart)=  0.00038333 RMS(Int)=  0.00002947
 Iteration  4 RMS(Cart)=  0.00000020 RMS(Int)=  0.00002947
 ITry= 1 IFail=0 DXMaxC= 8.78D-02 DCOld= 1.00D+10 DXMaxT= 1.00D-01 DXLimC= 3.00D+00 Rises=F
 Variable       Old X    -DE/DX   Delta X   Delta X   Delta X     New X
                                 (Linear)    (Quad)   (Total)
    R1        1.92003   0.00703   0.00000   0.01558   0.01558   1.93561
    R2        1.92072   0.00736   0.00000   0.01634   0.01634   1.93705
    R3        2.17900   0.00459   0.00000   0.01606   0.01606   2.19506
    R4        2.37919   0.00698   0.00000   0.03332   0.03332   2.41251
    R5        1.82246   0.01338   0.00000   0.02447   0.02447   1.84693
    A1        1.86137  -0.00138   0.00000  -0.00736  -0.00742   1.85395
    A2        1.85913   0.00074   0.00000   0.01019   0.01020   1.86933
    A3        1.88938   0.00173   0.00000   0.01267   0.01266   1.90204
    A4        1.82070   0.00269   0.00000   0.01667   0.01667   1.83738
    A5        2.62537  -0.00192   0.00000  -0.00763  -0.00763   2.61774
    D1        1.99451   0.00100   0.00000   0.01417   0.01413   2.00865
    D2       -0.85065  -0.00038   0.00000  -0.18776  -0.18782  -1.03847
    D3        1.14535  -0.00079   0.00000  -0.18519  -0.18512   0.96022
    D4       -1.00372  -0.00146   0.00000   0.24938   0.24938  -0.75435
         Item               Value     Threshold  Converged?
 Maximum Force            0.013377     0.000450     NO 
 RMS     Force            0.005158     0.000300     NO 
 Maximum Displacement     0.087787     0.001800     NO 
 RMS     Displacement     0.041968     0.001200     NO 
 Predicted change in Energy=-1.922401D-04
 Lowest energy point so far.  Saving SCF results.
 Largest change from initial coordinates is atom    5       0.031 Angstoms.
 GradGradGradGradGradGradGradGradGradGradGradGradGradGradGradGradGradGrad

 Leave Link  103 at Wed Oct  7 14:43:26 2020, MaxMem=  2684354560 cpu:               2.5 elap:               0.6
 (Enter /udrive/faculty/rpeverati/g16/g16/l202.exe)
                          Input orientation:                          
 ---------------------------------------------------------------------
 Center     Atomic      Atomic             Coordinates (Angstroms)
 Number     Number       Type             X           Y           Z
 ---------------------------------------------------------------------
      1          7           0       -1.152881   -0.045412   -0.101495
      2          8           0        1.201506   -0.073516   -0.044402
      3          1           0       -1.335378   -0.545397    0.773638
      4          1           0       -1.316079    0.947041    0.096291
      5          1           0       -0.030094   -0.200289   -0.355702
      6          1           0        1.283519    0.830031    0.319054
 ---------------------------------------------------------------------
                    Distance matrix (angstroms):
                    1          2          3          4          5
     1  N    0.000000
     2  O    2.355246   0.000000
     3  H    1.024279   2.706961   0.000000
     4  H    1.025044   2.720214   1.639067   0.000000
     5  H    1.161575   1.276643   1.760191   1.781690   0.000000
     6  H    2.622843   0.977355   2.992837   2.611748   1.800676
                    6
     6  H    0.000000
 Stoichiometry    H4NO(2)
 Framework group  C1[X(H4NO)]
 Deg. of freedom    12
 Full point group                 C1      NOp   1
 RotChk:  IX=0 Diff= 9.32D-02
 Largest Abelian subgroup         C1      NOp   1
 Largest concise Abelian subgroup C1      NOp   1
                         Standard orientation:                         
 ---------------------------------------------------------------------
 Center     Atomic      Atomic             Coordinates (Angstroms)
 Number     Number       Type             X           Y           Z
 ---------------------------------------------------------------------
      1          7           0       -1.159528   -0.048446   -0.102322
      2          8           0        1.193514   -0.091428   -0.009949
      3          1           0       -1.358421   -0.490044    0.800219
      4          1           0       -1.316700    0.955873    0.029423
      5          1           0       -0.034759   -0.228104   -0.330081
      6          1           0        1.278462    0.832818    0.296281
 ---------------------------------------------------------------------
 Rotational constants (GHZ):         168.1640878          10.5757596          10.3413870
 Leave Link  202 at Wed Oct  7 14:43:27 2020, MaxMem=  2684354560 cpu:               0.7 elap:               0.4
 (Enter /udrive/faculty/rpeverati/g16/g16/l301.exe)
 Standard basis: 6-31G(d) (5D, 7F)
 Ernie: Thresh=  0.10000D-02 Tol=  0.10000D-05 Strict=F.
 There are    38 symmetry adapted cartesian basis functions of A   symmetry.
 There are    36 symmetry adapted basis functions of A   symmetry.
    36 basis functions,    72 primitive gaussians,    38 cartesian basis functions
    10 alpha electrons        9 beta electrons
       nuclear repulsion energy        36.7750884569 Hartrees.
 IExCor= 2523 DFT=T Ex+Corr=TPSSh ExCW=0 ScaHFX=  0.100000
 ScaDFX=  0.900000  0.900000  1.000000  1.000000 ScalE2=  1.000000  1.000000
 IRadAn=      5 IRanWt=     -1 IRanGd=            0 ICorTp=0 IEmpDi=141
 NAtoms=    6 NActive=    6 NUniq=    6 SFac= 1.00D+00 NAtFMM=   60 NAOKFM=F Big=F
 Integral buffers will be    131072 words long.
 Raffenetti 2 integral format.
 Two-electron integral symmetry is turned on.
 R6DIni: Non-standard D2/D3 S6 parameter, value=     1.000000
 R6DIni: Non-standard D2/D3 S8 parameter, value=     2.238200
 R6DIni: Non-standard D3BJ A1 parameter, value=     0.452900
 R6DIni: Non-standard D3BJ A2 parameter, value=     4.655000
 R6Disp:  Grimme-D3(BJ) Dispersion energy=       -0.0019673961 Hartrees.
 Nuclear repulsion after empirical dispersion term =       36.7731210608 Hartrees.
 Leave Link  301 at Wed Oct  7 14:43:28 2020, MaxMem=  2684354560 cpu:               1.7 elap:               0.6
 (Enter /udrive/faculty/rpeverati/g16/g16/l302.exe)
 NPDir=0 NMtPBC=     1 NCelOv=     1 NCel=       1 NClECP=     1 NCelD=      1
         NCelK=      1 NCelE2=     1 NClLst=     1 CellRange=     0.0.
 One-electron integrals computed using PRISM.
 One-electron integral symmetry used in STVInt
 NBasis=    36 RedAO= T EigKep=  2.48D-02  NBF=    36
 NBsUse=    36 1.00D-06 EigRej= -1.00D+00 NBFU=    36
 Precomputing XC quadrature grid using
 IXCGrd= 4 IRadAn=           5 IRanWt=          -1 IRanGd=           0 AccXCQ= 0.00D+00.
 Generated NRdTot=       0 NPtTot=           0 NUsed=           0 NTot=          32
 NSgBfM=    38    38    38    38    38 MxSgAt=     6 MxSgA2=     6.
 Leave Link  302 at Wed Oct  7 14:43:29 2020, MaxMem=  2684354560 cpu:               2.9 elap:               0.7
 (Enter /udrive/faculty/rpeverati/g16/g16/l303.exe)
 DipDrv:  MaxL=1.
 Leave Link  303 at Wed Oct  7 14:43:29 2020, MaxMem=  2684354560 cpu:               1.0 elap:               0.3
 (Enter /udrive/faculty/rpeverati/g16/g16/l401.exe)
 Initial guess from the checkpoint file:  "MN_83_RKT07_BH76_TPSShDBJ_631Gs.chk"
 SCF N**3 symmetry information disabled.
 B after Tr=     0.000000    0.000000   -0.000000
         Rot=    0.999604    0.028067    0.001512    0.001049 Ang=   3.22 deg.
 Guess basis will be translated and rotated to current coordinates.
 JPrj=2 DoOrth=T DoCkMO=T.
 Initial guess <Sx>= 0.0000 <Sy>= 0.0000 <Sz>= 0.5000 <S**2>= 0.7568 S= 0.5034
 Generating alternative initial guess.
 ExpMin= 1.61D-01 ExpMax= 5.48D+03 ExpMxC= 8.25D+02 IAcc=2 IRadAn=         4 AccDes= 0.00D+00
 Harris functional with IExCor= 1009 and IRadAn=       4 diagonalized for initial guess.
 HarFok:  IExCor= 1009 AccDes= 0.00D+00 IRadAn=         4 IDoV= 1 UseB2=F ITyADJ=14
 ICtDFT=  3500011 ScaDFX=  1.000000  1.000000  1.000000  1.000000
 FoFCou: FMM=F IPFlag=           0 FMFlag=      100000 FMFlg1=           0
         NFxFlg=           0 DoJE=T BraDBF=F KetDBF=T FulRan=T
         wScrn=  0.000000 ICntrl=       500 IOpCl=  0 I1Cent=   200000004 NGrid=           0
         NMat0=    1 NMatS0=      1 NMatT0=    0 NMatD0=    1 NMtDS0=    0 NMtDT0=    0
 Petite list used in FoFCou.
 Harris En= -132.151859886450    
 Leave Link  401 at Wed Oct  7 14:43:30 2020, MaxMem=  2684354560 cpu:               6.2 elap:               0.9
 (Enter /udrive/faculty/rpeverati/g16/g16/l502.exe)
 Keep R1 and R2 ints in memory in canonical form, NReq=10808300.
 FoFCou: FMM=F IPFlag=           0 FMFlag=           0 FMFlg1=           0
         NFxFlg=           0 DoJE=F BraDBF=F KetDBF=F FulRan=T
         wScrn=  0.000000 ICntrl=       600 IOpCl=  0 I1Cent=           0 NGrid=           0
         NMat0=    1 NMatS0=    666 NMatT0=    0 NMatD0=    1 NMtDS0=    0 NMtDT0=    0
 Symmetry not used in FoFCou.
 Two-electron integral symmetry not used.
 UHF open shell SCF:
 Using DIIS extrapolation, IDIIS=  1040.
 NGot=  2684354560 LenX=  2683906368 LenY=  2683904483
 Requested convergence on RMS density matrix=1.00D-08 within 120 cycles.
 Requested convergence on MAX density matrix=1.00D-06.
 Requested convergence on             energy=1.00D-06.
 No special actions if energy rises.
 Integral accuracy reduced to 1.0D-05 until final iterations.

 Cycle   1  Pass 0  IDiag  1:
 E= -132.272438773540    
 DIIS: error= 3.09D-03 at cycle   1 NSaved=   1.
 NSaved= 1 IEnMin= 1 EnMin= -132.272438773540     IErMin= 1 ErrMin= 3.09D-03
 ErrMax= 3.09D-03  0.00D+00 EMaxC= 1.00D-01 BMatC= 2.81D-03 BMatP= 2.81D-03
 IDIUse=3 WtCom= 9.69D-01 WtEn= 3.09D-02
 Coeff-Com:  0.100D+01
 Coeff-En:   0.100D+01
 Coeff:      0.100D+01
 Gap=     0.482 Goal=   None    Shift=    0.000
 Gap=     0.491 Goal=   None    Shift=    0.000
 GapD=    0.482 DampG=2.000 DampE=1.000 DampFc=2.0000 IDamp=-1.
 RMSDP=1.44D-03 MaxDP=9.25D-03              OVMax= 1.44D-02

 Cycle   2  Pass 0  IDiag  1:
 E= -132.273594706895     Delta-E=       -0.001155933355 Rises=F Damp=F
 DIIS: error= 2.01D-03 at cycle   2 NSaved=   2.
 NSaved= 2 IEnMin= 2 EnMin= -132.273594706895     IErMin= 2 ErrMin= 2.01D-03
 ErrMax= 2.01D-03  0.00D+00 EMaxC= 1.00D-01 BMatC= 3.45D-04 BMatP= 2.81D-03
 IDIUse=3 WtCom= 9.80D-01 WtEn= 2.01D-02
 Coeff-Com:  0.128D+00 0.872D+00
 Coeff-En:   0.000D+00 0.100D+01
 Coeff:      0.125D+00 0.875D+00
 Gap=     0.325 Goal=   None    Shift=    0.000
 Gap=     0.110 Goal=   None    Shift=    0.000
 RMSDP=5.49D-04 MaxDP=6.95D-03 DE=-1.16D-03 OVMax= 1.74D-02

 Cycle   3  Pass 0  IDiag  1:
 E= -132.273460021478     Delta-E=        0.000134685417 Rises=F Damp=F
 DIIS: error= 3.30D-03 at cycle   3 NSaved=   3.
 NSaved= 3 IEnMin= 2 EnMin= -132.273594706895     IErMin= 2 ErrMin= 2.01D-03
 ErrMax= 3.30D-03  0.00D+00 EMaxC= 1.00D-01 BMatC= 9.71D-04 BMatP= 3.45D-04
 IDIUse=3 WtCom= 1.48D-01 WtEn= 8.52D-01
 Coeff-Com: -0.312D-02 0.636D+00 0.367D+00
 Coeff-En:   0.000D+00 0.699D+00 0.301D+00
 Coeff:     -0.463D-03 0.690D+00 0.311D+00
 Gap=     0.322 Goal=   None    Shift=    0.000
 Gap=     0.107 Goal=   None    Shift=    0.000
 RMSDP=3.59D-04 MaxDP=5.50D-03 DE= 1.35D-04 OVMax= 1.37D-02

 Cycle   4  Pass 0  IDiag  1:
 E= -132.273663903041     Delta-E=       -0.000203881563 Rises=F Damp=F
 DIIS: error= 5.44D-04 at cycle   4 NSaved=   4.
 NSaved= 4 IEnMin= 4 EnMin= -132.273663903041     IErMin= 4 ErrMin= 5.44D-04
 ErrMax= 5.44D-04  0.00D+00 EMaxC= 1.00D-01 BMatC= 4.55D-05 BMatP= 3.45D-04
 IDIUse=3 WtCom= 9.95D-01 WtEn= 5.44D-03
 Coeff-Com: -0.182D-01 0.350D+00 0.191D+00 0.477D+00
 Coeff-En:   0.000D+00 0.000D+00 0.000D+00 0.100D+01
 Coeff:     -0.181D-01 0.348D+00 0.190D+00 0.480D+00
 Gap=     0.321 Goal=   None    Shift=    0.000
 Gap=     0.107 Goal=   None    Shift=    0.000
 RMSDP=8.12D-05 MaxDP=9.49D-04 DE=-2.04D-04 OVMax= 1.38D-03

 Cycle   5  Pass 0  IDiag  1:
 E= -132.273674150750     Delta-E=       -0.000010247709 Rises=F Damp=F
 DIIS: error= 7.28D-05 at cycle   5 NSaved=   5.
 NSaved= 5 IEnMin= 5 EnMin= -132.273674150750     IErMin= 5 ErrMin= 7.28D-05
 ErrMax= 7.28D-05  0.00D+00 EMaxC= 1.00D-01 BMatC= 1.17D-06 BMatP= 4.55D-05
 IDIUse=1 WtCom= 1.00D+00 WtEn= 0.00D+00
 Coeff-Com: -0.568D-02 0.360D-01 0.289D-01 0.129D+00 0.812D+00
 Coeff:     -0.568D-02 0.360D-01 0.289D-01 0.129D+00 0.812D+00
 Gap=     0.321 Goal=   None    Shift=    0.000
 Gap=     0.107 Goal=   None    Shift=    0.000
 RMSDP=2.44D-05 MaxDP=1.97D-04 DE=-1.02D-05 OVMax= 7.17D-04

 Cycle   6  Pass 0  IDiag  1:
 E= -132.273674582902     Delta-E=       -0.000000432153 Rises=F Damp=F
 DIIS: error= 3.31D-05 at cycle   6 NSaved=   6.
 NSaved= 6 IEnMin= 6 EnMin= -132.273674582902     IErMin= 6 ErrMin= 3.31D-05
 ErrMax= 3.31D-05  0.00D+00 EMaxC= 1.00D-01 BMatC= 2.44D-07 BMatP= 1.17D-06
 IDIUse=1 WtCom= 1.00D+00 WtEn= 0.00D+00
 Coeff-Com:  0.235D-02-0.482D-01-0.145D-01-0.763D-01 0.107D+00 0.103D+01
 Coeff:      0.235D-02-0.482D-01-0.145D-01-0.763D-01 0.107D+00 0.103D+01
 Gap=     0.321 Goal=   None    Shift=    0.000
 Gap=     0.107 Goal=   None    Shift=    0.000
 RMSDP=1.49D-05 MaxDP=1.64D-04 DE=-4.32D-07 OVMax= 5.62D-04

 Cycle   7  Pass 0  IDiag  1:
 E= -132.273674710140     Delta-E=       -0.000000127237 Rises=F Damp=F
 DIIS: error= 1.36D-05 at cycle   7 NSaved=   7.
 NSaved= 7 IEnMin= 7 EnMin= -132.273674710140     IErMin= 7 ErrMin= 1.36D-05
 ErrMax= 1.36D-05  0.00D+00 EMaxC= 1.00D-01 BMatC= 1.05D-08 BMatP= 2.44D-07
 IDIUse=1 WtCom= 1.00D+00 WtEn= 0.00D+00
 Coeff-Com: -0.942D-04 0.514D-02 0.303D-02 0.119D-02-0.457D-01-0.132D+00
 Coeff-Com:  0.117D+01
 Coeff:     -0.942D-04 0.514D-02 0.303D-02 0.119D-02-0.457D-01-0.132D+00
 Coeff:      0.117D+01
 Gap=     0.321 Goal=   None    Shift=    0.000
 Gap=     0.107 Goal=   None    Shift=    0.000
 RMSDP=7.10D-06 MaxDP=1.09D-04 DE=-1.27D-07 OVMax= 3.39D-04

 Initial convergence to 1.0D-05 achieved.  Increase integral accuracy.
 Cycle   8  Pass 1  IDiag  1:
 E= -132.273676507096     Delta-E=       -0.000001796956 Rises=F Damp=F
 DIIS: error= 7.80D-06 at cycle   1 NSaved=   1.
 NSaved= 1 IEnMin= 1 EnMin= -132.273676507096     IErMin= 1 ErrMin= 7.80D-06
 ErrMax= 7.80D-06  0.00D+00 EMaxC= 1.00D-01 BMatC= 3.57D-09 BMatP= 3.57D-09
 IDIUse=1 WtCom= 1.00D+00 WtEn= 0.00D+00
 Coeff-Com:  0.100D+01
 Coeff:      0.100D+01
 Gap=     0.321 Goal=   None    Shift=    0.000
 Gap=     0.107 Goal=   None    Shift=    0.000
 RMSDP=7.10D-06 MaxDP=1.09D-04 DE=-1.80D-06 OVMax= 1.30D-04

 Cycle   9  Pass 1  IDiag  1:
 E= -132.273676509999     Delta-E=       -0.000000002903 Rises=F Damp=F
 DIIS: error= 8.50D-06 at cycle   2 NSaved=   2.
 NSaved= 2 IEnMin= 2 EnMin= -132.273676509999     IErMin= 1 ErrMin= 7.80D-06
 ErrMax= 8.50D-06  0.00D+00 EMaxC= 1.00D-01 BMatC= 9.84D-09 BMatP= 3.57D-09
 IDIUse=1 WtCom= 1.00D+00 WtEn= 0.00D+00
 Coeff-Com:  0.674D+00 0.326D+00
 Coeff:      0.674D+00 0.326D+00
 Gap=     0.321 Goal=   None    Shift=    0.000
 Gap=     0.107 Goal=   None    Shift=    0.000
 RMSDP=1.63D-06 MaxDP=1.89D-05 DE=-2.90D-09 OVMax= 4.99D-05

 Cycle  10  Pass 1  IDiag  1:
 E= -132.273676512774     Delta-E=       -0.000000002775 Rises=F Damp=F
 DIIS: error= 4.49D-06 at cycle   3 NSaved=   3.
 NSaved= 3 IEnMin= 3 EnMin= -132.273676512774     IErMin= 3 ErrMin= 4.49D-06
 ErrMax= 4.49D-06  0.00D+00 EMaxC= 1.00D-01 BMatC= 1.65D-09 BMatP= 3.57D-09
 IDIUse=1 WtCom= 1.00D+00 WtEn= 0.00D+00
 Coeff-Com: -0.402D+00 0.233D+00 0.117D+01
 Coeff:     -0.402D+00 0.233D+00 0.117D+01
 Gap=     0.321 Goal=   None    Shift=    0.000
 Gap=     0.107 Goal=   None    Shift=    0.000
 RMSDP=2.66D-06 MaxDP=4.08D-05 DE=-2.77D-09 OVMax= 1.23D-04

 Cycle  11  Pass 1  IDiag  1:
 E= -132.273676515049     Delta-E=       -0.000000002275 Rises=F Damp=F
 DIIS: error= 2.15D-06 at cycle   4 NSaved=   4.
 NSaved= 4 IEnMin= 4 EnMin= -132.273676515049     IErMin= 4 ErrMin= 2.15D-06
 ErrMax= 2.15D-06  0.00D+00 EMaxC= 1.00D-01 BMatC= 2.02D-10 BMatP= 1.65D-09
 IDIUse=1 WtCom= 1.00D+00 WtEn= 0.00D+00
 Coeff-Com: -0.374D+00-0.161D-01 0.238D+00 0.115D+01
 Coeff:     -0.374D+00-0.161D-01 0.238D+00 0.115D+01
 Gap=     0.321 Goal=   None    Shift=    0.000
 Gap=     0.107 Goal=   None    Shift=    0.000
 RMSDP=2.04D-06 MaxDP=3.13D-05 DE=-2.28D-09 OVMax= 9.51D-05

 Cycle  12  Pass 1  IDiag  1:
 E= -132.273676515649     Delta-E=       -0.000000000600 Rises=F Damp=F
 DIIS: error= 3.25D-07 at cycle   5 NSaved=   5.
 NSaved= 5 IEnMin= 5 EnMin= -132.273676515649     IErMin= 5 ErrMin= 3.25D-07
 ErrMax= 3.25D-07  0.00D+00 EMaxC= 1.00D-01 BMatC= 1.95D-11 BMatP= 2.02D-10
 IDIUse=1 WtCom= 1.00D+00 WtEn= 0.00D+00
 Coeff-Com: -0.641D-01-0.396D-01-0.416D-01 0.331D+00 0.814D+00
 Coeff:     -0.641D-01-0.396D-01-0.416D-01 0.331D+00 0.814D+00
 Gap=     0.321 Goal=   None    Shift=    0.000
 Gap=     0.107 Goal=   None    Shift=    0.000
 RMSDP=3.15D-07 MaxDP=4.80D-06 DE=-6.00D-10 OVMax= 1.46D-05

 Cycle  13  Pass 1  IDiag  1:
 E= -132.273676515667     Delta-E=       -0.000000000017 Rises=F Damp=F
 DIIS: error= 2.36D-07 at cycle   6 NSaved=   6.
 NSaved= 6 IEnMin= 6 EnMin= -132.273676515667     IErMin= 6 ErrMin= 2.36D-07
 ErrMax= 2.36D-07  0.00D+00 EMaxC= 1.00D-01 BMatC= 5.85D-12 BMatP= 1.95D-11
 IDIUse=1 WtCom= 1.00D+00 WtEn= 0.00D+00
 Coeff-Com:  0.200D-01-0.235D-01-0.498D-01 0.108D-01 0.401D+00 0.642D+00
 Coeff:      0.200D-01-0.235D-01-0.498D-01 0.108D-01 0.401D+00 0.642D+00
 Gap=     0.321 Goal=   None    Shift=    0.000
 Gap=     0.107 Goal=   None    Shift=    0.000
 RMSDP=6.65D-08 MaxDP=8.60D-07 DE=-1.73D-11 OVMax= 2.68D-06

 Cycle  14  Pass 1  IDiag  1:
 E= -132.273676515668     Delta-E=       -0.000000000001 Rises=F Damp=F
 DIIS: error= 5.95D-08 at cycle   7 NSaved=   7.
 NSaved= 7 IEnMin= 7 EnMin= -132.273676515668     IErMin= 7 ErrMin= 5.95D-08
 ErrMax= 5.95D-08  0.00D+00 EMaxC= 1.00D-01 BMatC= 7.50D-13 BMatP= 5.85D-12
 IDIUse=1 WtCom= 1.00D+00 WtEn= 0.00D+00
 Coeff-Com:  0.928D-02-0.327D-02 0.641D-02-0.305D-01-0.691D-01 0.353D-01
 Coeff-Com:  0.105D+01
 Coeff:      0.928D-02-0.327D-02 0.641D-02-0.305D-01-0.691D-01 0.353D-01
 Coeff:      0.105D+01
 Gap=     0.321 Goal=   None    Shift=    0.000
 Gap=     0.107 Goal=   None    Shift=    0.000
 RMSDP=1.36D-08 MaxDP=1.13D-07 DE=-1.48D-12 OVMax= 2.03D-07

 Cycle  15  Pass 1  IDiag  1:
 E= -132.273676515668     Delta-E=       -0.000000000000 Rises=F Damp=F
 DIIS: error= 2.09D-08 at cycle   8 NSaved=   8.
 NSaved= 8 IEnMin= 8 EnMin= -132.273676515668     IErMin= 8 ErrMin= 2.09D-08
 ErrMax= 2.09D-08  0.00D+00 EMaxC= 1.00D-01 BMatC= 5.51D-14 BMatP= 7.50D-13
 IDIUse=1 WtCom= 1.00D+00 WtEn= 0.00D+00
 Coeff-Com: -0.219D-02 0.701D-03 0.751D-02-0.313D-04-0.523D-01-0.792D-01
 Coeff-Com:  0.813D-01 0.104D+01
 Coeff:     -0.219D-02 0.701D-03 0.751D-02-0.313D-04-0.523D-01-0.792D-01
 Coeff:      0.813D-01 0.104D+01
 Gap=     0.321 Goal=   None    Shift=    0.000
 Gap=     0.107 Goal=   None    Shift=    0.000
 RMSDP=5.02D-09 MaxDP=4.47D-08 DE=-2.27D-13 OVMax= 9.08D-08

 SCF Done:  E(UTPSSh) =  -132.273676516     A.U. after   15 cycles
            NFock= 15  Conv=0.50D-08     -V/T= 2.0056
 <Sx>= 0.0000 <Sy>= 0.0000 <Sz>= 0.5000 <S**2>= 0.7570 S= 0.5035
 <L.S>= 0.000000000000E+00
 KE= 1.315305934569D+02 PE=-3.848515201334D+02 EE= 8.427412910006D+01
 Annihilation of the first spin contaminant:
 S**2 before annihilation     0.7570,   after     0.7500
 Leave Link  502 at Wed Oct  7 14:43:35 2020, MaxMem=  2684354560 cpu:              47.6 elap:               4.5
 (Enter /udrive/faculty/rpeverati/g16/g16/l508.exe)
 QCSCF skips out because SCF is already converged.
 Leave Link  508 at Wed Oct  7 14:43:36 2020, MaxMem=  2684354560 cpu:               0.3 elap:               0.4
 (Enter /udrive/faculty/rpeverati/g16/g16/l701.exe)
 ... and contract with generalized density number  0.
 Compute integral first derivatives.
 R6Disp: Adding Grimme-D3(BJ) dispersion energy 1st derivatives to the gradient.
 Leave Link  701 at Wed Oct  7 14:43:37 2020, MaxMem=  2684354560 cpu:               3.1 elap:               0.5
 (Enter /udrive/faculty/rpeverati/g16/g16/l702.exe)
 L702 exits ... SP integral derivatives will be done elsewhere.
 Leave Link  702 at Wed Oct  7 14:43:37 2020, MaxMem=  2684354560 cpu:               1.3 elap:               0.5
 (Enter /udrive/faculty/rpeverati/g16/g16/l703.exe)
 Integral derivatives from FoFJK, PRISM(SPDF).
 Compute integral first derivatives, UseDBF=F ICtDFT=           0.
 Calling FoFJK, ICntrl=      2127 FMM=F ISym2X=0 I1Cent= 0 IOpClX= 1 NMat=1 NMatS=1 NMatT=0.
 FoFJK:  IHMeth= 1 ICntrl=    2127 DoSepK=F KAlg= 0 I1Cent=           0 FoldK=F
 IRaf=         0 NMat=       1 IRICut=       1 DoRegI=T DoRafI=F ISym2E= 0 IDoP0=0 IntGTp=1.
 FoFCou: FMM=F IPFlag=           0 FMFlag=      100000 FMFlg1=         800
         NFxFlg=           0 DoJE=F BraDBF=F KetDBF=F FulRan=T
         wScrn=  0.000000 ICntrl=      2127 IOpCl=  1 I1Cent=           0 NGrid=           0
         NMat0=    1 NMatS0=      1 NMatT0=    0 NMatD0=    1 NMtDS0=    0 NMtDT0=    0
 Symmetry not used in FoFCou.
 Leave Link  703 at Wed Oct  7 14:43:39 2020, MaxMem=  2684354560 cpu:               7.3 elap:               1.0
 (Enter /udrive/faculty/rpeverati/g16/g16/l716.exe)
 Dipole        =-4.99979810D-01 8.31018491D-01 6.47124892D-01
 ***** Axes restored to original set *****
 -------------------------------------------------------------------
 Center     Atomic                   Forces (Hartrees/Bohr)
 Number     Number              X              Y              Z
 -------------------------------------------------------------------
      1        7           0.002732930   -0.002451378   -0.000058917
      2        8           0.001622800   -0.001412103    0.002769649
      3        1          -0.000240027    0.000261579    0.000611412
      4        1           0.000127955   -0.000242456    0.000118763
      5        1          -0.005221220    0.003173767   -0.002769778
      6        1           0.000977562    0.000670591   -0.000671128
 -------------------------------------------------------------------
 Cartesian Forces:  Max     0.005221220 RMS     0.002017019
 Leave Link  716 at Wed Oct  7 14:43:39 2020, MaxMem=  2684354560 cpu:               1.4 elap:               0.4
 (Enter /udrive/faculty/rpeverati/g16/g16/l103.exe)

 GradGradGradGradGradGradGradGradGradGradGradGradGradGradGradGradGradGrad
 Berny optimization.
 Optmz: redundant internal coordinate code flag= 1
 Red2BG:  D1=  1.49D-01 OD1=  5.90D-01 B2RMS=  0.00D+00 IAprox=0
 FormGI is forming the generalized inverse of G from B-inverse, IUseBI=4.
 Internal  Forces:  Max     0.002946775 RMS     0.001277227
 Search for a saddle point.
 Step number   2 out of a maximum of   50
 All quantities printed in internal units (Hartrees-Bohrs-Radians)
 Swapping is turned off.
 Update second derivatives using D2CorX and points    1    2
 The second derivative matrix:
                          R1        R2        R3        R4        R5
           R1           0.44967
           R2          -0.00002   0.44924
           R3           0.00026   0.00037   0.28504
           R4          -0.00043  -0.00030   0.00027   0.20678
           R5          -0.00012  -0.00001   0.00043  -0.00062   0.54522
           A1           0.00005   0.00002  -0.00012   0.00021   0.00007
           A2          -0.00017  -0.00013   0.00003  -0.00049  -0.00025
           A3          -0.00004   0.00002   0.00026  -0.00027  -0.00004
           A4          -0.00021  -0.00014   0.00014  -0.00067  -0.00030
           A5           0.00009   0.00005  -0.00008   0.00029   0.00012
           D1           0.00005   0.00013   0.00041  -0.00011   0.00011
           D2           0.00053  -0.00040  -0.00386   0.00394   0.00051
           D3           0.00053  -0.00039  -0.00379   0.00390   0.00051
           D4          -0.00080   0.00044   0.00501  -0.00542  -0.00082
                          A1        A2        A3        A4        A5
           A1           0.15997
           A2           0.00008   0.15983
           A3           0.00002  -0.00011   0.16000
           A4           0.00010  -0.00024  -0.00013   0.15968
           A5          -0.00004   0.00011   0.00005   0.00014   0.24994
           D1          -0.00002  -0.00007   0.00008  -0.00005   0.00001
           D2          -0.00031   0.00167  -0.00005   0.00186  -0.00075
           D3          -0.00031   0.00166  -0.00004   0.00184  -0.00074
           D4           0.00046  -0.00228  -0.00001  -0.00256   0.00103
                          D1        D2        D3        D4
           D1           0.00830
           D2          -0.00125   0.00357
           D3          -0.00122   0.00116   0.00335
           D4           0.00157  -0.00056  -0.00043   0.00156
 ITU=  0  0
 Eigenvectors of the second derivative matrix:
                           1         2         3         4         5
     Eigenvalues --     0.00121   0.00434   0.05018   0.12615   0.15972
   1         R1         0.00159   0.00195   0.00009  -0.00031  -0.00062
   2         R2        -0.00078  -0.00133  -0.00016  -0.00021  -0.00046
   3         R3        -0.01514  -0.02135  -0.00186   0.00046   0.00049
   4         R4         0.02282   0.03059   0.00241  -0.00396  -0.01111
   5         R5         0.00138   0.00158   0.00005  -0.00034  -0.00068
   6         A1        -0.00719  -0.01027   0.30595   0.68988   0.08102
   7         A2         0.00273   0.00251   0.38852  -0.55222   0.08293
   8         A3        -0.00391  -0.00643   0.20052   0.04880  -0.28207
   9         A4         0.01405   0.01888   0.00162  -0.00466  -0.95205
  10         A5        -0.00363  -0.00481  -0.00035   0.00055   0.00127
  11         D1        -0.00242  -0.00549   0.70614  -0.26234   0.00215
  12         D2         0.09319  -0.69398  -0.33663  -0.27893  -0.00987
  13         D3         0.08427  -0.70786   0.32126   0.26452  -0.01193
  14         D4         0.99155   0.12394   0.00789   0.00998   0.01495
                           6         7         8         9        10
     Eigenvalues --     0.16008   0.20708   0.24995   0.28524   0.44924
   1         R1         0.00015   0.00159   0.00039  -0.00138  -0.05288
   2         R2         0.00034   0.00133   0.00028  -0.00234  -0.99860
   3         R3         0.00230   0.00020  -0.00092   0.99965  -0.00237
   4         R4        -0.00124   0.99918  -0.00563   0.00082   0.00136
   5         R5         0.00022   0.00171   0.00038  -0.00156  -0.00013
   6         A1         0.26311   0.00370   0.00045  -0.00072  -0.00012
   7         A2         0.24817  -0.00204  -0.00033   0.00046   0.00010
   8         A3        -0.88100  -0.00424  -0.00039   0.00232  -0.00021
   9         A4         0.30479  -0.01114  -0.00128   0.00039   0.00053
  10         A5         0.00006  -0.00538  -0.99997  -0.00108  -0.00030
  11         D1        -0.00070  -0.00250  -0.00034   0.00128  -0.00005
  12         D2         0.00609   0.01875   0.00287  -0.01392   0.00097
  13         D3         0.00579   0.01992   0.00303  -0.01337   0.00077
  14         D4        -0.00757  -0.02631  -0.00405   0.01768  -0.00093
                          11        12
     Eigenvalues --     0.44968   0.54522
   1         R1        -0.99859   0.00126
   2         R2         0.05288   0.00007
   3         R3        -0.00132  -0.00161
   4         R4         0.00162   0.00179
   5         R5        -0.00124  -0.99999
   6         A1        -0.00021  -0.00024
   7         A2         0.00019   0.00021
   8         A3         0.00003  -0.00004
   9         A4         0.00065   0.00075
  10         A5        -0.00039  -0.00040
  11         D1         0.00013   0.00010
  12         D2        -0.00115  -0.00083
  13         D3        -0.00128  -0.00101
  14         D4         0.00179   0.00147
 Eigenvalue     1 is   1.21D-03 should be less than     0.000000 Eigenvector:
                          D4        D2        D3        R4        R3
   1                    0.99155   0.09319   0.08427   0.02282  -0.01514
                          A4        A1        A3        A5        A2
   1                    0.01405  -0.00719  -0.00391  -0.00363   0.00273
 RLam0= 2.36D-03.
 Iter=   1 RLamda= 0.00000000D+00 Sum=-1.32495985D-04.
 Iter=   2 RLamda=-1.32495985D-04 Sum=-1.31177077D-04.
 Iter=   3 RLamda=-1.31177077D-04 Sum=-1.31189837D-04.
 Iter=   4 RLamda=-1.31189837D-04 Sum=-1.31189713D-04.
 RFO step:  Lambda0=2.362820716D-03 Lambda=-1.31189837D-04.
 Linear search not attempted -- option 19 set.
 Iteration  1 RMS(Cart)=  0.05394922 RMS(Int)=  0.00330245
 Iteration  2 RMS(Cart)=  0.00289861 RMS(Int)=  0.00000557
 Iteration  3 RMS(Cart)=  0.00000718 RMS(Int)=  0.00000288
 Iteration  4 RMS(Cart)=  0.00000000 RMS(Int)=  0.00000288
 ITry= 1 IFail=0 DXMaxC= 1.12D-01 DCOld= 1.00D+10 DXMaxT= 1.00D-01 DXLimC= 3.00D+00 Rises=F
 Variable       Old X    -DE/DX   Delta X   Delta X   Delta X     New X
                                 (Linear)    (Quad)   (Total)
    R1        1.93561   0.00044   0.00000   0.00097   0.00097   1.93658
    R2        1.93705  -0.00023   0.00000  -0.00045  -0.00045   1.93661
    R3        2.19506  -0.00271   0.00000  -0.00905  -0.00905   2.18601
    R4        2.41251   0.00295   0.00000   0.01380   0.01380   2.42631
    R5        1.84693   0.00045   0.00000   0.00085   0.00085   1.84778
    A1        1.85395  -0.00044   0.00000  -0.00423  -0.00423   1.84972
    A2        1.86933   0.00034   0.00000   0.00170   0.00169   1.87102
    A3        1.90204  -0.00030   0.00000  -0.00230  -0.00230   1.89974
    A4        1.83738   0.00139   0.00000   0.00852   0.00852   1.84590
    A5        2.61774  -0.00056   0.00000  -0.00219  -0.00219   2.61555
    D1        2.00865   0.00002   0.00000  -0.00132  -0.00131   2.00734
    D2       -1.03847   0.00052   0.00000   0.07930   0.07930  -0.95916
    D3        0.96022   0.00004   0.00000   0.07410   0.07410   1.03433
    D4       -0.75435  -0.00185   0.00000   0.08483   0.08483  -0.66952
         Item               Value     Threshold  Converged?
 Maximum Force            0.002947     0.000450     NO 
 RMS     Force            0.001277     0.000300     NO 
 Maximum Displacement     0.111757     0.001800     NO 
 RMS     Displacement     0.054390     0.001200     NO 
 Predicted change in Energy= 1.020077D-04
 Lowest energy point so far.  Saving SCF results.
 Largest change from initial coordinates is atom    3       0.067 Angstoms.
 GradGradGradGradGradGradGradGradGradGradGradGradGradGradGradGradGradGrad

 Leave Link  103 at Wed Oct  7 14:43:40 2020, MaxMem=  2684354560 cpu:               2.3 elap:               0.6
 (Enter /udrive/faculty/rpeverati/g16/g16/l202.exe)
                          Input orientation:                          
 ---------------------------------------------------------------------
 Center     Atomic      Atomic             Coordinates (Angstroms)
 Number     Number       Type             X           Y           Z
 ---------------------------------------------------------------------
      1          7           0       -1.154334   -0.055419   -0.097964
      2          8           0        1.202636   -0.060821   -0.083017
      3          1           0       -1.298878   -0.518053    0.804963
      4          1           0       -1.335922    0.940264    0.062888
      5          1           0       -0.040174   -0.191656   -0.377679
      6          1           0        1.277266    0.798142    0.378193
 ---------------------------------------------------------------------
                    Distance matrix (angstroms):
                    1          2          3          4          5
     1  N    0.000000
     2  O    2.357024   0.000000
     3  H    1.024793   2.693537   0.000000
     4  H    1.024808   2.732715   1.636684   0.000000
     5  H    1.156786   1.283947   1.757701   1.776036   0.000000
     6  H    2.620681   0.977804   2.924213   2.635975   1.812923
                    6
     6  H    0.000000
 Stoichiometry    H4NO(2)
 Framework group  C1[X(H4NO)]
 Deg. of freedom    12
 Full point group                 C1      NOp   1
 RotChk:  IX=0 Diff= 8.69D-02
[...]
     12  0.117573D-02 -0.698991D-02  0.366401D-01  0.708862D-02 -0.346528D-01
     13  0.259028D-01  0.218286D-02  0.144069D-02 -0.794659D-02  0.717130D-02
     14  0.731884D-02 -0.132489D-01  0.420964D-02  0.541863D-02  0.230855D-01
     15 -0.276178D-01  0.211395D-01 -0.402033D-02 -0.819087D-02  0.863369D-02
     16 -0.800234D-02 -0.356403D-03 -0.544225D-03 -0.709704D-03 -0.236441D-03
     17 -0.496282D-02  0.115055D-03 -0.446699D-03  0.574724D-05 -0.105912D-02
     18 -0.505384D-02  0.950586D-03  0.147722D-03  0.251134D-03 -0.485340D-03
               11            12            13            14            15 
     11  0.390684D+00
     12  0.940862D-01  0.661662D-01
     13 -0.633684D-02 -0.799993D-02 -0.625972D-01
     14 -0.161070D-02 -0.857876D-02 -0.106576D-03  0.839081D-01
     15 -0.143122D-02 -0.428958D-02 -0.304418D-01  0.613074D-02  0.676131D-01
     16  0.515651D-03  0.159804D-02  0.149609D-02 -0.217302D-01 -0.148578D-02
     17  0.715589D-03 -0.406733D-03  0.883527D-02 -0.401201D-02  0.238037D-02
     18 -0.161992D-03  0.874418D-03  0.139343D-02 -0.128490D-01  0.627600D-03
               16            17            18 
     16  0.472001D-01
     17  0.943098D-01  0.463330D+00
     18  0.810856D-02  0.202272D-02  0.462018D-02
 FormGI is forming the generalized inverse of G from B-inverse, IUseBI=4.
 Force constants in internal coordinates: 
                1             2             3             4             5 
      1  0.431010D+00
      2 -0.437512D-02  0.428866D+00
      3 -0.511328D-02 -0.548725D-02  0.126443D+00
      4  0.263410D-02  0.356512D-02  0.137854D+00  0.756634D-01
      5  0.197468D-03  0.926694D-03  0.365822D-02 -0.609928D-02  0.483659D+00
      6  0.141144D-01  0.154832D-01  0.707640D-03 -0.471606D-02  0.311424D-03
      7  0.115827D-02 -0.626621D-02  0.176869D-02  0.104993D-02 -0.543579D-03
      8 -0.405472D-02  0.653897D-02  0.364228D-02  0.733147D-02  0.174494D-02
      9 -0.441194D-03  0.153951D-02  0.718908D-02  0.822633D-02  0.107815D-01
     10 -0.391174D-02 -0.298217D-02  0.131119D-01  0.218989D-01 -0.742325D-03
     11  0.669178D-02  0.368526D-02  0.408769D-02  0.218208D-02  0.334813D-03
     12 -0.670414D-02 -0.997098D-02 -0.104986D-02  0.355541D-03 -0.502489D-03
     13  0.836680D-02  0.785675D-02  0.239069D-02 -0.113417D-02  0.399995D-03
     14  0.148361D-04 -0.261622D-03  0.127098D-02 -0.212404D-02  0.170340D-02
                6             7             8             9            10 
      6  0.761533D-01
      7 -0.279297D-01  0.358176D-01
      8 -0.297803D-01 -0.188300D-01  0.895206D-01
      9 -0.112585D-02 -0.305776D-03  0.765955D-03  0.989758D-01
     10  0.311233D-02 -0.160117D-02  0.156557D-02 -0.233315D-02  0.550288D-01
     11 -0.708634D-02  0.184740D-01  0.424744D-02 -0.576670D-03  0.461331D-03
     12 -0.308357D-01  0.110496D-01  0.142954D-02 -0.331442D-02 -0.162970D-02
     13  0.292246D-01 -0.118349D-01 -0.730698D-03 -0.441813D-02  0.189664D-02
     14 -0.560633D-03 -0.191631D-02  0.193235D-02 -0.829283D-02 -0.294309D-02
               11            12            13            14 
     11  0.197087D-01
     12 -0.233117D-02  0.178224D-01
     13  0.920446D-03 -0.116249D-01  0.158779D-01
     14 -0.161328D-02  0.130704D-02  0.580979D-03  0.816445D-02
 Leave Link  716 at Wed Oct  7 14:47:12 2020, MaxMem=  2684354560 cpu:               5.1 elap:               0.8
 (Enter /udrive/faculty/rpeverati/g16/g16/l103.exe)

 GradGradGradGradGradGradGradGradGradGradGradGradGradGradGradGradGradGrad
 Berny optimization.
 Optmz: redundant internal coordinate code flag= 1
 Red2BG:  D1=  1.57D-01 OD1=  1.84D-14 B2RMS=  0.00D+00 IAprox=1
 Red2BG is reusing G-inverse.
 Internal  Forces:  Max     0.000077162 RMS     0.000039940
 Search for a local minimum.
 Step number   1 out of a maximum of    2
 All quantities printed in internal units (Hartrees-Bohrs-Radians)
 Second derivative matrix not updated -- analytic derivatives used.
 The second derivative matrix:
                          R1        R2        R3        R4        R5
           R1           0.43101
           R2          -0.00438   0.42887
           R3          -0.00511  -0.00549   0.12644
           R4           0.00263   0.00357   0.13785   0.07566
           R5           0.00020   0.00093   0.00366  -0.00610   0.48366
           A1           0.01411   0.01548   0.00071  -0.00472   0.00031
           A2           0.00116  -0.00627   0.00177   0.00105  -0.00054
           A3          -0.00405   0.00654   0.00364   0.00733   0.00174
           A4          -0.00044   0.00154   0.00719   0.00823   0.01078
           A5          -0.00391  -0.00298   0.01311   0.02190  -0.00074
           D1           0.00669   0.00369   0.00409   0.00218   0.00033
           D2          -0.00670  -0.00997  -0.00105   0.00036  -0.00050
           D3           0.00837   0.00786   0.00239  -0.00113   0.00040
           D4           0.00001  -0.00026   0.00127  -0.00212   0.00170
                          A1        A2        A3        A4        A5
           A1           0.07615
           A2          -0.02793   0.03582
           A3          -0.02978  -0.01883   0.08952
           A4          -0.00113  -0.00031   0.00077   0.09898
           A5           0.00311  -0.00160   0.00157  -0.00233   0.05503
           D1          -0.00709   0.01847   0.00425  -0.00058   0.00046
           D2          -0.03084   0.01105   0.00143  -0.00331  -0.00163
           D3           0.02922  -0.01183  -0.00073  -0.00442   0.00190
           D4          -0.00056  -0.00192   0.00193  -0.00829  -0.00294
                          D1        D2        D3        D4
           D1           0.01971
           D2          -0.00233   0.01782
           D3           0.00092  -0.01162   0.01588
           D4          -0.00161   0.00131   0.00058   0.00816
 ITU=  0
 Eigenvectors of the second derivative matrix:
                           1         2         3         4         5
     Eigenvalues --    -0.04057   0.00458   0.00721   0.03179   0.05240
   1         R1         0.01404   0.00380   0.00219  -0.02884   0.00919
   2         R2         0.01529  -0.00190  -0.00113  -0.02346   0.00894
   3         R3         0.62904  -0.00524  -0.01724   0.00223  -0.16009
   4         R4        -0.76844   0.00977   0.04149  -0.03936  -0.00921
   5         R5        -0.01333  -0.00026   0.00634  -0.00185   0.00199
   6         A1        -0.03185  -0.01321  -0.01584   0.18879  -0.04357
   7         A2        -0.01011  -0.01082  -0.05714   0.46261   0.06596
   8         A3         0.01674  -0.00767   0.00769   0.21480  -0.02806
   9         A4         0.01127  -0.02990  -0.10834   0.00286   0.05839
  10         A5         0.09099   0.01836  -0.07512  -0.04587   0.97684
  11         D1        -0.02028  -0.02281  -0.07067   0.73088   0.04110
  12         D2         0.00162  -0.66289  -0.17879  -0.32081   0.00867
  13         D3        -0.03267  -0.68738  -0.22289   0.23664  -0.02124
  14         D4        -0.04369   0.29300  -0.94358  -0.07778  -0.08513
                           6         7         8         9        10
     Eigenvalues --     0.09047   0.09927   0.12518   0.24555   0.42804
   1         R1        -0.00650  -0.00096  -0.04917  -0.01654   0.60175
   2         R2        -0.04508  -0.00439  -0.04255  -0.01153   0.79357
   3         R3        -0.03949  -0.04982   0.05541  -0.75540  -0.02380
   4         R4        -0.01826  -0.03018   0.00236  -0.63611   0.00184
   5         R5        -0.00626  -0.02702   0.00202  -0.00143  -0.01534
   6         A1         0.25652   0.01244   0.73174   0.02108   0.06552
   7         A2        -0.51039   0.01563  -0.19910  -0.00814  -0.01702
   8         A3         0.75567  -0.07607  -0.52786  -0.05275   0.00292
   9         A4         0.06884   0.98573  -0.03867  -0.07157   0.00172
  10         A5         0.06962  -0.07812   0.05431  -0.12390  -0.01238
  11         D1        -0.11095  -0.01062  -0.09937  -0.02296   0.01517
  12         D2        -0.19627  -0.03538  -0.25519   0.00222  -0.03541
  13         D3         0.19463  -0.04867   0.24388  -0.00229   0.03327
  14         D4         0.01876  -0.09034  -0.00718   0.00543  -0.00068
                          11        12
     Eigenvalues --     0.43471   0.48409
   1         R1         0.79626   0.00157
   2         R2        -0.60420   0.01790
   3         R3        -0.00377   0.00570
   4         R4        -0.00255  -0.01236
   5         R5         0.00977   0.99933
   6         A1         0.00623   0.00155
   7         A2         0.01264  -0.00182
   8         A3        -0.02200   0.00455
   9         A4        -0.00380   0.02784
  10         A5        -0.00380  -0.00245
  11         D1         0.00767   0.00079
  12         D2         0.00131  -0.00185
  13         D3         0.00469   0.00116
  14         D4         0.00036   0.00319
 Eigenvalue     1 is  -4.06D-02 should be greater than     0.000000 Eigenvector:
                          R4        R3        A5        D4        D3
   1                   -0.76844   0.62904   0.09099  -0.04369  -0.03267
                          A1        D1        A3        R2        R1
   1                   -0.03185  -0.02028   0.01674   0.01529   0.01404
 Angle between quadratic step and forces=  34.52 degrees.
 Linear search not attempted -- first point.
 Iteration  1 RMS(Cart)=  0.00067861 RMS(Int)=  0.00000068
 Iteration  2 RMS(Cart)=  0.00000054 RMS(Int)=  0.00000047
 ITry= 1 IFail=0 DXMaxC= 1.56D-03 DCOld= 1.00D+10 DXMaxT= 3.00D-01 DXLimC= 3.00D+00 Rises=F
 Variable       Old X    -DE/DX   Delta X   Delta X   Delta X     New X
                                 (Linear)    (Quad)   (Total)
    R1        1.93803  -0.00005   0.00000  -0.00019  -0.00019   1.93784
    R2        1.93843  -0.00004   0.00000  -0.00014  -0.00014   1.93829
    R3        2.25427   0.00001   0.00000   0.00028   0.00028   2.25455
    R4        2.34292  -0.00002   0.00000  -0.00045  -0.00045   2.34247
    R5        1.84897  -0.00001   0.00000  -0.00005  -0.00005   1.84892
    A1        1.84164  -0.00002   0.00000   0.00030   0.00030   1.84194
    A2        1.85252   0.00007   0.00000   0.00165   0.00165   1.85417
    A3        1.91225   0.00003   0.00000   0.00069   0.00069   1.91294
    A4        1.80214   0.00007   0.00000   0.00074   0.00074   1.80289
    A5        2.55902  -0.00004   0.00000  -0.00073  -0.00073   2.55829
    D1        1.98764   0.00008   0.00000   0.00239   0.00239   1.99002
    D2       -0.94553  -0.00002   0.00000  -0.00049  -0.00049  -0.94603
    D3        1.03507   0.00001   0.00000   0.00103   0.00103   1.03610
    D4       -1.36555  -0.00001   0.00000   0.00021   0.00021  -1.36534
         Item               Value     Threshold  Converged?
 Maximum Force            0.000077     0.000450     YES
 RMS     Force            0.000040     0.000300     YES
 Maximum Displacement     0.001563     0.001800     YES
 RMS     Displacement     0.000678     0.001200     YES
 Predicted change in Energy=-2.161790D-07
 Optimization completed.
    -- Stationary point found.
                           ----------------------------
                           !   Optimized Parameters   !
                           ! (Angstroms and Degrees)  !
 --------------------------                            --------------------------
 ! Name  Definition              Value          Derivative Info.                !
 --------------------------------------------------------------------------------
 ! R1    R(1,3)                  1.0256         -DE/DX =    0.0                 !
 ! R2    R(1,4)                  1.0258         -DE/DX =    0.0                 !
 ! R3    R(1,5)                  1.1929         -DE/DX =    0.0                 !
 ! R4    R(2,5)                  1.2398         -DE/DX =    0.0                 !
 ! R5    R(2,6)                  0.9784         -DE/DX =    0.0                 !
 ! A1    A(3,1,4)              105.518          -DE/DX =    0.0                 !
 ! A2    A(3,1,5)              106.1413         -DE/DX =    0.0001              !
 ! A3    A(4,1,5)              109.5637         -DE/DX =    0.0                 !
 ! A4    A(5,2,6)              103.2552         -DE/DX =    0.0001              !
 ! A5    A(1,5,2)              146.621          -DE/DX =    0.0                 !
 ! D1    D(3,1,4,5)            113.8833         -DE/DX =    0.0001              !
 ! D2    D(3,1,5,2)            -54.1751         -DE/DX =    0.0                 !
 ! D3    D(4,1,5,2)             59.3052         -DE/DX =    0.0                 !
 ! D4    D(6,2,5,1)            -78.2402         -DE/DX =    0.0                 !
 --------------------------------------------------------------------------------
 GradGradGradGradGradGradGradGradGradGradGradGradGradGradGradGradGradGrad

 Leave Link  103 at Wed Oct  7 14:47:12 2020, MaxMem=  2684354560 cpu:               1.0 elap:               0.3
 (Enter /udrive/faculty/rpeverati/g16/g16/l9999.exe)

 ----------------------------------------------------------------------

 Electric dipole moment (input orientation):
 (Debye = 10**-18 statcoulomb cm , SI units = C m)
                  (au)            (Debye)         (10**-30 SI)
   Tot        0.102360D+01      0.260172D+01      0.867842D+01
   x         -0.486687D+00     -0.123703D+01     -0.412630D+01
   y          0.785582D+00      0.199675D+01      0.666044D+01
   z          0.440167D+00      0.111879D+01      0.373190D+01

 Dipole polarizability, Alpha (input orientation).
 (esu units = cm**3 , SI units = C**2 m**2 J**-1)
 Alpha(0;0):
               (au)            (10**-24 esu)      (10**-40 SI)
   iso        0.230961D+02      0.342249D+01      0.380803D+01
   aniso      0.317792D+02      0.470920D+01      0.523969D+01
   xx         0.439425D+02      0.651160D+01      0.724514D+01
   yx         0.104033D+01      0.154161D+00      0.171528D+00
   yy         0.151740D+02      0.224856D+01      0.250186D+01
   zx         0.177023D+01      0.262321D+00      0.291872D+00
   zy        -0.488624D+00     -0.724066D-01     -0.805632D-01
   zz         0.101717D+02      0.150729D+01      0.167709D+01

 ----------------------------------------------------------------------

 Dipole orientation:
     7         -1.95798470         -0.40862335          0.91563191
     8          1.90799195          0.25671300         -1.08519276
     1         -1.84758542         -2.34350465          0.91742077
     1         -1.51349165          0.13786003          2.72153631
     1         -0.36128781          0.30888886         -0.50474152
     1          2.68309034          1.41511537          0.12972312

 Electric dipole moment (dipole orientation):
 (Debye = 10**-18 statcoulomb cm , SI units = C m)
                  (au)            (Debye)         (10**-30 SI)
   Tot        0.102360D+01      0.260172D+01      0.867842D+01
   x          0.000000D+00      0.000000D+00      0.000000D+00
   y          0.000000D+00      0.000000D+00      0.000000D+00
   z          0.102360D+01      0.260172D+01      0.867842D+01

 Dipole polarizability, Alpha (dipole orientation).
 (esu units = cm**3 , SI units = C**2 m**2 J**-1)
 Alpha(0;0):
               (au)            (10**-24 esu)      (10**-40 SI)
   iso        0.230961D+02      0.342249D+01      0.380803D+01
   aniso      0.317792D+02      0.470920D+01      0.523969D+01
   xx         0.361804D+02      0.536138D+01      0.596534D+01
   yx         0.761876D+01      0.112898D+01      0.125616D+01
   yy         0.141608D+02      0.209842D+01      0.233481D+01
   zx        -0.119841D+02     -0.177586D+01     -0.197591D+01
   zy        -0.922222D+00     -0.136659D+00     -0.152054D+00
   zz         0.189470D+02      0.280766D+01      0.312394D+01

 ----------------------------------------------------------------------

 Test job not archived.
 1\1\GINC-NODE59\Freq\UTPSSh\6-31G(d)\H4N1O1(2)\RPEVERATI\07-Oct-2020\0
 \\#P Freq TPSSh/6-31G* 5D 7F Integral=UltraFineGrid SCF=(NoSymm,XQC,Ma
 xCyc=120) IOp(1/33=1,3/174=1000000,3/175=2238200,3/177=0452900,3/178=4
 655000) EmpiricalDispersion=GD3BJ Geom=Check Guess=Read\\TS search on 
 BH76.\\0,2\N,-1.1578793547,-0.0196986122,-0.1183295341\O,1.1577561405,
 -0.1031921848,0.1288614496\H,-1.3704184838,-0.6062257238,0.695665613\H
 ,-1.3404320828,0.9438256391,0.1825112298\H,0.0077454756,-0.1576456813,
 -0.3312084174\H,1.3538211258,0.8553949754,0.1298832343\\Version=ES64L-
 G16RevA.03\State=2-A\HF=-132.2743003\S2=0.75682\S2-1=0.\S2A=0.75002\RM
 SD=1.017e-10\RMSF=5.728e-05\ZeroPoint=0.041749\Thermal=0.0457104\Dipol
 e=-0.4866869,0.7855821,0.4401675\DipoleDeriv=-0.2211124,-0.0432292,-0.
 088314,-0.1057553,-0.2001945,-0.0327045,-0.3323873,-0.0249832,-0.33691
 43,-0.1808741,0.0142315,0.0634467,-0.0538291,-0.2327697,-0.04271,0.114
 1977,-0.0174924,-0.5403736,0.3291718,0.0173213,0.0603985,0.091541,0.18
 35872,0.0713388,0.0767972,0.1181094,0.0741196,0.3168747,0.0011241,0.04
 86212,-0.0193773,0.0199503,-0.061802,0.1153291,-0.1127688,0.2014401,-0
 .5593886,0.0203555,-0.0689414,0.0105875,0.2034226,0.0448416,0.0070662,
 0.0275341,0.2783812,0.3153285,-0.0098031,-0.0152109,0.0768332,0.026004
 2,0.0210362,0.0189971,0.0096009,0.323347\Polar=43.9424817,1.0403324,15
 .174038,1.7702317,-0.4886241,10.1717114\Quadrupole=-0.6674369,1.603323
 4,-0.9358865,1.2447918,-1.8679733,-0.2555995\PG=C01 [X(H4N1O1)]\NImag=
 1\\0.22384935,-0.03468918,0.56977751,-0.12184619,-0.07095181,0.3655357
 2,-0.11854739,0.01236623,0.00762579,0.11490328,-0.00357255,0.00723149,
 0.00026020,0.08053782,0.48842942,-0.03786993,-0.00073121,0.01026697,0.
 02403684,-0.00341667,0.01796811,-0.04991942,-0.03131943,0.06386320,-0.
 00183845,-0.00019542,-0.00279401,0.04683102,-0.03016709,-0.16294601,0.
 14609495,0.00111420,-0.00112186,0.00045388,0.03870029,0.18357366,0.085
 07083,0.19101607,-0.27532535,0.00275099,-0.00221675,0.00326078,-0.0761
 6939,-0.17931629,0.27291568,-0.04887965,0.05284417,0.03077389,-0.00466
 391,0.00041201,-0.00127331,0.00310039,-0.01054386,-0.00299614,0.043508
 31,0.06388470,-0.36732566,-0.07892358,0.00072674,0.00080515,0.00133798
 ,0.00594841,-0.02326873,-0.01490740,-0.06473867,0.39068436,0.04666007,
 -0.12566064,-0.07101538,0.00138452,0.00391984,0.00117573,-0.00698991,0
 .03664007,0.00708862,-0.03465279,0.09408622,0.06616618,-0.00319606,0.0
 0132574,0.01909209,0.05494303,-0.00515828,0.02590276,0.00218286,0.0014
 4069,-0.00794659,0.00717130,-0.00633684,-0.00799993,-0.06259723,0.0061
 3290,-0.04940972,0.00255952,0.00586727,-0.03308533,0.00731884,-0.01324
 890,0.00420964,0.00541863,0.02308547,-0.00161070,-0.00857876,-0.000106
 58,0.08390812,0.03023197,0.00258789,-0.02814247,-0.02807763,-0.0056474
 6,-0.02761775,0.02113952,-0.00402033,-0.00819087,0.00863369,-0.0014312
 2,-0.00428958,-0.03044176,0.00613074,0.06761306,-0.00330683,-0.0005275
 2,0.00049123,-0.04479655,-0.07202358,-0.00800234,-0.00035640,-0.000544
 23,-0.00070970,-0.00023644,0.00051565,0.00159804,0.00149609,-0.0217301
 6,-0.00148578,0.04720014,-0.00158879,0.00267239,0.00096071,-0.10061226
 ,-0.46225886,-0.00496282,0.00011505,-0.00044670,0.00000575,-0.00105912
 ,0.00071559,-0.00040673,0.00883527,-0.00401201,0.00238037,0.09430983,0
 .46332958,-0.00224674,0.00373969,-0.00131949,-0.00772049,0.00710083,-0
 .00505384,0.00095059,0.00014772,0.00025113,-0.00048534,-0.00016199,0.0
 0087442,0.00139343,-0.01284897,0.00062760,0.00810856,0.00202272,0.0046
 2018\\-0.00009448,0.00000902,-0.00015256,0.00005669,-0.00005142,0.0000
 0315,0.00006559,-0.00003744,0.00005206,0.00002364,0.00003748,0.0000189
 0,-0.00001884,0.00002479,0.00008793,-0.00003260,0.00001757,-0.00000949
 \\\@


 CHEMISTRY BEGAN BY SAYING IT WOULD CHANGE THE BASER
 METALS INTO GOLD.  BY NOT DOING THAT IT HAS DONE MUCH
 GREATER THINGS.  --  RALPH WALDO EMERSON
 Job cpu time:       0 days  0 hours  2 minutes 50.9 seconds.
 Elapsed time:       0 days  0 hours  0 minutes 20.8 seconds.
 File lengths (MBytes):  RWF=      7 Int=      0 D2E=      0 Chk=      1 Scr=      1
 Normal termination of Gaussian 16 at Wed Oct  7 14:47:13 2020.
