 Entering Gaussian System, Link 0=g16
 Input=MN_96_RKT22_BH76_TPSShDBJ_631Gs.in
 Output=MN_96_RKT22_BH76_TPSShDBJ_631Gs.log
 Initial command:
 /udrive/faculty/rpeverati/g16/g16/l1.exe "/udrive/scratch-directories/gaussian09/rpeverati/Gau-6865.inp" -scrdir="/udrive/scratch-directories/gaussian09/rpeverati/"
 Entering Link 1 = /udrive/faculty/rpeverati/g16/g16/l1.exe PID=      6882.
  
 Copyright (c) 1988,1990,1992,1993,1995,1998,2003,2009,2016,
            Gaussian, Inc.  All Rights Reserved.
  
 This is part of the Gaussian(R) 16 program.  It is based on
 the Gaussian(R) 09 system (copyright 2009, Gaussian, Inc.),
 the Gaussian(R) 03 system (copyright 2003, Gaussian, Inc.),
 the Gaussian(R) 98 system (copyright 1998, Gaussian, Inc.),
 the Gaussian(R) 94 system (copyright 1995, Gaussian, Inc.),
 the Gaussian 92(TM) system (copyright 1992, Gaussian, Inc.),
 the Gaussian 90(TM) system (copyright 1990, Gaussian, Inc.),
 the Gaussian 88(TM) system (copyright 1988, Gaussian, Inc.),
 the Gaussian 86(TM) system (copyright 1986, Carnegie Mellon
 University), and the Gaussian 82(TM) system (copyright 1983,
 Carnegie Mellon University). Gaussian is a federally registered
 trademark of Gaussian, Inc.
  
 This software contains proprietary and confidential information,
 including trade secrets, belonging to Gaussian, Inc.
  
 This software is provided under written license and may be
 used, copied, transmitted, or stored only in accord with that
 written license.
  
 The following legend is applicable only to US Government
 contracts under FAR:
  
                    RESTRICTED RIGHTS LEGEND
  
 Use, reproduction and disclosure by the US Government is
 subject to restrictions as set forth in subparagraphs (a)
 and (c) of the Commercial Computer Software - Restricted
 Rights clause in FAR 52.227-19.
  
 Gaussian, Inc.
 340 Quinnipiac St., Bldg. 40, Wallingford CT 06492
  
  
 ---------------------------------------------------------------
 Warning -- This program may not be used in any manner that
 competes with the business of Gaussian, Inc. or will provide
 assistance to any competitor of Gaussian, Inc.  The licensee
 of this program is prohibited from giving any competitor of
 Gaussian, Inc. access to this program.  By using this program,
 the user acknowledges that Gaussian, Inc. is engaged in the
 business of creating and licensing software in the field of
 computational chemistry and represents and warrants to the
 licensee that it is not a competitor of Gaussian, Inc. and that
 it will not use this program in any manner prohibited above.
 ---------------------------------------------------------------
  

 Cite this work as:
 Gaussian 16, Revision A.03,
 M. J. Frisch, G. W. Trucks, H. B. Schlegel, G. E. Scuseria, 
 M. A. Robb, J. R. Cheeseman, G. Scalmani, V. Barone, 
 G. A. Petersson, H. Nakatsuji, X. Li, M. Caricato, A. V. Marenich, 
 J. Bloino, B. G. Janesko, R. Gomperts, B. Mennucci, H. P. Hratchian, 
 J. V. Ortiz, A. F. Izmaylov, J. L. Sonnenberg, D. Williams-Young, 
 F. Ding, F. Lipparini, F. Egidi, J. Goings, B. Peng, A. Petrone, 
 T. Henderson, D. Ranasinghe, V. G. Zakrzewski, J. Gao, N. Rega, 
 G. Zheng, W. Liang, M. Hada, M. Ehara, K. Toyota, R. Fukuda, 
 J. Hasegawa, M. Ishida, T. Nakajima, Y. Honda, O. Kitao, H. Nakai, 
 T. Vreven, K. Throssell, J. A. Montgomery, Jr., J. E. Peralta, 
 F. Ogliaro, M. J. Bearpark, J. J. Heyd, E. N. Brothers, K. N. Kudin, 
 V. N. Staroverov, T. A. Keith, R. Kobayashi, J. Normand, 
 K. Raghavachari, A. P. Rendell, J. C. Burant, S. S. Iyengar, 
 J. Tomasi, M. Cossi, J. M. Millam, M. Klene, C. Adamo, R. Cammi, 
 J. W. Ochterski, R. L. Martin, K. Morokuma, O. Farkas, 
 J. B. Foresman, and D. J. Fox, Gaussian, Inc., Wallingford CT, 2016.
 
 ******************************************
 Gaussian 16:  ES64L-G16RevA.03 25-Dec-2016
                 7-Oct-2020 
 ******************************************
 %NoSave
 %nproc=12
 Will use up to   12 processors via shared memory.
 %mem=20GB
 %chk=MN_96_RKT22_BH76_TPSShDBJ_631Gs
 ----------------------------------------------------------------------
 #P Opt(TS,MaxCyc=50,NoEigenTest,MaxStep=10,AddRedundant) TPSSh/6-31G* 
 5D 7F Integral=UltraFineGrid SCF=(NoSymm,XQC,MaxCyc=120) IOp(1/33=1,3/
 174=1000000,3/175=2238200,3/177=0452900,3/178=4655000) EmpiricalDisper
 sion=GD3BJ
 ----------------------------------------------------------------------
 1/5=1,6=50,8=10,11=1,18=120,26=4,33=1,38=1/1,3;
 2/9=110,12=2,17=6,18=5,40=1/2;
 3/5=1,6=6,7=1,8=11,11=2,25=1,30=1,71=1,74=-35,75=-5,124=41,174=1000000,175=2238200,177=452900,178=4655000/1,2,3;
 4/9=2/1;
 5/5=2,7=120,8=3,13=1,38=5/2,8;
 6/7=2,8=2,9=2,10=2,28=1/1;
 7//1,2,3,16;
 1/5=1,6=50,8=10,11=1,18=20,26=4,33=1/3(2);
 2/9=110/2;
 99//99;
 2/9=110/2;
 3/5=1,6=6,7=1,8=11,11=2,25=1,30=1,71=1,74=-35,75=-5,124=41,174=1000000,175=2238200,177=452900,178=4655000/1,2,3;
 4/5=5,9=2,16=3,69=1/1;
 5/5=2,7=120,8=3,13=1,38=5/2,8;
 7//1,2,3,16;
 1/5=1,6=50,8=10,11=1,18=20,26=4,33=1/3(-5);
 2/9=110/2;
 6/7=2,8=2,9=2,10=2,19=2,28=1/1;
 99/9=1/99;
 Leave Link    1 at Wed Oct  7 14:44:11 2020, MaxMem=  2684354560 cpu:               3.7 elap:               0.4
 (Enter /udrive/faculty/rpeverati/g16/g16/l101.exe)
 ONIOM data not found on unit 2.
 ------------------
 TS search on BH76.
 ------------------
 TstMul:  ICh=     0
 TstMul:  Mul=     1
 TstMul:  ICh=     0
 TstMul:  Mul=     1
 Symbolic Z-matrix:
 Charge =  0 Multiplicity = 1
 C                    -1.29962  -0.90486  -0.02015 
 C                    -1.20595   0.50582  -0.01341 
 C                     0.        1.18336   0.1533 
 C                     1.20595   0.50581  -0.01342 
 C                     1.29963  -0.90485  -0.02015 
 H                     2.1688   -1.32755  -0.5157 
 H                     1.03204  -1.45439   0.87317 
 H                     2.03713   1.08559  -0.3985 
 H                     0.        2.26292   0.08591 
 H                    -2.03713   1.08559  -0.39848 
 H                    -2.1688   -1.32754  -0.51572 
 H                    -0.00001  -1.18194  -0.52081 
 H                    -1.03206  -1.4544    0.87316 
 
 RdStrC is calling ZToCFu for IStruc=1 NZ=    13.
 PrtBox:  NBox=     2 Levels=  1 BoxLen=    8.00 SMaxX=        8.20
          Shift=            4.098430            2.748410            0.984185
 Box      1 Number                   0 centers from      1 to     12:
 Box      2 Number                   4 centers from     13 to     13:
 After GenITR:
 ITRead=  0  0  0  0  0  0  0  0  0  0  0  0  0
 MicOpt= -1 -1 -1 -1 -1 -1 -1 -1 -1 -1 -1 -1 -1
 Add virtual bond connecting atoms H12        and C1         Dist= 2.68D+00.
 Add virtual bond connecting atoms H12        and C5         Dist= 2.68D+00.
 The following ModRedundant input section has been read:
 
 ITRead=  0  0  0  0  0  0  0  0  0  0  0  0  0
 MicOpt= -1 -1 -1 -1 -1 -1 -1 -1 -1 -1 -1 -1 -1
 NAtoms=     13 NQM=       13 NQMF=       0 NMMI=      0 NMMIF=      0
                NMic=       0 NMicF=      0.
                    Isotopes and Nuclear Properties:
 (Nuclear quadrupole moments (NQMom) in fm**2, nuclear magnetic moments (NMagM)
  in nuclear magnetons)

  Atom         1           2           3           4           5           6           7           8           9          10
 IAtWgt=          12          12          12          12          12           1           1           1           1           1
 AtmWgt=  12.0000000  12.0000000  12.0000000  12.0000000  12.0000000   1.0078250   1.0078250   1.0078250   1.0078250   1.0078250
 NucSpn=           0           0           0           0           0           1           1           1           1           1
 AtZEff=   0.0000000   0.0000000   0.0000000   0.0000000   0.0000000   0.0000000   0.0000000   0.0000000   0.0000000   0.0000000
 NQMom=    0.0000000   0.0000000   0.0000000   0.0000000   0.0000000   0.0000000   0.0000000   0.0000000   0.0000000   0.0000000
 NMagM=    0.0000000   0.0000000   0.0000000   0.0000000   0.0000000   2.7928460   2.7928460   2.7928460   2.7928460   2.7928460
 AtZNuc=   6.0000000   6.0000000   6.0000000   6.0000000   6.0000000   1.0000000   1.0000000   1.0000000   1.0000000   1.0000000

  Atom        11          12          13
 IAtWgt=           1           1           1
 AtmWgt=   1.0078250   1.0078250   1.0078250
 NucSpn=           1           1           1
 AtZEff=   0.0000000   0.0000000   0.0000000
 NQMom=    0.0000000   0.0000000   0.0000000
 NMagM=    2.7928460   2.7928460   2.7928460
 AtZNuc=   1.0000000   1.0000000   1.0000000
 No MM parameters found.
 Leave Link  101 at Wed Oct  7 14:44:12 2020, MaxMem=  2684354560 cpu:               9.2 elap:               0.9
 (Enter /udrive/faculty/rpeverati/g16/g16/l103.exe)

 GradGradGradGradGradGradGradGradGradGradGradGradGradGradGradGradGradGrad
 Berny optimization.
 Optmz: redundant internal coordinate code flag= 1
 Initialization pass.
                           ----------------------------
                           !    Initial Parameters    !
                           ! (Angstroms and Degrees)  !
 --------------------------                            --------------------------
 ! Name  Definition              Value          Derivative Info.                !
 --------------------------------------------------------------------------------
 ! R1    R(1,2)                  1.4138         estimate D2E/DX2                !
 ! R2    R(1,11)                 1.0861         estimate D2E/DX2                !
 ! R3    R(1,12)                 1.42           estimate D2E/DX2                !
 ! R4    R(1,13)                 1.0824         estimate D2E/DX2                !
 ! R5    R(2,3)                  1.3933         estimate D2E/DX2                !
 ! R6    R(2,10)                 1.0841         estimate D2E/DX2                !
 ! R7    R(3,4)                  1.3933         estimate D2E/DX2                !
 ! R8    R(3,9)                  1.0817         estimate D2E/DX2                !
 ! R9    R(4,5)                  1.4138         estimate D2E/DX2                !
 ! R10   R(4,8)                  1.0841         estimate D2E/DX2                !
 ! R11   R(5,6)                  1.0861         estimate D2E/DX2                !
 ! R12   R(5,7)                  1.0824         estimate D2E/DX2                !
 ! R13   R(5,12)                 1.42           estimate D2E/DX2                !
 ! A1    A(2,1,11)             116.3274         estimate D2E/DX2                !
 ! A2    A(2,1,12)              97.8015         estimate D2E/DX2                !
 ! A3    A(2,1,13)             119.0957         estimate D2E/DX2                !
 ! A4    A(11,1,12)            119.7086         estimate D2E/DX2                !
 ! A5    A(11,1,13)            112.1348         estimate D2E/DX2                !
 ! A6    A(12,1,13)             88.0329         estimate D2E/DX2                !
 ! A7    A(1,2,3)              122.8982         estimate D2E/DX2                !
 ! A8    A(1,2,10)             118.7584         estimate D2E/DX2                !
 ! A9    A(3,2,10)             116.4911         estimate D2E/DX2                !
 ! A10   A(2,3,4)              119.893          estimate D2E/DX2                !
 ! A11   A(2,3,9)              118.5485         estimate D2E/DX2                !
 ! A12   A(4,3,9)              118.5485         estimate D2E/DX2                !
 ! A13   A(3,4,5)              122.8985         estimate D2E/DX2                !
 ! A14   A(3,4,8)              116.4909         estimate D2E/DX2                !
 ! A15   A(5,4,8)              118.7584         estimate D2E/DX2                !
 ! A16   A(4,5,6)              116.3283         estimate D2E/DX2                !
 ! A17   A(4,5,7)              119.0957         estimate D2E/DX2                !
 ! A18   A(4,5,12)              97.801          estimate D2E/DX2                !
 ! A19   A(6,5,7)              112.1349         estimate D2E/DX2                !
 ! A20   A(6,5,12)             119.7085         estimate D2E/DX2                !
 ! A21   A(7,5,12)              88.032          estimate D2E/DX2                !
 ! A22   A(1,12,5)             132.4725         estimate D2E/DX2                !
 ! D1    D(11,1,2,3)          -157.5701         estimate D2E/DX2                !
 ! D2    D(11,1,2,10)            6.3785         estimate D2E/DX2                !
 ! D3    D(12,1,2,3)           -28.8215         estimate D2E/DX2                !
 ! D4    D(12,1,2,10)          135.1272         estimate D2E/DX2                !
 ! D5    D(13,1,2,3)            63.2758         estimate D2E/DX2                !
 ! D6    D(13,1,2,10)         -132.7755         estimate D2E/DX2                !
 ! D7    D(2,1,12,5)            61.5015         estimate D2E/DX2                !
 ! D8    D(11,1,12,5)         -172.0882         estimate D2E/DX2                !
 ! D9    D(13,1,12,5)          -57.6025         estimate D2E/DX2                !
 ! D10   D(1,2,3,4)             16.1664         estimate D2E/DX2                !
 ! D11   D(1,2,3,9)            176.2677         estimate D2E/DX2                !
 ! D12   D(10,2,3,4)          -148.1199         estimate D2E/DX2                !
 ! D13   D(10,2,3,9)            11.9814         estimate D2E/DX2                !
 ! D14   D(2,3,4,5)            -16.1672         estimate D2E/DX2                !
 ! D15   D(2,3,4,8)            148.1195         estimate D2E/DX2                !
 ! D16   D(9,3,4,5)           -176.2685         estimate D2E/DX2                !
 ! D17   D(9,3,4,8)            -11.9818         estimate D2E/DX2                !
 ! D18   D(3,4,5,6)            157.571          estimate D2E/DX2                !
 ! D19   D(3,4,5,7)            -63.2736         estimate D2E/DX2                !
 ! D20   D(3,4,5,12)            28.8223         estimate D2E/DX2                !
 ! D21   D(8,4,5,6)             -6.378          estimate D2E/DX2                !
 ! D22   D(8,4,5,7)            132.7774         estimate D2E/DX2                !
 ! D23   D(8,4,5,12)          -135.1267         estimate D2E/DX2                !
 ! D24   D(4,5,12,1)           -61.502          estimate D2E/DX2                !
 ! D25   D(6,5,12,1)           172.087          estimate D2E/DX2                !
 ! D26   D(7,5,12,1)            57.6018         estimate D2E/DX2                !
 --------------------------------------------------------------------------------
 Maximum allowed force set to 1.00D+20.
 Trust Radius=1.00D-01 FncErr=1.00D-07 GrdErr=1.00D-06 EigMax=2.50D+02 EigMin=1.00D-04
 Number of steps in this run=     50 maximum allowed number of steps=    100.
 Search for a saddle point of order  1.
 GradGradGradGradGradGradGradGradGradGradGradGradGradGradGradGradGradGrad

 Leave Link  103 at Wed Oct  7 14:44:13 2020, MaxMem=  2684354560 cpu:               1.3 elap:               0.6
 (Enter /udrive/faculty/rpeverati/g16/g16/l202.exe)
                          Input orientation:                          
 ---------------------------------------------------------------------
 Center     Atomic      Atomic             Coordinates (Angstroms)
 Number     Number       Type             X           Y           Z
 ---------------------------------------------------------------------
      1          6           0       -1.299622   -0.904856   -0.020155
      2          6           0       -1.205947    0.505817   -0.013414
      3          6           0        0.000000    1.183362    0.153301
      4          6           0        1.205947    0.505814   -0.013422
      5          6           0        1.299627   -0.904851   -0.020147
      6          1           0        2.168796   -1.327552   -0.515697
      7          1           0        1.032044   -1.454385    0.873169
      8          1           0        2.037131    1.085586   -0.398504
      9          1           0        0.000001    2.262915    0.085905
     10          1           0       -2.037131    1.085586   -0.398481
     11          1           0       -2.168796   -1.327542   -0.515716
     12          1           0       -0.000011   -1.181944   -0.520808
     13          1           0       -1.032060   -1.454396    0.873158
 ---------------------------------------------------------------------
                    Distance matrix (angstroms):
                    1          2          3          4          5
     1  C    0.000000
     2  C    1.413796   0.000000
     3  C    2.465717   1.393259   0.000000
     4  C    2.875398   2.411894   1.393261   0.000000
     5  C    2.599250   2.875402   2.465714   1.413788   0.000000
     6  H    3.529045   3.873296   3.384660   2.130866   1.086140
     7  H    2.556692   3.104356   2.922505   2.158395   1.082406
     8  H    3.903707   3.316924   2.112807   1.084108   2.156132
     9  H    3.425645   2.133441   1.081655   2.133442   3.425641
    10  H    2.156133   1.084101   2.112801   3.316921   3.903708
    11  H    1.086143   2.130866   3.384656   3.873291   3.529053
    12  H    1.420007   2.135478   2.459491   2.135486   1.420036
    13  H    1.082401   2.158398   2.922517   3.104371   2.556709
                    6          7          8          9         10
     6  H    0.000000
     7  H    1.799233   0.000000
     8  H    2.419567   3.013106   0.000000
     9  H    4.237576   3.937413   2.402219   0.000000
    10  H    4.850443   4.181911   4.074262   2.402216   0.000000
    11  H    4.337592   3.491484   4.850438   4.237571   2.419559
    12  H    2.173695   1.755715   3.050672   3.497879   3.050658
    13  H    3.491487   2.064103   4.181933   3.937425   3.013095
                   11         12         13
    11  H    0.000000
    12  H    2.173672   0.000000
    13  H    1.799231   1.755704   0.000000
 Stoichiometry    C5H8
 Framework group  C1[X(C5H8)]
 Deg. of freedom    33
 Full point group                 C1      NOp   1
 Largest Abelian subgroup         C1      NOp   1
 Largest concise Abelian subgroup C1      NOp   1
                         Standard orientation:                         
 ---------------------------------------------------------------------
 Center     Atomic      Atomic             Coordinates (Angstroms)
 Number     Number       Type             X           Y           Z
 ---------------------------------------------------------------------
      1          6           0       -1.299623   -0.904855   -0.020155
      2          6           0       -1.205947    0.505819   -0.013414
      3          6           0        0.000001    1.183362    0.153301
      4          6           0        1.205947    0.505813   -0.013422
      5          6           0        1.299627   -0.904851   -0.020147
      6          1           0        2.168795   -1.327554   -0.515697
      7          1           0        1.032042   -1.454386    0.873169
      8          1           0        2.037132    1.085585   -0.398504
      9          1           0        0.000003    2.262916    0.085905
     10          1           0       -2.037130    1.085588   -0.398481
     11          1           0       -2.168797   -1.327539   -0.515716
     12          1           0       -0.000012   -1.181943   -0.520808
     13          1           0       -1.032061   -1.454395    0.873158
 ---------------------------------------------------------------------
 Rotational constants (GHZ):           8.1193781           5.1373721           3.2660768
 Leave Link  202 at Wed Oct  7 14:44:14 2020, MaxMem=  2684354560 cpu:               1.6 elap:               0.6
 (Enter /udrive/faculty/rpeverati/g16/g16/l301.exe)
 Standard basis: 6-31G(d) (5D, 7F)
 Ernie: Thresh=  0.10000D-02 Tol=  0.10000D-05 Strict=F.
 There are    91 symmetry adapted cartesian basis functions of A   symmetry.
 There are    86 symmetry adapted basis functions of A   symmetry.
    86 basis functions,   172 primitive gaussians,    91 cartesian basis functions
    19 alpha electrons       19 beta electrons
       nuclear repulsion energy       164.9366301686 Hartrees.
 IExCor= 2523 DFT=T Ex+Corr=TPSSh ExCW=0 ScaHFX=  0.100000
 ScaDFX=  0.900000  0.900000  1.000000  1.000000 ScalE2=  1.000000  1.000000
 IRadAn=      5 IRanWt=     -1 IRanGd=            0 ICorTp=0 IEmpDi=141
 NAtoms=   13 NActive=   13 NUniq=   13 SFac= 1.00D+00 NAtFMM=   60 NAOKFM=F Big=F
 Integral buffers will be    131072 words long.
 Raffenetti 2 integral format.
 Two-electron integral symmetry is turned on.
 R6DIni: Non-standard D2/D3 S6 parameter, value=     1.000000
 R6DIni: Non-standard D2/D3 S8 parameter, value=     2.238200
 R6DIni: Non-standard D3BJ A1 parameter, value=     0.452900
 R6DIni: Non-standard D3BJ A2 parameter, value=     4.655000
 R6Disp:  Grimme-D3(BJ) Dispersion energy=       -0.0117319183 Hartrees.
 Nuclear repulsion after empirical dispersion term =      164.9248982503 Hartrees.
 Leave Link  301 at Wed Oct  7 14:44:15 2020, MaxMem=  2684354560 cpu:               2.3 elap:               0.6
 (Enter /udrive/faculty/rpeverati/g16/g16/l302.exe)
 NPDir=0 NMtPBC=     1 NCelOv=     1 NCel=       1 NClECP=     1 NCelD=      1
         NCelK=      1 NCelE2=     1 NClLst=     1 CellRange=     0.0.
 One-electron integrals computed using PRISM.
 One-electron integral symmetry used in STVInt
 NBasis=    86 RedAO= T EigKep=  2.82D-03  NBF=    86
 NBsUse=    86 1.00D-06 EigRej= -1.00D+00 NBFU=    86
 Precomputing XC quadrature grid using
 IXCGrd= 4 IRadAn=           5 IRanWt=          -1 IRanGd=           0 AccXCQ= 0.00D+00.
 Generated NRdTot=       0 NPtTot=           0 NUsed=           0 NTot=          32
 NSgBfM=    91    91    91    91    91 MxSgAt=    13 MxSgA2=    13.
 Leave Link  302 at Wed Oct  7 14:44:16 2020, MaxMem=  2684354560 cpu:               5.2 elap:               0.9
 (Enter /udrive/faculty/rpeverati/g16/g16/l303.exe)
 DipDrv:  MaxL=1.
 Leave Link  303 at Wed Oct  7 14:44:16 2020, MaxMem=  2684354560 cpu:               1.5 elap:               0.5
 (Enter /udrive/faculty/rpeverati/g16/g16/l401.exe)
 SCF N**3 symmetry information disabled.
 ExpMin= 1.61D-01 ExpMax= 3.05D+03 ExpMxC= 4.57D+02 IAcc=3 IRadAn=         5 AccDes= 0.00D+00
 Harris functional with IExCor= 1009 and IRadAn=       5 diagonalized for initial guess.
 HarFok:  IExCor= 1009 AccDes= 0.00D+00 IRadAn=         5 IDoV= 1 UseB2=F ITyADJ=14
 ICtDFT=  3500011 ScaDFX=  1.000000  1.000000  1.000000  1.000000
 FoFCou: FMM=F IPFlag=           0 FMFlag=      100000 FMFlg1=           0
         NFxFlg=           0 DoJE=T BraDBF=F KetDBF=T FulRan=T
         wScrn=  0.000000 ICntrl=       500 IOpCl=  0 I1Cent=   200000004 NGrid=           0
         NMat0=    1 NMatS0=      1 NMatT0=    0 NMatD0=    1 NMtDS0=    0 NMtDT0=    0
 Petite list used in FoFCou.
 Harris En= -195.114706736108    
 JPrj=0 DoOrth=F DoCkMO=F.
 Leave Link  401 at Wed Oct  7 14:44:18 2020, MaxMem=  2684354560 cpu:              12.1 elap:               1.4
 (Enter /udrive/faculty/rpeverati/g16/g16/l502.exe)
 Integral symmetry usage will be decided dynamically.
 Closed shell SCF:
 Using DIIS extrapolation, IDIIS=  1040.
 NGot=  2684354560 LenX=  2684335663 LenY=  2684326941
 Requested convergence on RMS density matrix=1.00D-08 within 120 cycles.
 Requested convergence on MAX density matrix=1.00D-06.
 Requested convergence on             energy=1.00D-06.
 No special actions if energy rises.
 Fock matrices will be formed incrementally for  20 cycles.
 Integral accuracy reduced to 1.0D-05 until final iterations.

 Cycle   1  Pass 0  IDiag  1:
 FoFJK:  IHMeth= 1 ICntrl=       0 DoSepK=F KAlg= 0 I1Cent=           0 FoldK=F
 IRaf= 990000000 NMat=       1 IRICut=       1 DoRegI=T DoRafI=F ISym2E= 0 IDoP0=0 IntGTp=1.
 FoFCou: FMM=F IPFlag=           0 FMFlag=      100000 FMFlg1=           0
         NFxFlg=           0 DoJE=F BraDBF=F KetDBF=F FulRan=T
         wScrn=  0.000000 ICntrl=         0 IOpCl=  0 I1Cent=           0 NGrid=           0
         NMat0=    1 NMatS0=      1 NMatT0=    0 NMatD0=    1 NMtDS0=    0 NMtDT0=    0
 Symmetry not used in FoFCou.
 E= -195.122839862546    
 DIIS: error= 3.66D-02 at cycle   1 NSaved=   1.
 NSaved= 1 IEnMin= 1 EnMin= -195.122839862546     IErMin= 1 ErrMin= 3.66D-02
 ErrMax= 3.66D-02  0.00D+00 EMaxC= 1.00D-01 BMatC= 1.29D-01 BMatP= 1.29D-01
 IDIUse=3 WtCom= 6.34D-01 WtEn= 3.66D-01
 Coeff-Com:  0.100D+01
 Coeff-En:   0.100D+01
 Coeff:      0.100D+01
 Gap=     0.176 Goal=   None    Shift=    0.000
 GapD=    0.176 DampG=1.000 DampE=0.500 DampFc=0.5000 IDamp=-1.
 Damping current iteration by 5.00D-01
 RMSDP=9.76D-03 MaxDP=1.18D-01              OVMax= 1.54D-01

 Cycle   2  Pass 0  IDiag  1:
 RMSU=  4.80D-03    CP:  9.75D-01
 E= -195.193254858834     Delta-E=       -0.070414996288 Rises=F Damp=T
 DIIS: error= 4.86D-03 at cycle   2 NSaved=   2.
 NSaved= 2 IEnMin= 2 EnMin= -195.193254858834     IErMin= 2 ErrMin= 4.86D-03
 ErrMax= 4.86D-03  0.00D+00 EMaxC= 1.00D-01 BMatC= 4.75D-03 BMatP= 1.29D-01
 IDIUse=3 WtCom= 9.51D-01 WtEn= 4.86D-02
 Coeff-Com:  0.460D-01 0.954D+00
 Coeff-En:   0.765D-01 0.924D+00
 Coeff:      0.475D-01 0.953D+00
 Gap=     0.181 Goal=   None    Shift=    0.000
 RMSDP=1.81D-03 MaxDP=2.19D-02 DE=-7.04D-02 OVMax= 8.55D-02

 Cycle   3  Pass 0  IDiag  1:
 RMSU=  1.67D-03    CP:  9.75D-01  8.56D-01
 E= -195.273704950555     Delta-E=       -0.080450091722 Rises=F Damp=F
 DIIS: error= 2.63D-03 at cycle   3 NSaved=   3.
 NSaved= 3 IEnMin= 3 EnMin= -195.273704950555     IErMin= 3 ErrMin= 2.63D-03
 ErrMax= 2.63D-03  0.00D+00 EMaxC= 1.00D-01 BMatC= 6.04D-04 BMatP= 4.75D-03
 IDIUse=3 WtCom= 9.74D-01 WtEn= 2.63D-02
 Coeff-Com: -0.954D-02 0.205D+00 0.804D+00
 Coeff-En:   0.000D+00 0.000D+00 0.100D+01
 Coeff:     -0.929D-02 0.200D+00 0.809D+00
 Gap=     0.178 Goal=   None    Shift=    0.000
 RMSDP=6.15D-04 MaxDP=6.28D-03 DE=-8.05D-02 OVMax= 1.75D-02

 Cycle   4  Pass 0  IDiag  1:
 RMSU=  5.10D-04    CP:  9.74D-01  8.75D-01  8.04D-01
 E= -195.274063851915     Delta-E=       -0.000358901359 Rises=F Damp=F
 DIIS: error= 1.50D-03 at cycle   4 NSaved=   4.
 NSaved= 4 IEnMin= 4 EnMin= -195.274063851915     IErMin= 4 ErrMin= 1.50D-03
 ErrMax= 1.50D-03  0.00D+00 EMaxC= 1.00D-01 BMatC= 2.10D-04 BMatP= 6.04D-04
 IDIUse=3 WtCom= 9.85D-01 WtEn= 1.50D-02
 Coeff-Com: -0.587D-02 0.387D-01 0.385D+00 0.582D+00
 Coeff-En:   0.000D+00 0.000D+00 0.267D+00 0.733D+00
 Coeff:     -0.578D-02 0.382D-01 0.383D+00 0.585D+00
 Gap=     0.178 Goal=   None    Shift=    0.000
 RMSDP=3.43D-04 MaxDP=3.83D-03 DE=-3.59D-04 OVMax= 1.69D-02

 Cycle   5  Pass 0  IDiag  1:
 RMSU=  1.80D-04    CP:  9.75D-01  8.80D-01  8.37D-01  4.42D-01
 E= -195.274215479936     Delta-E=       -0.000151628021 Rises=F Damp=F
 DIIS: error= 1.21D-03 at cycle   5 NSaved=   5.
 NSaved= 5 IEnMin= 5 EnMin= -195.274215479936     IErMin= 5 ErrMin= 1.21D-03
 ErrMax= 1.21D-03  0.00D+00 EMaxC= 1.00D-01 BMatC= 9.32D-05 BMatP= 2.10D-04
 IDIUse=3 WtCom= 9.88D-01 WtEn= 1.21D-02
 Coeff-Com: -0.304D-02 0.536D-02 0.172D+00 0.414D+00 0.412D+00
 Coeff-En:   0.000D+00 0.000D+00 0.000D+00 0.322D+00 0.678D+00
 Coeff:     -0.300D-02 0.530D-02 0.170D+00 0.412D+00 0.415D+00
 Gap=     0.178 Goal=   None    Shift=    0.000
 RMSDP=1.27D-04 MaxDP=1.49D-03 DE=-1.52D-04 OVMax= 6.93D-03

 Cycle   6  Pass 0  IDiag  1:
 RMSU=  3.19D-05    CP:  9.75D-01  8.76D-01  8.53D-01  5.74D-01  4.57D-01
 E= -195.274325098480     Delta-E=       -0.000109618544 Rises=F Damp=F
 DIIS: error= 9.27D-05 at cycle   6 NSaved=   6.
 NSaved= 6 IEnMin= 6 EnMin= -195.274325098480     IErMin= 6 ErrMin= 9.27D-05
 ErrMax= 9.27D-05  0.00D+00 EMaxC= 1.00D-01 BMatC= 9.89D-07 BMatP= 9.32D-05
 IDIUse=1 WtCom= 1.00D+00 WtEn= 0.00D+00
 Coeff-Com: -0.113D-02 0.726D-03 0.648D-01 0.177D+00 0.191D+00 0.568D+00
 Coeff:     -0.113D-02 0.726D-03 0.648D-01 0.177D+00 0.191D+00 0.568D+00
 Gap=     0.178 Goal=   None    Shift=    0.000
 RMSDP=1.43D-05 MaxDP=3.21D-04 DE=-1.10D-04 OVMax= 4.97D-04

 Cycle   7  Pass 0  IDiag  1:
 RMSU=  8.41D-06    CP:  9.75D-01  8.76D-01  8.52D-01  5.81D-01  4.70D-01
                    CP:  6.66D-01
 E= -195.274325989716     Delta-E=       -0.000000891236 Rises=F Damp=F
 DIIS: error= 4.28D-05 at cycle   7 NSaved=   7.
 NSaved= 7 IEnMin= 7 EnMin= -195.274325989716     IErMin= 7 ErrMin= 4.28D-05
 ErrMax= 4.28D-05  0.00D+00 EMaxC= 1.00D-01 BMatC= 1.35D-07 BMatP= 9.89D-07
 IDIUse=1 WtCom= 1.00D+00 WtEn= 0.00D+00
 Coeff-Com: -0.386D-03-0.466D-04 0.233D-01 0.691D-01 0.768D-01 0.330D+00
 Coeff-Com:  0.501D+00
 Coeff:     -0.386D-03-0.466D-04 0.233D-01 0.691D-01 0.768D-01 0.330D+00
 Coeff:      0.501D+00
 Gap=     0.178 Goal=   None    Shift=    0.000
 RMSDP=5.24D-06 MaxDP=1.12D-04 DE=-8.91D-07 OVMax= 2.27D-04

 Initial convergence to 1.0D-05 achieved.  Increase integral accuracy.
 Cycle   8  Pass 1  IDiag  1:
 E= -195.274314865264     Delta-E=        0.000011124452 Rises=F Damp=F
 DIIS: error= 8.24D-06 at cycle   1 NSaved=   1.
 NSaved= 1 IEnMin= 1 EnMin= -195.274314865264     IErMin= 1 ErrMin= 8.24D-06
 ErrMax= 8.24D-06  0.00D+00 EMaxC= 1.00D-01 BMatC= 4.54D-09 BMatP= 4.54D-09
 IDIUse=1 WtCom= 1.00D+00 WtEn= 0.00D+00
 Coeff-Com:  0.100D+01
 Coeff:      0.100D+01
 Gap=     0.178 Goal=   None    Shift=    0.000
 RMSDP=5.24D-06 MaxDP=1.12D-04 DE= 1.11D-05 OVMax= 6.55D-05

 Cycle   9  Pass 1  IDiag  1:
 RMSU=  2.89D-06    CP:  1.00D+00
 E= -195.274314867433     Delta-E=       -0.000000002169 Rises=F Damp=F
 DIIS: error= 5.28D-06 at cycle   2 NSaved=   2.
 NSaved= 2 IEnMin= 2 EnMin= -195.274314867433     IErMin= 2 ErrMin= 5.28D-06
 ErrMax= 5.28D-06  0.00D+00 EMaxC= 1.00D-01 BMatC= 3.95D-09 BMatP= 4.54D-09
 IDIUse=1 WtCom= 1.00D+00 WtEn= 0.00D+00
 Coeff-Com:  0.476D+00 0.524D+00
 Coeff:      0.476D+00 0.524D+00
 Gap=     0.178 Goal=   None    Shift=    0.000
 RMSDP=1.32D-06 MaxDP=2.02D-05 DE=-2.17D-09 OVMax= 5.22D-05

 Cycle  10  Pass 1  IDiag  1:
 RMSU=  1.17D-06    CP:  1.00D+00  7.91D-01
 E= -195.274314870804     Delta-E=       -0.000000003372 Rises=F Damp=F
 DIIS: error= 3.39D-06 at cycle   3 NSaved=   3.
 NSaved= 3 IEnMin= 3 EnMin= -195.274314870804     IErMin= 3 ErrMin= 3.39D-06
 ErrMax= 3.39D-06  0.00D+00 EMaxC= 1.00D-01 BMatC= 1.28D-09 BMatP= 3.95D-09
 IDIUse=1 WtCom= 1.00D+00 WtEn= 0.00D+00
 Coeff-Com:  0.667D-01 0.352D+00 0.582D+00
 Coeff:      0.667D-01 0.352D+00 0.582D+00
 Gap=     0.178 Goal=   None    Shift=    0.000
 RMSDP=5.18D-07 MaxDP=5.81D-06 DE=-3.37D-09 OVMax= 2.55D-05

 Cycle  11  Pass 1  IDiag  1:
 RMSU=  2.42D-07    CP:  1.00D+00  8.74D-01  6.66D-01
 E= -195.274314872178     Delta-E=       -0.000000001374 Rises=F Damp=F
 DIIS: error= 9.30D-07 at cycle   4 NSaved=   4.
 NSaved= 4 IEnMin= 4 EnMin= -195.274314872178     IErMin= 4 ErrMin= 9.30D-07
 ErrMax= 9.30D-07  0.00D+00 EMaxC= 1.00D-01 BMatC= 1.18D-10 BMatP= 1.28D-09
 IDIUse=1 WtCom= 1.00D+00 WtEn= 0.00D+00
 Coeff-Com: -0.216D-02 0.165D+00 0.332D+00 0.505D+00
 Coeff:     -0.216D-02 0.165D+00 0.332D+00 0.505D+00
 Gap=     0.178 Goal=   None    Shift=    0.000
 RMSDP=1.51D-07 MaxDP=2.81D-06 DE=-1.37D-09 OVMax= 7.70D-06

 Cycle  12  Pass 1  IDiag  1:
 RMSU=  7.50D-08    CP:  1.00D+00  8.71D-01  7.16D-01  5.15D-01
 E= -195.274314872295     Delta-E=       -0.000000000116 Rises=F Damp=F
 DIIS: error= 3.74D-07 at cycle   5 NSaved=   5.
 NSaved= 5 IEnMin= 5 EnMin= -195.274314872295     IErMin= 5 ErrMin= 3.74D-07
 ErrMax= 3.74D-07  0.00D+00 EMaxC= 1.00D-01 BMatC= 9.12D-12 BMatP= 1.18D-10
 IDIUse=1 WtCom= 1.00D+00 WtEn= 0.00D+00
 Coeff-Com: -0.715D-02 0.591D-01 0.122D+00 0.283D+00 0.542D+00
 Coeff:     -0.715D-02 0.591D-01 0.122D+00 0.283D+00 0.542D+00
 Gap=     0.178 Goal=   None    Shift=    0.000
 RMSDP=4.53D-08 MaxDP=5.41D-07 DE=-1.16D-10 OVMax= 1.96D-06

 Cycle  13  Pass 1  IDiag  1:
 RMSU=  1.86D-08    CP:  1.00D+00  8.77D-01  7.01D-01  5.38D-01  5.57D-01
 E= -195.274314872308     Delta-E=       -0.000000000013 Rises=F Damp=F
 DIIS: error= 4.75D-08 at cycle   6 NSaved=   6.
 NSaved= 6 IEnMin= 6 EnMin= -195.274314872308     IErMin= 6 ErrMin= 4.75D-08
 ErrMax= 4.75D-08  0.00D+00 EMaxC= 1.00D-01 BMatC= 2.82D-13 BMatP= 9.12D-12
 IDIUse=1 WtCom= 1.00D+00 WtEn= 0.00D+00
 Coeff-Com: -0.295D-02 0.206D-01 0.408D-01 0.111D+00 0.250D+00 0.581D+00
 Coeff:     -0.295D-02 0.206D-01 0.408D-01 0.111D+00 0.250D+00 0.581D+00
 Gap=     0.178 Goal=   None    Shift=    0.000
 RMSDP=8.33D-09 MaxDP=1.15D-07 DE=-1.30D-11 OVMax= 1.94D-07

 SCF Done:  E(RTPSSh) =  -195.274314872     A.U. after   13 cycles
            NFock= 13  Conv=0.83D-08     -V/T= 2.0060
 KE= 1.941186516467D+02 PE=-7.817919510646D+02 EE= 2.274740862953D+02
 Leave Link  502 at Wed Oct  7 14:44:31 2020, MaxMem=  2684354560 cpu:             145.1 elap:              12.6
 (Enter /udrive/faculty/rpeverati/g16/g16/l508.exe)
 QCSCF skips out because SCF is already converged.
 Leave Link  508 at Wed Oct  7 14:44:32 2020, MaxMem=  2684354560 cpu:               0.6 elap:               0.5
 (Enter /udrive/faculty/rpeverati/g16/g16/l601.exe)
 Copying SCF densities to generalized density rwf, IOpCl= 0 IROHF=0.

 **********************************************************************

            Population analysis using the SCF density.

 **********************************************************************

 Orbital symmetries:
       Occupied  (A) (A) (A) (A) (A) (A) (A) (A) (A) (A) (A) (A)
                 (A) (A) (A) (A) (A) (A) (A)
       Virtual   (A) (A) (A) (A) (A) (A) (A) (A) (A) (A) (A) (A)
                 (A) (A) (A) (A) (A) (A) (A) (A) (A) (A) (A) (A)
                 (A) (A) (A) (A) (A) (A) (A) (A) (A) (A) (A) (A)
                 (A) (A) (A) (A) (A) (A) (A) (A) (A) (A) (A) (A)
                 (A) (A) (A) (A) (A) (A) (A) (A) (A) (A) (A) (A)
                 (A) (A) (A) (A) (A) (A) (A)
 The electronic state is 1-A.
 Alpha  occ. eigenvalues --  -10.12091 -10.12090 -10.11416 -10.11416 -10.11354
 Alpha  occ. eigenvalues --   -0.80088  -0.71600  -0.67030  -0.56865  -0.51132
 Alpha  occ. eigenvalues --   -0.47565  -0.40491  -0.39264  -0.39104  -0.36937
 Alpha  occ. eigenvalues --   -0.34282  -0.33064  -0.24260  -0.20539
 Alpha virt. eigenvalues --   -0.02744   0.02400   0.09709   0.12923   0.14618
 Alpha virt. eigenvalues --    0.17535   0.18854   0.18949   0.21969   0.24097
 Alpha virt. eigenvalues --    0.27637   0.29519   0.35026   0.41836   0.51088
 Alpha virt. eigenvalues --    0.52216   0.54049   0.57693   0.59516   0.61821
 Alpha virt. eigenvalues --    0.62177   0.63139   0.68817   0.70020   0.73616
 Alpha virt. eigenvalues --    0.73916   0.81945   0.86098   0.86805   0.88161
 Alpha virt. eigenvalues --    0.88749   0.93068   0.93940   0.94934   0.96200
 Alpha virt. eigenvalues --    1.04346   1.05312   1.09734   1.17981   1.21615
 Alpha virt. eigenvalues --    1.26913   1.32899   1.47511   1.53520   1.57291
 Alpha virt. eigenvalues --    1.63437   1.76626   1.83804   1.91672   1.92341
 Alpha virt. eigenvalues --    1.95491   1.97600   2.07793   2.09148   2.10225
 Alpha virt. eigenvalues --    2.17896   2.23136   2.25535   2.34271   2.42476
 Alpha virt. eigenvalues --    2.51620   2.57697   2.62503   2.64309   2.66772
 Alpha virt. eigenvalues --    2.88393   3.10653
          Condensed to atoms (all electrons):
               1          2          3          4          5          6
     1  C    5.321450   0.469596  -0.038174  -0.046256  -0.073894   0.002999
     2  C    0.469596   4.902537   0.559136  -0.026483  -0.046256   0.000910
     3  C   -0.038174   0.559136   4.839619   0.559128  -0.038174   0.003276
     4  C   -0.046256  -0.026483   0.559128   4.902533   0.469607  -0.027028
     5  C   -0.073894  -0.046256  -0.038174   0.469607   5.321451   0.358401
     6  H    0.002999   0.000910   0.003276  -0.027028   0.358401   0.540086
     7  H   -0.014081   0.000930  -0.002917  -0.038326   0.391573  -0.035473
     8  H   -0.000094   0.003382  -0.040373   0.379616  -0.050391  -0.005985
     9  H    0.006063  -0.046900   0.371988  -0.046900   0.006063  -0.000175
    10  H   -0.050391   0.379616  -0.040373   0.003382  -0.000094   0.000019
    11  H    0.358400  -0.027029   0.003276   0.000910   0.002999  -0.000119
    12  H    0.188382  -0.035063  -0.018030  -0.035060   0.188364   0.000281
    13  H    0.391573  -0.038325  -0.002917   0.000930  -0.014081   0.000527
               7          8          9         10         11         12
     1  C   -0.014081  -0.000094   0.006063  -0.050391   0.358400   0.188382
     2  C    0.000930   0.003382  -0.046900   0.379616  -0.027029  -0.035063
     3  C   -0.002917  -0.040373   0.371988  -0.040373   0.003276  -0.018030
     4  C   -0.038326   0.379616  -0.046900   0.003382   0.000910  -0.035060
     5  C    0.391573  -0.050391   0.006063  -0.000094   0.002999   0.188364
     6  H   -0.035473  -0.005985  -0.000175   0.000019  -0.000119   0.000281
     7  H    0.533371   0.003008  -0.000052  -0.000155   0.000527  -0.042977
     8  H    0.003008   0.553423  -0.006151  -0.000303   0.000019   0.002593
     9  H   -0.000052  -0.006151   0.573648  -0.006151  -0.000175  -0.000010
    10  H   -0.000155  -0.000303  -0.006151   0.553421  -0.005985   0.002593
    11  H    0.000527   0.000019  -0.000175  -0.005985   0.540088   0.000281
    12  H   -0.042977   0.002593  -0.000010   0.002593   0.000281   0.606075
    13  H    0.006085  -0.000155  -0.000052   0.003008  -0.035473  -0.042979
              13
     1  C    0.391573
     2  C   -0.038325
     3  C   -0.002917
     4  C    0.000930
     5  C   -0.014081
     6  H    0.000527
     7  H    0.006085
     8  H   -0.000155
     9  H   -0.000052
    10  H    0.003008
    11  H   -0.035473
    12  H   -0.042979
    13  H    0.533371
 Mulliken charges:
               1
     1  C   -0.515573
     2  C   -0.096053
     3  C   -0.155465
     4  C   -0.096051
     5  C   -0.515569
     6  H    0.162280
     7  H    0.198487
     8  H    0.161411
     9  H    0.148804
    10  H    0.161412
    11  H    0.162279
    12  H    0.185551
    13  H    0.198487
 Sum of Mulliken charges =  -0.00000
 Mulliken charges with hydrogens summed into heavy atoms:
               1
     1  C    0.030744
     2  C    0.065359
     3  C   -0.006661
     4  C    0.065360
     5  C   -0.154802
 Electronic spatial extent (au):  <R**2>=            420.2686
 Charge=             -0.0000 electrons
 Dipole moment (field-independent basis, Debye):
    X=             -0.0000    Y=             -0.0068    Z=             -0.1559  Tot=              0.1560
 Quadrupole moment (field-independent basis, Debye-Ang):
   XX=            -29.9730   YY=            -29.7029   ZZ=            -33.5129
   XY=             -0.0000   XZ=             -0.0000   YZ=             -1.3763
 Traceless Quadrupole moment (field-independent basis, Debye-Ang):
   XX=              1.0899   YY=              1.3601   ZZ=             -2.4499
   XY=             -0.0000   XZ=             -0.0000   YZ=             -1.3763
 Octapole moment (field-independent basis, Debye-Ang**2):
  XXX=             -0.0001  YYY=              3.9877  ZZZ=              0.6563  XYY=              0.0001
  XXY=              0.5561  XXZ=             -4.9408  XZZ=             -0.0000  YZZ=             -1.7127
  YYZ=              0.9735  XYZ=              0.0000
 Hexadecapole moment (field-independent basis, Debye-Ang**3):
 XXXX=           -301.3706 YYYY=           -207.7772 ZZZZ=            -47.4942 XXXY=             -0.0003
 XXXZ=             -0.0001 YYYX=             -0.0002 YYYZ=             -4.4107 ZZZX=              0.0000
 ZZZY=             -3.1828 XXYY=            -82.0209 XXZZ=            -61.3337 YYZZ=            -44.3695
 XXYZ=             -0.2364 YYXZ=             -0.0001 ZZXY=              0.0000
 N-N= 1.649248982503D+02 E-N=-7.817919452808D+02  KE= 1.941186516467D+02
 No NMR shielding tensors so no spin-rotation constants.
 Leave Link  601 at Wed Oct  7 14:44:33 2020, MaxMem=  2684354560 cpu:               3.8 elap:               0.6
 (Enter /udrive/faculty/rpeverati/g16/g16/l701.exe)
 ... and contract with generalized density number  0.
 Compute integral first derivatives.
 R6Disp: Adding Grimme-D3(BJ) dispersion energy 1st derivatives to the gradient.
 Leave Link  701 at Wed Oct  7 14:44:34 2020, MaxMem=  2684354560 cpu:               4.1 elap:               0.7
 (Enter /udrive/faculty/rpeverati/g16/g16/l702.exe)
 L702 exits ... SP integral derivatives will be done elsewhere.
 Leave Link  702 at Wed Oct  7 14:44:34 2020, MaxMem=  2684354560 cpu:               1.9 elap:               0.5
 (Enter /udrive/faculty/rpeverati/g16/g16/l703.exe)
 Integral derivatives from FoFJK, PRISM(SPDF).
 Compute integral first derivatives, UseDBF=F ICtDFT=           0.
 Calling FoFJK, ICntrl=      2127 FMM=F ISym2X=0 I1Cent= 0 IOpClX= 0 NMat=1 NMatS=1 NMatT=0.
 FoFJK:  IHMeth= 1 ICntrl=    2127 DoSepK=F KAlg= 0 I1Cent=           0 FoldK=F
 IRaf=         0 NMat=       1 IRICut=       1 DoRegI=T DoRafI=F ISym2E= 0 IDoP0=0 IntGTp=1.
 FoFCou: FMM=F IPFlag=           0 FMFlag=      100000 FMFlg1=         800
         NFxFlg=           0 DoJE=F BraDBF=F KetDBF=F FulRan=T
         wScrn=  0.000000 ICntrl=      2127 IOpCl=  0 I1Cent=           0 NGrid=           0
         NMat0=    1 NMatS0=      1 NMatT0=    0 NMatD0=    1 NMtDS0=    0 NMtDT0=    0
 Symmetry not used in FoFCou.
 Leave Link  703 at Wed Oct  7 14:44:37 2020, MaxMem=  2684354560 cpu:              28.6 elap:               2.6
 (Enter /udrive/faculty/rpeverati/g16/g16/l716.exe)
 Dipole        =-1.33316898D-06-2.68112714D-03-6.13178330D-02
 ***** Axes restored to original set *****
 -------------------------------------------------------------------
 Center     Atomic                   Forces (Hartrees/Bohr)
 Number     Number              X              Y              Z
 -------------------------------------------------------------------
      1        6          -0.000356598    0.000338316   -0.002675090
      2        6          -0.001908197    0.000560027    0.002048070
      3        6          -0.000001230    0.000973151    0.000274489
      4        6           0.001913667    0.000563118    0.002046290
      5        6           0.000358556    0.000336750   -0.002668817
      6        1           0.002731028   -0.002028777   -0.001418043
      7        1           0.000355054   -0.002314519    0.004373071
      8        1           0.003018392    0.001955658   -0.001305881
      9        1          -0.000000018    0.003890205   -0.000070436
     10        1          -0.003022298    0.001958318   -0.001306740
     11        1          -0.002729132   -0.002028770   -0.001417221
     12        1          -0.000004010   -0.001887637   -0.002256360
     13        1          -0.000355213   -0.002315839    0.004376668
 -------------------------------------------------------------------
 Cartesian Forces:  Max     0.004376668 RMS     0.002035709
 Leave Link  716 at Wed Oct  7 14:44:38 2020, MaxMem=  2684354560 cpu:               1.9 elap:               0.7
 (Enter /udrive/faculty/rpeverati/g16/g16/l103.exe)

 GradGradGradGradGradGradGradGradGradGradGradGradGradGradGradGradGradGrad
 Berny optimization.
 Optmz: redundant internal coordinate code flag= 1
 FormGI is forming the generalized inverse of G from B-inverse, IUseBI=4.
 Internal  Forces:  Max     0.005390226 RMS     0.002062907
 Search for a saddle point.
 Step number   1 out of a maximum of   50
 All quantities printed in internal units (Hartrees-Bohrs-Radians)
 Swapping is turned off.
 Second derivative matrix not updated -- first step.
 The second derivative matrix:
                          R1        R2        R3        R4        R5
           R1           0.43409
           R2           0.00000   0.35262
           R3           0.00000   0.00000   0.13683
           R4           0.00000   0.00000   0.00000   0.35706
           R5           0.00000   0.00000   0.00000   0.00000   0.46756
           R6           0.00000   0.00000   0.00000   0.00000   0.00000
           R7           0.00000   0.00000   0.00000   0.00000   0.00000
           R8           0.00000   0.00000   0.00000   0.00000   0.00000
           R9           0.00000   0.00000   0.00000   0.00000   0.00000
           R10          0.00000   0.00000   0.00000   0.00000   0.00000
           R11          0.00000   0.00000   0.00000   0.00000   0.00000
           R12          0.00000   0.00000   0.00000   0.00000   0.00000
           R13          0.00000   0.00000   0.00000   0.00000   0.00000
           A1           0.00000   0.00000   0.00000   0.00000   0.00000
           A2           0.00000   0.00000   0.00000   0.00000   0.00000
           A3           0.00000   0.00000   0.00000   0.00000   0.00000
           A4           0.00000   0.00000   0.00000   0.00000   0.00000
           A5           0.00000   0.00000   0.00000   0.00000   0.00000
           A6           0.00000   0.00000   0.00000   0.00000   0.00000
           A7           0.00000   0.00000   0.00000   0.00000   0.00000
           A8           0.00000   0.00000   0.00000   0.00000   0.00000
           A9           0.00000   0.00000   0.00000   0.00000   0.00000
           A10          0.00000   0.00000   0.00000   0.00000   0.00000
           A11          0.00000   0.00000   0.00000   0.00000   0.00000
           A12          0.00000   0.00000   0.00000   0.00000   0.00000
           A13          0.00000   0.00000   0.00000   0.00000   0.00000
           A14          0.00000   0.00000   0.00000   0.00000   0.00000
           A15          0.00000   0.00000   0.00000   0.00000   0.00000
           A16          0.00000   0.00000   0.00000   0.00000   0.00000
           A17          0.00000   0.00000   0.00000   0.00000   0.00000
           A18          0.00000   0.00000   0.00000   0.00000   0.00000
           A19          0.00000   0.00000   0.00000   0.00000   0.00000
           A20          0.00000   0.00000   0.00000   0.00000   0.00000
           A21          0.00000   0.00000   0.00000   0.00000   0.00000
           A22          0.00000   0.00000   0.00000   0.00000   0.00000
           D1           0.00000   0.00000   0.00000   0.00000   0.00000
           D2           0.00000   0.00000   0.00000   0.00000   0.00000
           D3           0.00000   0.00000   0.00000   0.00000   0.00000
           D4           0.00000   0.00000   0.00000   0.00000   0.00000
           D5           0.00000   0.00000   0.00000   0.00000   0.00000
           D6           0.00000   0.00000   0.00000   0.00000   0.00000
           D7           0.00000   0.00000   0.00000   0.00000   0.00000
           D8           0.00000   0.00000   0.00000   0.00000   0.00000
           D9           0.00000   0.00000   0.00000   0.00000   0.00000
           D10          0.00000   0.00000   0.00000   0.00000   0.00000
           D11          0.00000   0.00000   0.00000   0.00000   0.00000
           D12          0.00000   0.00000   0.00000   0.00000   0.00000
           D13          0.00000   0.00000   0.00000   0.00000   0.00000
           D14          0.00000   0.00000   0.00000   0.00000   0.00000
           D15          0.00000   0.00000   0.00000   0.00000   0.00000
           D16          0.00000   0.00000   0.00000   0.00000   0.00000
           D17          0.00000   0.00000   0.00000   0.00000   0.00000
           D18          0.00000   0.00000   0.00000   0.00000   0.00000
           D19          0.00000   0.00000   0.00000   0.00000   0.00000
           D20          0.00000   0.00000   0.00000   0.00000   0.00000
           D21          0.00000   0.00000   0.00000   0.00000   0.00000
           D22          0.00000   0.00000   0.00000   0.00000   0.00000
           D23          0.00000   0.00000   0.00000   0.00000   0.00000
           D24          0.00000   0.00000   0.00000   0.00000   0.00000
           D25          0.00000   0.00000   0.00000   0.00000   0.00000
           D26          0.00000   0.00000   0.00000   0.00000   0.00000
                          R6        R7        R8        R9        R10
           R6           0.35503
           R7           0.00000   0.46756
           R8           0.00000   0.00000   0.35795
           R9           0.00000   0.00000   0.00000   0.43410
           R10          0.00000   0.00000   0.00000   0.00000   0.35502
           R11          0.00000   0.00000   0.00000   0.00000   0.00000
           R12          0.00000   0.00000   0.00000   0.00000   0.00000
           R13          0.00000   0.00000   0.00000   0.00000   0.00000
           A1           0.00000   0.00000   0.00000   0.00000   0.00000
           A2           0.00000   0.00000   0.00000   0.00000   0.00000
           A3           0.00000   0.00000   0.00000   0.00000   0.00000
           A4           0.00000   0.00000   0.00000   0.00000   0.00000
           A5           0.00000   0.00000   0.00000   0.00000   0.00000
           A6           0.00000   0.00000   0.00000   0.00000   0.00000
           A7           0.00000   0.00000   0.00000   0.00000   0.00000
           A8           0.00000   0.00000   0.00000   0.00000   0.00000
           A9           0.00000   0.00000   0.00000   0.00000   0.00000
           A10          0.00000   0.00000   0.00000   0.00000   0.00000
           A11          0.00000   0.00000   0.00000   0.00000   0.00000
           A12          0.00000   0.00000   0.00000   0.00000   0.00000
           A13          0.00000   0.00000   0.00000   0.00000   0.00000
           A14          0.00000   0.00000   0.00000   0.00000   0.00000
           A15          0.00000   0.00000   0.00000   0.00000   0.00000
           A16          0.00000   0.00000   0.00000   0.00000   0.00000
           A17          0.00000   0.00000   0.00000   0.00000   0.00000
           A18          0.00000   0.00000   0.00000   0.00000   0.00000
           A19          0.00000   0.00000   0.00000   0.00000   0.00000
           A20          0.00000   0.00000   0.00000   0.00000   0.00000
           A21          0.00000   0.00000   0.00000   0.00000   0.00000
           A22          0.00000   0.00000   0.00000   0.00000   0.00000
           D1           0.00000   0.00000   0.00000   0.00000   0.00000
           D2           0.00000   0.00000   0.00000   0.00000   0.00000
           D3           0.00000   0.00000   0.00000   0.00000   0.00000
           D4           0.00000   0.00000   0.00000   0.00000   0.00000
           D5           0.00000   0.00000   0.00000   0.00000   0.00000
           D6           0.00000   0.00000   0.00000   0.00000   0.00000
           D7           0.00000   0.00000   0.00000   0.00000   0.00000
           D8           0.00000   0.00000   0.00000   0.00000   0.00000
           D9           0.00000   0.00000   0.00000   0.00000   0.00000
           D10          0.00000   0.00000   0.00000   0.00000   0.00000
           D11          0.00000   0.00000   0.00000   0.00000   0.00000
           D12          0.00000   0.00000   0.00000   0.00000   0.00000
           D13          0.00000   0.00000   0.00000   0.00000   0.00000
           D14          0.00000   0.00000   0.00000   0.00000   0.00000
           D15          0.00000   0.00000   0.00000   0.00000   0.00000
           D16          0.00000   0.00000   0.00000   0.00000   0.00000
           D17          0.00000   0.00000   0.00000   0.00000   0.00000
           D18          0.00000   0.00000   0.00000   0.00000   0.00000
           D19          0.00000   0.00000   0.00000   0.00000   0.00000
           D20          0.00000   0.00000   0.00000   0.00000   0.00000
           D21          0.00000   0.00000   0.00000   0.00000   0.00000
           D22          0.00000   0.00000   0.00000   0.00000   0.00000
           D23          0.00000   0.00000   0.00000   0.00000   0.00000
           D24          0.00000   0.00000   0.00000   0.00000   0.00000
           D25          0.00000   0.00000   0.00000   0.00000   0.00000
           D26          0.00000   0.00000   0.00000   0.00000   0.00000
                          R11       R12       R13       A1        A2
           R11          0.35263
           R12          0.00000   0.35705
           R13          0.00000   0.00000   0.13682
           A1           0.00000   0.00000   0.00000   0.16000
           A2           0.00000   0.00000   0.00000   0.00000   0.16000
           A3           0.00000   0.00000   0.00000   0.00000   0.00000
           A4           0.00000   0.00000   0.00000   0.00000   0.00000
           A5           0.00000   0.00000   0.00000   0.00000   0.00000
           A6           0.00000   0.00000   0.00000   0.00000   0.00000
           A7           0.00000   0.00000   0.00000   0.00000   0.00000
           A8           0.00000   0.00000   0.00000   0.00000   0.00000
           A9           0.00000   0.00000   0.00000   0.00000   0.00000
           A10          0.00000   0.00000   0.00000   0.00000   0.00000
           A11          0.00000   0.00000   0.00000   0.00000   0.00000
           A12          0.00000   0.00000   0.00000   0.00000   0.00000
           A13          0.00000   0.00000   0.00000   0.00000   0.00000
           A14          0.00000   0.00000   0.00000   0.00000   0.00000
           A15          0.00000   0.00000   0.00000   0.00000   0.00000
           A16          0.00000   0.00000   0.00000   0.00000   0.00000
           A17          0.00000   0.00000   0.00000   0.00000   0.00000
           A18          0.00000   0.00000   0.00000   0.00000   0.00000
           A19          0.00000   0.00000   0.00000   0.00000   0.00000
           A20          0.00000   0.00000   0.00000   0.00000   0.00000
           A21          0.00000   0.00000   0.00000   0.00000   0.00000
           A22          0.00000   0.00000   0.00000   0.00000   0.00000
           D1           0.00000   0.00000   0.00000   0.00000   0.00000
           D2           0.00000   0.00000   0.00000   0.00000   0.00000
           D3           0.00000   0.00000   0.00000   0.00000   0.00000
           D4           0.00000   0.00000   0.00000   0.00000   0.00000
           D5           0.00000   0.00000   0.00000   0.00000   0.00000
           D6           0.00000   0.00000   0.00000   0.00000   0.00000
           D7           0.00000   0.00000   0.00000   0.00000   0.00000
           D8           0.00000   0.00000   0.00000   0.00000   0.00000
           D9           0.00000   0.00000   0.00000   0.00000   0.00000
           D10          0.00000   0.00000   0.00000   0.00000   0.00000
           D11          0.00000   0.00000   0.00000   0.00000   0.00000
           D12          0.00000   0.00000   0.00000   0.00000   0.00000
           D13          0.00000   0.00000   0.00000   0.00000   0.00000
           D14          0.00000   0.00000   0.00000   0.00000   0.00000
           D15          0.00000   0.00000   0.00000   0.00000   0.00000
           D16          0.00000   0.00000   0.00000   0.00000   0.00000
           D17          0.00000   0.00000   0.00000   0.00000   0.00000
           D18          0.00000   0.00000   0.00000   0.00000   0.00000
           D19          0.00000   0.00000   0.00000   0.00000   0.00000
           D20          0.00000   0.00000   0.00000   0.00000   0.00000
           D21          0.00000   0.00000   0.00000   0.00000   0.00000
           D22          0.00000   0.00000   0.00000   0.00000   0.00000
           D23          0.00000   0.00000   0.00000   0.00000   0.00000
           D24          0.00000   0.00000   0.00000   0.00000   0.00000
           D25          0.00000   0.00000   0.00000   0.00000   0.00000
           D26          0.00000   0.00000   0.00000   0.00000   0.00000
                          A3        A4        A5        A6        A7
           A3           0.16000
           A4           0.00000   0.16000
           A5           0.00000   0.00000   0.16000
           A6           0.00000   0.00000   0.00000   0.16000
           A7           0.00000   0.00000   0.00000   0.00000   0.25000
           A8           0.00000   0.00000   0.00000   0.00000   0.00000
           A9           0.00000   0.00000   0.00000   0.00000   0.00000
           A10          0.00000   0.00000   0.00000   0.00000   0.00000
           A11          0.00000   0.00000   0.00000   0.00000   0.00000
           A12          0.00000   0.00000   0.00000   0.00000   0.00000
           A13          0.00000   0.00000   0.00000   0.00000   0.00000
           A14          0.00000   0.00000   0.00000   0.00000   0.00000
           A15          0.00000   0.00000   0.00000   0.00000   0.00000
           A16          0.00000   0.00000   0.00000   0.00000   0.00000
           A17          0.00000   0.00000   0.00000   0.00000   0.00000
           A18          0.00000   0.00000   0.00000   0.00000   0.00000
           A19          0.00000   0.00000   0.00000   0.00000   0.00000
           A20          0.00000   0.00000   0.00000   0.00000   0.00000
           A21          0.00000   0.00000   0.00000   0.00000   0.00000
           A22          0.00000   0.00000   0.00000   0.00000   0.00000
           D1           0.00000   0.00000   0.00000   0.00000   0.00000
           D2           0.00000   0.00000   0.00000   0.00000   0.00000
           D3           0.00000   0.00000   0.00000   0.00000   0.00000
           D4           0.00000   0.00000   0.00000   0.00000   0.00000
           D5           0.00000   0.00000   0.00000   0.00000   0.00000
           D6           0.00000   0.00000   0.00000   0.00000   0.00000
           D7           0.00000   0.00000   0.00000   0.00000   0.00000
           D8           0.00000   0.00000   0.00000   0.00000   0.00000
           D9           0.00000   0.00000   0.00000   0.00000   0.00000
           D10          0.00000   0.00000   0.00000   0.00000   0.00000
           D11          0.00000   0.00000   0.00000   0.00000   0.00000
           D12          0.00000   0.00000   0.00000   0.00000   0.00000
           D13          0.00000   0.00000   0.00000   0.00000   0.00000
           D14          0.00000   0.00000   0.00000   0.00000   0.00000
           D15          0.00000   0.00000   0.00000   0.00000   0.00000
           D16          0.00000   0.00000   0.00000   0.00000   0.00000
           D17          0.00000   0.00000   0.00000   0.00000   0.00000
           D18          0.00000   0.00000   0.00000   0.00000   0.00000
           D19          0.00000   0.00000   0.00000   0.00000   0.00000
           D20          0.00000   0.00000   0.00000   0.00000   0.00000
           D21          0.00000   0.00000   0.00000   0.00000   0.00000
           D22          0.00000   0.00000   0.00000   0.00000   0.00000
           D23          0.00000   0.00000   0.00000   0.00000   0.00000
           D24          0.00000   0.00000   0.00000   0.00000   0.00000
           D25          0.00000   0.00000   0.00000   0.00000   0.00000
           D26          0.00000   0.00000   0.00000   0.00000   0.00000
                          A8        A9        A10       A11       A12
           A8           0.16000
           A9           0.00000   0.16000
           A10          0.00000   0.00000   0.25000
           A11          0.00000   0.00000   0.00000   0.16000
           A12          0.00000   0.00000   0.00000   0.00000   0.16000
           A13          0.00000   0.00000   0.00000   0.00000   0.00000
           A14          0.00000   0.00000   0.00000   0.00000   0.00000
           A15          0.00000   0.00000   0.00000   0.00000   0.00000
           A16          0.00000   0.00000   0.00000   0.00000   0.00000
           A17          0.00000   0.00000   0.00000   0.00000   0.00000
           A18          0.00000   0.00000   0.00000   0.00000   0.00000
           A19          0.00000   0.00000   0.00000   0.00000   0.00000
           A20          0.00000   0.00000   0.00000   0.00000   0.00000
           A21          0.00000   0.00000   0.00000   0.00000   0.00000
           A22          0.00000   0.00000   0.00000   0.00000   0.00000
           D1           0.00000   0.00000   0.00000   0.00000   0.00000
           D2           0.00000   0.00000   0.00000   0.00000   0.00000
           D3           0.00000   0.00000   0.00000   0.00000   0.00000
           D4           0.00000   0.00000   0.00000   0.00000   0.00000
           D5           0.00000   0.00000   0.00000   0.00000   0.00000
           D6           0.00000   0.00000   0.00000   0.00000   0.00000
           D7           0.00000   0.00000   0.00000   0.00000   0.00000
           D8           0.00000   0.00000   0.00000   0.00000   0.00000
           D9           0.00000   0.00000   0.00000   0.00000   0.00000
           D10          0.00000   0.00000   0.00000   0.00000   0.00000
           D11          0.00000   0.00000   0.00000   0.00000   0.00000
           D12          0.00000   0.00000   0.00000   0.00000   0.00000
           D13          0.00000   0.00000   0.00000   0.00000   0.00000
           D14          0.00000   0.00000   0.00000   0.00000   0.00000
           D15          0.00000   0.00000   0.00000   0.00000   0.00000
           D16          0.00000   0.00000   0.00000   0.00000   0.00000
           D17          0.00000   0.00000   0.00000   0.00000   0.00000
           D18          0.00000   0.00000   0.00000   0.00000   0.00000
           D19          0.00000   0.00000   0.00000   0.00000   0.00000
           D20          0.00000   0.00000   0.00000   0.00000   0.00000
           D21          0.00000   0.00000   0.00000   0.00000   0.00000
           D22          0.00000   0.00000   0.00000   0.00000   0.00000
           D23          0.00000   0.00000   0.00000   0.00000   0.00000
           D24          0.00000   0.00000   0.00000   0.00000   0.00000
           D25          0.00000   0.00000   0.00000   0.00000   0.00000
           D26          0.00000   0.00000   0.00000   0.00000   0.00000
                          A13       A14       A15       A16       A17
           A13          0.25000
           A14          0.00000   0.16000
           A15          0.00000   0.00000   0.16000
           A16          0.00000   0.00000   0.00000   0.16000
           A17          0.00000   0.00000   0.00000   0.00000   0.16000
           A18          0.00000   0.00000   0.00000   0.00000   0.00000
           A19          0.00000   0.00000   0.00000   0.00000   0.00000
           A20          0.00000   0.00000   0.00000   0.00000   0.00000
           A21          0.00000   0.00000   0.00000   0.00000   0.00000
           A22          0.00000   0.00000   0.00000   0.00000   0.00000
           D1           0.00000   0.00000   0.00000   0.00000   0.00000
           D2           0.00000   0.00000   0.00000   0.00000   0.00000
           D3           0.00000   0.00000   0.00000   0.00000   0.00000
           D4           0.00000   0.00000   0.00000   0.00000   0.00000
           D5           0.00000   0.00000   0.00000   0.00000   0.00000
           D6           0.00000   0.00000   0.00000   0.00000   0.00000
           D7           0.00000   0.00000   0.00000   0.00000   0.00000
           D8           0.00000   0.00000   0.00000   0.00000   0.00000
           D9           0.00000   0.00000   0.00000   0.00000   0.00000
           D10          0.00000   0.00000   0.00000   0.00000   0.00000
           D11          0.00000   0.00000   0.00000   0.00000   0.00000
           D12          0.00000   0.00000   0.00000   0.00000   0.00000
           D13          0.00000   0.00000   0.00000   0.00000   0.00000
           D14          0.00000   0.00000   0.00000   0.00000   0.00000
           D15          0.00000   0.00000   0.00000   0.00000   0.00000
           D16          0.00000   0.00000   0.00000   0.00000   0.00000
           D17          0.00000   0.00000   0.00000   0.00000   0.00000
           D18          0.00000   0.00000   0.00000   0.00000   0.00000
           D19          0.00000   0.00000   0.00000   0.00000   0.00000
           D20          0.00000   0.00000   0.00000   0.00000   0.00000
           D21          0.00000   0.00000   0.00000   0.00000   0.00000
           D22          0.00000   0.00000   0.00000   0.00000   0.00000
           D23          0.00000   0.00000   0.00000   0.00000   0.00000
           D24          0.00000   0.00000   0.00000   0.00000   0.00000
           D25          0.00000   0.00000   0.00000   0.00000   0.00000
           D26          0.00000   0.00000   0.00000   0.00000   0.00000
                          A18       A19       A20       A21       A22
           A18          0.16000
           A19          0.00000   0.16000
           A20          0.00000   0.00000   0.16000
           A21          0.00000   0.00000   0.00000   0.16000
           A22          0.00000   0.00000   0.00000   0.00000   0.25000
           D1           0.00000   0.00000   0.00000   0.00000   0.00000
           D2           0.00000   0.00000   0.00000   0.00000   0.00000
           D3           0.00000   0.00000   0.00000   0.00000   0.00000
           D4           0.00000   0.00000   0.00000   0.00000   0.00000
           D5           0.00000   0.00000   0.00000   0.00000   0.00000
           D6           0.00000   0.00000   0.00000   0.00000   0.00000
           D7           0.00000   0.00000   0.00000   0.00000   0.00000
           D8           0.00000   0.00000   0.00000   0.00000   0.00000
           D9           0.00000   0.00000   0.00000   0.00000   0.00000
           D10          0.00000   0.00000   0.00000   0.00000   0.00000
           D11          0.00000   0.00000   0.00000   0.00000   0.00000
           D12          0.00000   0.00000   0.00000   0.00000   0.00000
           D13          0.00000   0.00000   0.00000   0.00000   0.00000
           D14          0.00000   0.00000   0.00000   0.00000   0.00000
           D15          0.00000   0.00000   0.00000   0.00000   0.00000
           D16          0.00000   0.00000   0.00000   0.00000   0.00000
           D17          0.00000   0.00000   0.00000   0.00000   0.00000
           D18          0.00000   0.00000   0.00000   0.00000   0.00000
           D19          0.00000   0.00000   0.00000   0.00000   0.00000
           D20          0.00000   0.00000   0.00000   0.00000   0.00000
           D21          0.00000   0.00000   0.00000   0.00000   0.00000
           D22          0.00000   0.00000   0.00000   0.00000   0.00000
           D23          0.00000   0.00000   0.00000   0.00000   0.00000
           D24          0.00000   0.00000   0.00000   0.00000   0.00000
           D25          0.00000   0.00000   0.00000   0.00000   0.00000
           D26          0.00000   0.00000   0.00000   0.00000   0.00000
                          D1        D2        D3        D4        D5
           D1           0.01906
           D2           0.00000   0.01906
           D3           0.00000   0.00000   0.01906
           D4           0.00000   0.00000   0.00000   0.01906
           D5           0.00000   0.00000   0.00000   0.00000   0.01906
           D6           0.00000   0.00000   0.00000   0.00000   0.00000
           D7           0.00000   0.00000   0.00000   0.00000   0.00000
           D8           0.00000   0.00000   0.00000   0.00000   0.00000
           D9           0.00000   0.00000   0.00000   0.00000   0.00000
           D10          0.00000   0.00000   0.00000   0.00000   0.00000
           D11          0.00000   0.00000   0.00000   0.00000   0.00000
           D12          0.00000   0.00000   0.00000   0.00000   0.00000
           D13          0.00000   0.00000   0.00000   0.00000   0.00000
           D14          0.00000   0.00000   0.00000   0.00000   0.00000
           D15          0.00000   0.00000   0.00000   0.00000   0.00000
           D16          0.00000   0.00000   0.00000   0.00000   0.00000
           D17          0.00000   0.00000   0.00000   0.00000   0.00000
           D18          0.00000   0.00000   0.00000   0.00000   0.00000
           D19          0.00000   0.00000   0.00000   0.00000   0.00000
           D20          0.00000   0.00000   0.00000   0.00000   0.00000
           D21          0.00000   0.00000   0.00000   0.00000   0.00000
           D22          0.00000   0.00000   0.00000   0.00000   0.00000
           D23          0.00000   0.00000   0.00000   0.00000   0.00000
           D24          0.00000   0.00000   0.00000   0.00000   0.00000
           D25          0.00000   0.00000   0.00000   0.00000   0.00000
           D26          0.00000   0.00000   0.00000   0.00000   0.00000
                          D6        D7        D8        D9        D10
           D6           0.01906
           D7           0.00000   0.00230
           D8           0.00000   0.00000   0.00230
           D9           0.00000   0.00000   0.00000   0.00230
           D10          0.00000   0.00000   0.00000   0.00000   0.02178
           D11          0.00000   0.00000   0.00000   0.00000   0.00000
           D12          0.00000   0.00000   0.00000   0.00000   0.00000
           D13          0.00000   0.00000   0.00000   0.00000   0.00000
           D14          0.00000   0.00000   0.00000   0.00000   0.00000
           D15          0.00000   0.00000   0.00000   0.00000   0.00000
           D16          0.00000   0.00000   0.00000   0.00000   0.00000
           D17          0.00000   0.00000   0.00000   0.00000   0.00000
           D18          0.00000   0.00000   0.00000   0.00000   0.00000
           D19          0.00000   0.00000   0.00000   0.00000   0.00000
           D20          0.00000   0.00000   0.00000   0.00000   0.00000
           D21          0.00000   0.00000   0.00000   0.00000   0.00000
           D22          0.00000   0.00000   0.00000   0.00000   0.00000
           D23          0.00000   0.00000   0.00000   0.00000   0.00000
           D24          0.00000   0.00000   0.00000   0.00000   0.00000
           D25          0.00000   0.00000   0.00000   0.00000   0.00000
           D26          0.00000   0.00000   0.00000   0.00000   0.00000
                          D11       D12       D13       D14       D15
           D11          0.02178
           D12          0.00000   0.02178
           D13          0.00000   0.00000   0.02178
           D14          0.00000   0.00000   0.00000   0.02178
           D15          0.00000   0.00000   0.00000   0.00000   0.02178
           D16          0.00000   0.00000   0.00000   0.00000   0.00000
           D17          0.00000   0.00000   0.00000   0.00000   0.00000
           D18          0.00000   0.00000   0.00000   0.00000   0.00000
           D19          0.00000   0.00000   0.00000   0.00000   0.00000
           D20          0.00000   0.00000   0.00000   0.00000   0.00000
           D21          0.00000   0.00000   0.00000   0.00000   0.00000
           D22          0.00000   0.00000   0.00000   0.00000   0.00000
           D23          0.00000   0.00000   0.00000   0.00000   0.00000
           D24          0.00000   0.00000   0.00000   0.00000   0.00000
           D25          0.00000   0.00000   0.00000   0.00000   0.00000
           D26          0.00000   0.00000   0.00000   0.00000   0.00000
                          D16       D17       D18       D19       D20
           D16          0.02178
           D17          0.00000   0.02178
           D18          0.00000   0.00000   0.01906
           D19          0.00000   0.00000   0.00000   0.01906
           D20          0.00000   0.00000   0.00000   0.00000   0.01906
           D21          0.00000   0.00000   0.00000   0.00000   0.00000
           D22          0.00000   0.00000   0.00000   0.00000   0.00000
           D23          0.00000   0.00000   0.00000   0.00000   0.00000
           D24          0.00000   0.00000   0.00000   0.00000   0.00000
           D25          0.00000   0.00000   0.00000   0.00000   0.00000
           D26          0.00000   0.00000   0.00000   0.00000   0.00000
                          D21       D22       D23       D24       D25
           D21          0.01906
           D22          0.00000   0.01906
           D23          0.00000   0.00000   0.01906
           D24          0.00000   0.00000   0.00000   0.00230
           D25          0.00000   0.00000   0.00000   0.00000   0.00230
           D26          0.00000   0.00000   0.00000   0.00000   0.00000
                          D26
           D26          0.00230
 ITU=  0
 Eigenvectors of the second derivative matrix:
                           1         2         3         4         5
     Eigenvalues --     0.00928   0.01888   0.02060   0.02145   0.02263
   1         R1         0.00081   0.00921   0.00002  -0.00740   0.00029
   2         R2         0.00000  -0.00000  -0.00000   0.00000   0.00000
   3         R3        -0.03729   0.00576  -0.00098  -0.00437  -0.01431
   4         R4         0.00000  -0.00000   0.00000  -0.00000  -0.00000
   5         R5         0.00982   0.00410   0.00024  -0.00327   0.00347
   6         R6        -0.00000  -0.00000   0.00000   0.00000  -0.00000
   7         R7         0.00982  -0.00410   0.00024   0.00327   0.00347
   8         R8         0.00000   0.00000  -0.00000   0.00000   0.00000
   9         R9         0.00081  -0.00921   0.00002   0.00740   0.00029
  10         R10        0.00000  -0.00000   0.00000  -0.00000   0.00000
  11         R11       -0.00000  -0.00000   0.00000  -0.00000  -0.00000
  12         R12        0.00000   0.00000  -0.00000   0.00000  -0.00000
  13         R13       -0.03729  -0.00576  -0.00097   0.00438  -0.01431
  14         A1         0.03575  -0.02483   0.00058   0.01797  -0.00887
  15         A2        -0.10205   0.03746  -0.00429  -0.03497   0.02422
  16         A3        -0.00457   0.01424   0.00016  -0.00736   0.00046
  17         A4         0.01619  -0.01142  -0.00363   0.00747  -0.00601
  18         A5         0.01407  -0.00357   0.00139   0.00496  -0.00417
  19         A6         0.02020  -0.00067   0.00541   0.00254   0.00037
  20         A7        -0.02257   0.02677   0.01048  -0.00179   0.01181
  21         A8         0.00989  -0.02140   0.02025   0.04804  -0.04537
  22         A9         0.01275  -0.02090   0.02251   0.05017  -0.04714
  23         A10        0.00808   0.00000   0.00879  -0.00001   0.03962
  24         A11        0.00866  -0.00109   0.01438  -0.00009  -0.01697
  25         A12        0.00866   0.00110   0.01438   0.00009  -0.01697
  26         A13       -0.02257  -0.02677   0.01049   0.00178   0.01182
  27         A14        0.01275   0.02091   0.02249  -0.05016  -0.04716
  28         A15        0.00989   0.02140   0.02023  -0.04803  -0.04538
  29         A16        0.03575   0.02483   0.00057  -0.01796  -0.00888
  30         A17       -0.00457  -0.01424   0.00016   0.00736   0.00046
  31         A18       -0.10204  -0.03746  -0.00427   0.03496   0.02423
  32         A19        0.01407   0.00357   0.00138  -0.00496  -0.00417
  33         A20        0.01619   0.01142  -0.00364  -0.00747  -0.00601
  34         A21        0.02020   0.00067   0.00541  -0.00255   0.00037
  35         A22       -0.05386   0.00000   0.00419  -0.00000   0.00317
  36         D1        -0.02302   0.26962   0.07554  -0.15967   0.19761
  37         D2        -0.02049   0.20016   0.30491   0.25741  -0.15234
  38         D3        -0.05820   0.26896   0.06812  -0.16604   0.20302
  39         D4        -0.05568   0.19950   0.29749   0.25105  -0.14693
  40         D5        -0.09293   0.29148   0.07198  -0.18391   0.21713
  41         D6        -0.09041   0.22202   0.30136   0.23318  -0.13282
  42         D7         0.39099  -0.13109   0.01344   0.07590  -0.02337
  43         D8         0.36416  -0.13963   0.00857   0.07524  -0.01878
  44         D9         0.39660  -0.14676   0.01270   0.08427  -0.02478
  45         D10       -0.08959  -0.17026  -0.13965   0.10707  -0.39336
  46         D11       -0.00683  -0.17000  -0.01699   0.10706  -0.37878
  47         D12       -0.09180  -0.10196  -0.36392  -0.30117  -0.05076
  48         D13       -0.00904  -0.10170  -0.24126  -0.30118  -0.03618
  49         D14        0.08960  -0.17018   0.13973   0.10688   0.39340
  50         D15        0.09180  -0.10184   0.36386  -0.30129   0.05065
  51         D16        0.00684  -0.17000   0.01707   0.10692   0.37883
  52         D17        0.00904  -0.10166   0.24120  -0.30125   0.03608
  53         D18        0.02301   0.26958  -0.07566  -0.15958  -0.19768
  54         D19        0.09292   0.29144  -0.07212  -0.18381  -0.21721
  55         D20        0.05820   0.26892  -0.06825  -0.16594  -0.20309
  56         D21        0.02049   0.20007  -0.30490   0.25745   0.15242
  57         D22        0.09040   0.22193  -0.30135   0.23322   0.13289
  58         D23        0.05567   0.19942  -0.29748   0.25108   0.14701
  59         D24       -0.39099  -0.13110  -0.01338   0.07589   0.02340
  60         D25       -0.36416  -0.13964  -0.00851   0.07523   0.01882
  61         D26       -0.39660  -0.14678  -0.01263   0.08426   0.02481
                           6         7         8         9        10
     Eigenvalues --     0.02347   0.05397   0.05595   0.06969   0.07365
   1         R1        -0.00002   0.01658  -0.00011   0.00085   0.01372
   2         R2        -0.00000  -0.00000  -0.00000   0.00000  -0.00000
   3         R3         0.00121   0.01165   0.00695  -0.06379  -0.01217
   4         R4        -0.00000   0.00000   0.00000   0.00000  -0.00000
   5         R5        -0.00029   0.00721  -0.00129   0.01018   0.00465
   6         R6        -0.00000   0.00000   0.00000   0.00000   0.00000
   7         R7        -0.00029  -0.00721  -0.00129   0.01018  -0.00465
   8         R8        -0.00000  -0.00000  -0.00000  -0.00000   0.00000
   9         R9        -0.00002  -0.01658  -0.00011   0.00085  -0.01372
  10         R10        0.00000   0.00000  -0.00000  -0.00000  -0.00000
  11         R11        0.00000   0.00000   0.00000   0.00000   0.00000
  12         R12        0.00000  -0.00000  -0.00000   0.00000   0.00000
  13         R13        0.00121  -0.01165   0.00695  -0.06380   0.01217
  14         A1        -0.00307  -0.11182  -0.06525  -0.06643   0.14387
  15         A2         0.00547  -0.10607  -0.10989  -0.00108   0.00370
  16         A3         0.00040   0.20065   0.11958  -0.11189   0.04058
  17         A4        -0.00612  -0.19160  -0.24857   0.03676   0.03681
  18         A5        -0.00023   0.16120   0.16411  -0.09862   0.03807
  19         A6         0.00558  -0.00174   0.08873   0.38136  -0.40705
  20         A7        -0.00382   0.06935   0.00152  -0.03868   0.04013
  21         A8        -0.01048  -0.03148  -0.01718   0.00204  -0.00814
  22         A9        -0.00951  -0.02279   0.00165   0.02687  -0.03853
  23         A10        0.04451  -0.00000   0.01092   0.00660   0.00000
  24         A11        0.07074  -0.00994  -0.02796  -0.02177   0.02376
  25         A12        0.07074   0.00994  -0.02796  -0.02177  -0.02376
  26         A13       -0.00381  -0.06936   0.00151  -0.03868  -0.04013
  27         A14       -0.00951   0.02279   0.00165   0.02687   0.03853
  28         A15       -0.01048   0.03148  -0.01717   0.00203   0.00814
  29         A16       -0.00308   0.11183  -0.06523  -0.06643  -0.14387
  30         A17        0.00041  -0.20067   0.11954  -0.11189  -0.04059
  31         A18        0.00548   0.10609  -0.10987  -0.00108  -0.00370
  32         A19       -0.00023  -0.16123   0.16408  -0.09860  -0.03806
  33         A20       -0.00612   0.19165  -0.24854   0.03674  -0.03681
  34         A21        0.00558   0.00174   0.08872   0.38135   0.40706
  35         A22        0.01004  -0.00001   0.09801   0.01690   0.00000
  36         D1         0.12408   0.23192   0.38466  -0.05862   0.04583
  37         D2         0.02162   0.29160   0.32537  -0.09555   0.01172
  38         D3         0.11872  -0.15139  -0.04628  -0.05138   0.17715
  39         D4         0.01626  -0.09171  -0.10556  -0.08830   0.14305
  40         D5         0.12831  -0.18141   0.01330   0.37094  -0.28461
  41         D6         0.02584  -0.12173  -0.04598   0.33402  -0.31871
  42         D7         0.00254   0.04101   0.16725   0.05778  -0.09622
  43         D8        -0.00062  -0.30288  -0.15314  -0.00734   0.11473
  44         D9         0.00116  -0.15749   0.03832   0.11833  -0.08130
  45         D10       -0.22431   0.10954   0.11234   0.09936  -0.11035
  46         D11        0.38310   0.11150  -0.03689  -0.02290  -0.11503
  47         D12       -0.12383   0.05284   0.17319   0.13891  -0.08114
[...]
 ! A3    A(2,1,13)             118.784          -DE/DX =    0.0                 !
 ! A4    A(11,1,12)            119.4083         -DE/DX =    0.0                 !
 ! A5    A(11,1,13)            111.6833         -DE/DX =    0.0                 !
 ! A6    A(12,1,13)             88.6633         -DE/DX =    0.0                 !
 ! A7    A(1,2,3)              122.909          -DE/DX =    0.0                 !
 ! A8    A(1,2,10)             118.7144         -DE/DX =    0.0                 !
 ! A9    A(3,2,10)             116.3909         -DE/DX =    0.0                 !
 ! A10   A(2,3,4)              120.2427         -DE/DX =    0.0                 !
 ! A11   A(2,3,9)              118.4599         -DE/DX =    0.0                 !
 ! A12   A(4,3,9)              118.453          -DE/DX =    0.0                 !
 ! A13   A(3,4,5)              122.9187         -DE/DX =    0.0                 !
 ! A14   A(3,4,8)              116.3951         -DE/DX =    0.0                 !
 ! A15   A(5,4,8)              118.71           -DE/DX =    0.0                 !
 ! A16   A(4,5,6)              116.5187         -DE/DX =    0.0                 !
 ! A17   A(4,5,7)              118.7772         -DE/DX =    0.0                 !
 ! A18   A(4,5,12)              98.2213         -DE/DX =    0.0                 !
 ! A19   A(6,5,7)              111.6779         -DE/DX =    0.0                 !
 ! A20   A(6,5,12)             119.3958         -DE/DX =    0.0                 !
 ! A21   A(7,5,12)              88.7049         -DE/DX =    0.0                 !
 ! A22   A(1,12,5)             132.3225         -DE/DX =    0.0                 !
 ! D1    D(11,1,2,3)          -157.1368         -DE/DX =    0.0                 !
 ! D2    D(11,1,2,10)            6.2402         -DE/DX =    0.0                 !
 ! D3    D(12,1,2,3)           -28.3371         -DE/DX =    0.0                 !
 ! D4    D(12,1,2,10)          135.0399         -DE/DX =    0.0                 !
 ! D5    D(13,1,2,3)            64.6703         -DE/DX =    0.0                 !
 ! D6    D(13,1,2,10)         -131.9527         -DE/DX =    0.0                 !
 ! D7    D(2,1,12,5)            60.1063         -DE/DX =    0.0                 !
 ! D8    D(11,1,12,5)         -173.0661         -DE/DX =    0.0                 !
 ! D9    D(13,1,12,5)          -58.7927         -DE/DX =    0.0                 !
 ! D10   D(1,2,3,4)             15.7304         -DE/DX =    0.0                 !
 ! D11   D(1,2,3,9)            176.3483         -DE/DX =    0.0                 !
 ! D12   D(10,2,3,4)          -148.0044         -DE/DX =    0.0                 !
 ! D13   D(10,2,3,9)            12.6136         -DE/DX =    0.0                 !
 ! D14   D(2,3,4,5)            -15.7229         -DE/DX =    0.0                 !
 ! D15   D(2,3,4,8)            148.0492         -DE/DX =    0.0                 !
 ! D16   D(9,3,4,5)           -176.3422         -DE/DX =    0.0                 !
 ! D17   D(9,3,4,8)            -12.5701         -DE/DX =    0.0                 !
 ! D18   D(3,4,5,6)            157.1231         -DE/DX =    0.0                 !
 ! D19   D(3,4,5,7)            -64.7132         -DE/DX =    0.0                 !
 ! D20   D(3,4,5,12)            28.3421         -DE/DX =    0.0                 !
 ! D21   D(8,4,5,6)             -6.2933         -DE/DX =    0.0                 !
 ! D22   D(8,4,5,7)            131.8703         -DE/DX =    0.0                 !
 ! D23   D(8,4,5,12)          -135.0744         -DE/DX =    0.0                 !
 ! D24   D(4,5,12,1)           -60.0982         -DE/DX =    0.0                 !
 ! D25   D(6,5,12,1)           173.09           -DE/DX =    0.0                 !
 ! D26   D(7,5,12,1)            58.8005         -DE/DX =    0.0                 !
 --------------------------------------------------------------------------------
 GradGradGradGradGradGradGradGradGradGradGradGradGradGradGradGradGradGrad

 Leave Link  103 at Wed Oct  7 14:51:31 2020, MaxMem=  2684354560 cpu:               7.1 elap:               1.1
 (Enter /udrive/faculty/rpeverati/g16/g16/l9999.exe)

 ----------------------------------------------------------------------

 Electric dipole moment (input orientation):
 (Debye = 10**-18 statcoulomb cm , SI units = C m)
                  (au)            (Debye)         (10**-30 SI)
   Tot        0.569220D-01      0.144681D+00      0.482605D+00
   x          0.236038D-03      0.599948D-03      0.200121D-02
   y          0.474361D-02      0.120570D-01      0.402180D-01
   z         -0.567236D-01     -0.144177D+00     -0.480922D+00

 Dipole polarizability, Alpha (input orientation).
 (esu units = cm**3 , SI units = C**2 m**2 J**-1)
 Alpha(0;0):
               (au)            (10**-24 esu)      (10**-40 SI)
   iso        0.555524D+02      0.823202D+01      0.915936D+01
   aniso      0.399672D+02      0.592253D+01      0.658970D+01
   xx         0.739796D+02      0.109626D+02      0.121976D+02
   yx         0.948270D-03      0.140519D-03      0.156349D-03
   yy         0.629977D+02      0.933529D+01      0.103869D+02
   zx         0.576821D-02      0.854760D-03      0.951049D-03
   zy        -0.520441D+00     -0.771214D-01     -0.858092D-01
   zz         0.296800D+02      0.439812D+01      0.489357D+01

 ----------------------------------------------------------------------

 Dipole orientation:
     6         -2.47608412          1.71107755         -0.11042065
     6         -2.29264623         -0.95711767          0.09227476
     6          0.00055139         -2.25793254         -0.10121832
     6          2.29138734         -0.95648295          0.11090364
     6          2.47598408          1.71206912         -0.08996259
     1          4.11961585          2.59074196          0.79411697
     1          2.00940855          2.60576275         -1.88576370
     1          3.86160885         -1.99680833          0.94298584
     1         -0.00015365         -4.29194183          0.18840113
     1         -3.86874151         -1.99761955          0.91286822
     1         -4.12710709          2.58976311          0.75975772
     1         -0.00267916          2.33916814          0.79597390
     1         -1.99392898          2.60495558         -1.90201838

 Electric dipole moment (dipole orientation):
 (Debye = 10**-18 statcoulomb cm , SI units = C m)
                  (au)            (Debye)         (10**-30 SI)
   Tot        0.569220D-01      0.144681D+00      0.482605D+00
   x          0.000000D+00      0.000000D+00      0.000000D+00
   y          0.000000D+00      0.000000D+00      0.000000D+00
   z          0.569220D-01      0.144681D+00      0.482605D+00

 Dipole polarizability, Alpha (dipole orientation).
 (esu units = cm**3 , SI units = C**2 m**2 J**-1)
 Alpha(0;0):
               (au)            (10**-24 esu)      (10**-40 SI)
   iso        0.555524D+02      0.823202D+01      0.915936D+01
   aniso      0.399672D+02      0.592253D+01      0.658970D+01
   xx         0.739789D+02      0.109625D+02      0.121975D+02
   yx         0.141316D-01      0.209409D-02      0.232999D-02
   yy         0.626798D+02      0.928819D+01      0.103345D+02
   zx         0.177276D+00      0.262696D-01      0.292288D-01
   zy        -0.328006D+01     -0.486055D+00     -0.540809D+00
   zz         0.299985D+02      0.444532D+01      0.494609D+01

 ----------------------------------------------------------------------

 Test job not archived.
 1\1\GINC-NODE17\Freq\RTPSSh\6-31G(d)\C5H8\RPEVERATI\07-Oct-2020\0\\#P 
 Freq TPSSh/6-31G* 5D 7F Integral=UltraFineGrid SCF=(NoSymm,XQC,MaxCyc=
 120) IOp(1/33=1,3/174=1000000,3/175=2238200,3/177=0452900,3/178=465500
 0) EmpiricalDispersion=GD3BJ Geom=Check Guess=Read\\TS search on BH76.
 \\0,1\C,-1.3103615827,-0.906956306,-0.0226619397\C,-1.213090873,0.5090
 023,-0.0114822577\C,-0.0001371339,1.1862265609,0.152949582\C,1.2126952
 713,0.5090692453,-0.0112749649\C,1.3101824708,-0.9070305842,-0.0226273
 772\H,2.1819678998,-1.331550304,-0.5239727497\H,1.0594247295,-1.457458
 2748,0.8839210356\H,2.0453441353,1.094221022,-0.40073552\H,-0.00006100
 11,2.2716059114,0.0899203615\H,-2.0454120384,1.0940286875,-0.401780712
 8\H,-2.1820478458,-1.3317939973,-0.5239068916\H,0.0005431407,-1.198426
 7881,-0.522903478\H,-1.0590677559,-1.4573827664,0.8837435958\\Version=
 ES64L-G16RevA.03\State=1-A\HF=-195.2747471\RMSD=4.308e-09\RMSF=4.589e-
 05\ZeroPoint=0.1104143\Thermal=0.1150794\Dipole=0.000236,0.0047436,-0.
 0567236\DipoleDeriv=0.1252711,0.072139,0.0698954,-0.0379516,-0.1432839
 ,0.0127879,0.0581323,-0.1211135,0.0179629,0.0139148,0.0515631,0.100301
 1,0.1545529,0.0832409,-0.0641093,0.1618827,-0.1038782,-0.126929,-0.132
 1153,-0.0000263,-0.0000303,0.0003071,0.1839124,-0.0047327,0.0001305,0.
 0409537,-0.1657001,0.0137646,-0.0512387,-0.1002098,-0.1547735,0.083431
 5,-0.0640394,-0.1615917,-0.10349,-0.1272024,0.1252922,-0.0720434,-0.06
 95449,0.0377907,-0.1430775,0.0128215,-0.0582098,-0.1208691,0.0184003,-
 0.1137145,0.159455,0.1021963,0.0674244,0.0419821,-0.0102497,0.0512519,
 0.0235774,0.0556745,-0.0167559,0.0207017,0.0718789,0.0361697,0.0106013
 ,0.0520576,0.0111673,0.1134089,-0.0380355,-0.0516643,-0.0747425,0.0573
 944,-0.0827535,-0.0076843,0.0287301,0.0841392,0.047471,0.1045147,0.043
 5832,-0.0000261,-0.0000095,-0.0000112,-0.1474653,-0.0114266,-0.0000097
 ,0.0598484,0.1232585,-0.0515411,0.0746123,-0.0574887,0.0826892,-0.0076
 205,0.0288349,-0.0844412,0.0477097,0.1043925,-0.1136532,-0.1595737,-0.
 1022365,-0.0674418,0.0419662,-0.0102532,-0.0511616,0.0237292,0.0557387
 ,0.1744174,-0.0000938,-0.0001936,0.0000243,-0.006678,-0.022443,-0.0000
 566,-0.0207732,0.0158197,-0.0167989,-0.0207266,-0.0719527,-0.0360266,0
 .0106751,0.0520219,-0.0112335,0.1134256,-0.0378949\Polar=73.9796062,0.
 0009483,62.997669,0.0057682,-0.5204413,29.6799941\Quadrupole=0.8307866
 ,1.0048459,-1.8356325,-0.000092,0.0010023,-1.0347356\PG=C01 [X(C5H8)]\
 NImag=1\\0.36321162,0.13295291,0.58565248,0.21601904,-0.10389585,0.419
 74636,-0.09975415,0.00537957,-0.01382262,0.63625190,-0.06394665,-0.315
 27438,0.02147254,0.00831883,0.65837859,-0.02444646,0.01426265,-0.07158
 949,0.14190371,-0.04728746,0.19232369,0.03150076,-0.05498554,-0.013345
 08,-0.27518868,-0.06602180,-0.05280416,0.66072784,-0.02565666,-0.02132
 100,-0.00783808,-0.12517139,-0.17290460,-0.01742298,-0.00011895,0.7191
 5220,0.00319577,-0.00811481,0.00420296,-0.03283260,0.00130314,-0.06143
 857,0.00002633,0.01282840,0.14051061,-0.01696874,0.02189244,0.00763598
 ,-0.06402215,-0.02464748,0.00348256,-0.27548339,0.12532802,0.03282856,
 0.63667379,0.03118408,-0.03684494,-0.01674458,0.02463067,0.05235290,-0
 .00427586,0.06617556,-0.17302057,0.00126450,-0.00841075,0.65832153,0.0
 0340473,-0.00187830,-0.00203731,-0.00349353,-0.00428495,0.00423591,0.0
 5277645,-0.01742516,-0.06142056,-0.14167986,-0.04707493,0.19211252,-0.
 07520761,0.03724738,0.02616521,-0.01697168,-0.03118978,-0.00340979,0.0
 3151283,0.02564247,-0.00319899,-0.09974129,0.06393403,0.02441104,0.363
 10307,-0.03724847,0.02793623,0.02045994,-0.02188620,-0.03684263,-0.001
 88884,0.05496413,-0.02130362,-0.00809781,-0.00535818,-0.31501754,0.014
 19661,-0.13297309,0.58539917,-0.02616437,0.02046762,0.00550316,-0.0076
 3677,-0.01675004,-0.00205772,0.01335777,-0.00783018,0.00419594,0.01379
 326,0.02140482,-0.07156177,-0.21596258,-0.10384626,0.41992359,-0.00451
 724,0.00099584,0.00215482,-0.00127143,-0.00130502,0.00008855,0.0036086
 0,-0.00014401,0.00369892,0.00137509,0.00100620,-0.00087126,-0.22615961
 ,0.08704815,0.11284989,0.23113158,-0.00126691,0.00041215,0.00149905,-0
 .00125354,-0.00041222,0.00015292,-0.00111678,-0.00614197,-0.00012938,0
 .03092135,-0.00850575,-0.01420931,0.07966287,-0.09164012,-0.04262494,-
 0.09476026,0.09724206,-0.00078102,0.00170997,0.00182676,-0.00172693,0.
 00012600,0.00021921,0.00069514,-0.00030726,0.00361134,-0.00062170,0.00
 402839,0.00123774,0.10290722,-0.04556529,-0.10513333,-0.12058209,0.046
 99737,0.10661759,0.00748073,-0.00484802,-0.01150611,0.00344300,0.00861
 300,0.00107522,-0.01052740,0.00040031,-0.00217196,0.00467205,-0.013367
 32,-0.00196808,-0.04331448,-0.01395901,0.06901599,-0.00527701,-0.01362
 103,0.02144186,0.06791303,0.00309864,-0.00062210,-0.00239304,0.0003749
 3,0.00233218,0.00136819,-0.00475011,-0.00018491,-0.00189161,-0.0073507
 6,-0.01947338,0.02498117,-0.02349635,-0.11137083,0.11844182,0.00319733
 ,0.00756855,-0.01033775,0.03295410,0.12314425,0.00893445,-0.00364382,-
 0.00342456,0.00255760,0.00545874,0.00038711,-0.00611337,-0.00032268,-0
 .00045969,-0.00021262,-0.01109202,0.00515130,0.07706836,0.12887188,-0.
 23482058,0.00207733,0.00654893,-0.01004971,-0.06742629,-0.12797400,0.2
 5039376,0.00185813,-0.00198666,-0.00067997,0.00000423,0.00547593,0.002
 94515,-0.02474144,-0.01483567,0.01012032,-0.20867932,-0.11472126,0.083
 10119,0.00617189,0.00685096,-0.00018811,-0.00003343,-0.00053534,-0.001
 38274,0.00113145,0.00149948,-0.00005033,0.22745720,0.00176905,-0.00116
 850,0.00020768,0.00312531,-0.00004669,0.00145261,0.01300818,0.01059808
 ,-0.00524443,-0.11347368,-0.13641750,0.04923294,-0.02052436,-0.0130625
 7,0.01530455,0.00031266,0.00127976,0.00001040,-0.00110263,-0.00463539,
 -0.00166984,0.11844776,0.14353047,0.00463814,-0.00691515,-0.00359936,0
 .00636767,0.00214106,0.00630884,-0.00685376,0.00850162,0.00099207,0.09
 460402,0.04369551,-0.07438558,0.00678758,0.00929949,0.00898464,-0.0034
 8032,-0.00074741,-0.00231572,0.00178957,0.00122562,0.00134877,-0.09147
 160,-0.05862525,0.06378535,-0.00423856,-0.00127033,-0.00249732,0.00266
 853,-0.03100639,0.00295365,-0.05824156,-0.00002525,-0.00000210,0.00266
 427,0.03101380,-0.00294911,-0.00423722,0.00126853,0.00249336,0.0000471
 2,0.00162890,0.00023634,-0.00003579,-0.00014733,-0.00019708,0.00080620
 ,-0.00039346,-0.00080274,0.06117014,-0.00289957,0.00090869,-0.00077232
 ,0.00292575,-0.01215362,0.00184850,-0.00001828,-0.33552620,0.01599742,
 -0.00292394,-0.01216489,0.00184712,0.00290034,0.00091152,-0.00076819,-
 0.00004277,-0.00081864,0.00006887,-0.00006404,-0.00005779,0.00002222,0
 .00025323,0.00100665,-0.00038617,0.00001725,0.35708687,-0.00039293,-0.
 00074355,0.00691015,0.00065361,-0.00009160,0.00082522,-0.00000638,0.02
 261949,-0.03645631,-0.00064662,-0.00009655,0.00083036,0.00039694,-0.00
 073877,0.00692819,0.00025842,0.00061749,0.00046787,0.00014535,-0.00140
 569,-0.00015896,-0.00178608,-0.00122173,-0.00369092,0.00000046,-0.0177
 4717,0.02776663,0.00617167,-0.00685431,0.00018840,-0.20856383,0.114679
 01,-0.08325343,-0.02474135,0.01482629,-0.01014437,0.00000937,-0.005479
 50,-0.00294431,0.00185905,0.00198836,0.00067743,0.00030458,0.00020813,
 0.00032092,-0.00078637,-0.00018356,-0.00049265,-0.00051766,0.00060026,
 0.00068752,0.00080574,-0.00025363,0.00178553,0.22733566,0.02051324,-0.
 01305571,0.01534049,0.11341459,-0.13639129,0.04934120,-0.01299893,0.01
 060197,-0.00525972,-0.00312769,-0.00004719,0.00145247,-0.00176738,-0.0
 0117029,0.00020624,-0.00017005,0.00000502,-0.00025073,0.00052265,0.000
 29129,-0.00009868,-0.00060026,0.00055054,0.00085472,0.00039651,0.00100
 489,-0.00122132,-0.11838973,0.14349355,-0.00677665,0.00930313,0.008976
 23,-0.09477059,0.04381035,-0.07455496,0.00685450,0.00850784,0.00098026
 ,-0.00636943,0.00214249,0.00629013,-0.00463453,-0.00690883,-0.00359420
 ,-0.00070529,-0.00008404,-0.00045352,0.00217014,0.00082880,0.00117959,
 -0.00068578,0.00085216,0.00224330,0.00080302,-0.00038540,-0.00367705,0
 .09164520,-0.05875458,0.06396859,-0.22611010,-0.08712467,-0.11285164,0
 .00138307,-0.00099948,0.00086268,0.00360957,0.00014111,-0.00370534,-0.
 00126576,0.00130314,-0.00008631,-0.00451613,-0.00099215,-0.00215355,-0
 .00068183,-0.00008426,0.00007338,-0.00052703,0.00018569,0.00120045,0.0
 0030366,0.00016992,0.00070449,0.00004664,0.00004246,-0.00025819,-0.000
 03816,-0.00031107,0.00348820,0.23107283,-0.07971512,-0.09170641,-0.042
 64297,-0.03092028,-0.00850996,-0.01420021,0.00111801,-0.00614249,-0.00
 012634,0.00125162,-0.00041192,0.00015244,0.00126640,0.00041126,0.00149
 793,0.00008427,0.00001017,-0.00047555,0.00065768,0.00027878,-0.0006424
 7,-0.00020781,0.00000492,-0.00008354,-0.00162956,-0.00081866,0.0006153
 0,0.00053671,0.00127897,-0.00075059,0.09482711,0.09730880,-0.10288549,
 -0.04557230,-0.10509724,0.00061874,0.00402807,0.00125084,-0.00069608,-
 0.00030447,0.00362110,0.00172304,0.00012895,0.00021669,0.00077942,0.00
 170667,0.00182789,-0.00007322,-0.00047585,-0.00010121,0.00099893,-0.00
 054765,0.00022160,-0.00032032,-0.00025056,-0.00045301,-0.00023572,0.00
 006928,0.00046742,0.00138894,0.00000835,-0.00232465,0.12056943,0.04701
 964,0.10657728,0.05996317,-0.05541633,-0.02833207,0.01733691,0.0686520
 8,0.00863355,-0.05150763,0.00001072,0.00000642,0.01732716,-0.06865735,
 -0.00862623,0.06003305,0.05545045,0.02840102,0.00200226,0.00087603,0.0
 0041895,-0.02259830,-0.00606640,-0.01573894,-0.00297544,-0.00141698,-0
 .01079942,-0.00141979,-0.00000103,-0.00000397,-0.00297717,0.00141717,0
 .01078372,0.00201344,-0.00088842,-0.00043887,-0.05459554,-0.00235195,-
 0.02351674,-0.00310251,0.01367376,-0.01106358,-0.00832482,-0.00000069,
 -0.00362507,-0.00063746,-0.01372628,-0.01110080,-0.00835545,0.00239117
 ,-0.02363189,-0.00310889,0.00396276,0.00072186,0.00454277,0.00449791,0
 .00214676,0.00412144,0.00017622,-0.00193072,0.00021097,-0.00000041,0.0
 0067840,0.00081574,-0.00017503,-0.00192116,0.00020886,-0.00394658,0.00
 071956,0.00452932,-0.00001831,0.07038148,0.00246530,-0.00385522,-0.026
 66900,0.00197429,0.00117932,-0.00104698,-0.00001083,-0.00068330,0.0021
 2535,-0.00198347,0.00115676,-0.00105467,-0.00237259,-0.00384284,-0.026
 76944,0.00578497,0.00309765,0.00385058,-0.01517129,-0.00271680,-0.0126
 0946,-0.00009451,0.00005016,-0.00039884,0.00000003,0.00018347,-0.00005
 547,0.00009445,0.00005172,-0.00039566,-0.00575766,0.00308494,0.0038332
 4,-0.00005498,0.00499276,0.07176780,-0.04338968,0.01401773,-0.06912864
 ,0.00468429,0.01337774,0.00196879,-0.01052814,-0.00039698,0.00217905,0
 .00343890,-0.00861129,-0.00107471,0.00746812,0.00484651,0.01151667,-0.
 00052868,-0.00065915,-0.00099932,-0.00157388,0.00068434,-0.00160690,-0
 .00078546,-0.00052203,-0.00217118,-0.00003572,0.00006423,-0.00014614,0
 .00113847,0.00110094,-0.00180251,-0.00529022,0.01361941,-0.02142881,-0
 .02260212,-0.00448258,0.01512628,0.06800413,0.02356741,-0.11139977,0.1
 1840966,0.00738801,-0.01946471,0.02497410,0.00474520,-0.00018182,-0.00
 189191,-0.00037467,0.00233007,0.00136535,-0.00309370,-0.00061866,-0.00
 239448,-0.00018508,0.00027911,-0.00054718,-0.00068360,0.00058258,0.000
 42032,0.00018343,0.00029097,0.00082853,0.00014773,-0.00005722,-0.00140
 164,-0.00150301,-0.00464059,0.00122981,-0.00321121,0.00757699,-0.01033
 945,0.00605837,0.00214190,-0.00269862,-0.03303888,0.12316115,-0.077210
 52,0.12887564,-0.23474868,0.00020743,-0.01110519,0.00513690,0.00611946
 ,-0.00032326,-0.00046450,-0.00255371,0.00546252,0.00038522,-0.00893727
 ,-0.00364595,-0.00342636,-0.00120073,-0.00064248,0.00022240,0.00160667
 ,0.00042094,0.00284084,0.00049278,-0.00009866,0.00118046,0.00019721,0.
 00002237,-0.00015713,0.00004637,-0.00167016,0.00136193,-0.00208594,0.0
 0655144,-0.01003995,0.01575083,0.00410726,-0.01257746,0.06756743,-0.12
 795448,0.25028632\\0.00013485,-0.00002830,-0.00009413,-0.00006682,0.00
 004751,0.00008385,-0.00001531,-0.00003036,0.00001642,0.00001292,-0.000
 05157,0.00003721,0.00007432,0.00005051,0.00002214,0.00001864,0.0000052
 7,0.00001705,0.00000226,0.00001307,-0.00001554,-0.00000839,-0.00001740
 ,-0.00005017,0.00000760,-0.00000177,-0.00000363,0.00001765,-0.00001945
 ,-0.00003636,-0.00001551,0.00000445,0.00001376,-0.00013485,0.00001217,
 -0.00001035,-0.00002736,0.00001588,0.00001975\\\@


 THE SOLUTION TO A PROBLEM CHANGES THE PROBLEM.

                                 -- JOHN PEERS
           PAUL DICKSON'S "THE OFFICIAL RULES"
 Job cpu time:       0 days  0 hours 19 minutes 57.7 seconds.
 Elapsed time:       0 days  0 hours  1 minutes 49.4 seconds.
 File lengths (MBytes):  RWF=     17 Int=      0 D2E=      0 Chk=      2 Scr=      1
 Normal termination of Gaussian 16 at Wed Oct  7 14:51:32 2020.
