 Entering Gaussian System, Link 0=g16
 Input=MN_11_c2h4_BH76_PM7_SE.in
 Output=MN_11_c2h4_BH76_PM7_SE.log
 Initial command:
 /udrive/faculty/rpeverati/g16/g16/l1.exe "/udrive/scratch-directories/gaussian09/rpeverati/Gau-3960.inp" -scrdir="/udrive/scratch-directories/gaussian09/rpeverati/"
 Entering Link 1 = /udrive/faculty/rpeverati/g16/g16/l1.exe PID=      3961.
  
 Copyright (c) 1988,1990,1992,1993,1995,1998,2003,2009,2016,
            Gaussian, Inc.  All Rights Reserved.
  
 This is part of the Gaussian(R) 16 program.  It is based on
 the Gaussian(R) 09 system (copyright 2009, Gaussian, Inc.),
 the Gaussian(R) 03 system (copyright 2003, Gaussian, Inc.),
 the Gaussian(R) 98 system (copyright 1998, Gaussian, Inc.),
 the Gaussian(R) 94 system (copyright 1995, Gaussian, Inc.),
 the Gaussian 92(TM) system (copyright 1992, Gaussian, Inc.),
 the Gaussian 90(TM) system (copyright 1990, Gaussian, Inc.),
 the Gaussian 88(TM) system (copyright 1988, Gaussian, Inc.),
 the Gaussian 86(TM) system (copyright 1986, Carnegie Mellon
 University), and the Gaussian 82(TM) system (copyright 1983,
 Carnegie Mellon University). Gaussian is a federally registered
 trademark of Gaussian, Inc.
  
 This software contains proprietary and confidential information,
 including trade secrets, belonging to Gaussian, Inc.
  
 This software is provided under written license and may be
 used, copied, transmitted, or stored only in accord with that
 written license.
  
 The following legend is applicable only to US Government
 contracts under FAR:
  
                    RESTRICTED RIGHTS LEGEND
  
 Use, reproduction and disclosure by the US Government is
 subject to restrictions as set forth in subparagraphs (a)
 and (c) of the Commercial Computer Software - Restricted
 Rights clause in FAR 52.227-19.
  
 Gaussian, Inc.
 340 Quinnipiac St., Bldg. 40, Wallingford CT 06492
  
  
 ---------------------------------------------------------------
 Warning -- This program may not be used in any manner that
 competes with the business of Gaussian, Inc. or will provide
 assistance to any competitor of Gaussian, Inc.  The licensee
 of this program is prohibited from giving any competitor of
 Gaussian, Inc. access to this program.  By using this program,
 the user acknowledges that Gaussian, Inc. is engaged in the
 business of creating and licensing software in the field of
 computational chemistry and represents and warrants to the
 licensee that it is not a competitor of Gaussian, Inc. and that
 it will not use this program in any manner prohibited above.
 ---------------------------------------------------------------
  

 Cite this work as:
 Gaussian 16, Revision A.03,
 M. J. Frisch, G. W. Trucks, H. B. Schlegel, G. E. Scuseria, 
 M. A. Robb, J. R. Cheeseman, G. Scalmani, V. Barone, 
 G. A. Petersson, H. Nakatsuji, X. Li, M. Caricato, A. V. Marenich, 
 J. Bloino, B. G. Janesko, R. Gomperts, B. Mennucci, H. P. Hratchian, 
 J. V. Ortiz, A. F. Izmaylov, J. L. Sonnenberg, D. Williams-Young, 
 F. Ding, F. Lipparini, F. Egidi, J. Goings, B. Peng, A. Petrone, 
 T. Henderson, D. Ranasinghe, V. G. Zakrzewski, J. Gao, N. Rega, 
 G. Zheng, W. Liang, M. Hada, M. Ehara, K. Toyota, R. Fukuda, 
 J. Hasegawa, M. Ishida, T. Nakajima, Y. Honda, O. Kitao, H. Nakai, 
 T. Vreven, K. Throssell, J. A. Montgomery, Jr., J. E. Peralta, 
 F. Ogliaro, M. J. Bearpark, J. J. Heyd, E. N. Brothers, K. N. Kudin, 
 V. N. Staroverov, T. A. Keith, R. Kobayashi, J. Normand, 
 K. Raghavachari, A. P. Rendell, J. C. Burant, S. S. Iyengar, 
 J. Tomasi, M. Cossi, J. M. Millam, M. Klene, C. Adamo, R. Cammi, 
 J. W. Ochterski, R. L. Martin, K. Morokuma, O. Farkas, 
 J. B. Foresman, and D. J. Fox, Gaussian, Inc., Wallingford CT, 2016.
 
 ******************************************
 Gaussian 16:  ES64L-G16RevA.03 25-Dec-2016
                21-Oct-2020 
 ******************************************
 %NoSave
 %nproc=12
 Will use up to   12 processors via shared memory.
 %mem=20GB
 %chk=MN_11_c2h4_BH76_PM7_SE
 ----------------------------------------------------------------------
 #P Opt(MaxCyc=150) PM7 5D 7F Integral=UltraFineGrid SCF=(NoSymm,XQC,Ma
 xCyc=120) IOp(1/33=1)
 ----------------------------------------------------------------------
 1/6=150,18=20,19=15,26=1,33=1,38=1/1,3;
 2/9=110,12=2,17=6,18=5,40=1/2;
 3/5=2,8=11,25=1,41=4200000,71=1,75=-5/1,2,3;
 4/9=2,35=1/1;
 5/5=2,7=120,8=3,13=1,35=1,38=5/2,8;
 6/7=2,8=2,9=2,10=2,28=1/1;
 7//1,2,3,16;
 1/6=150,18=20,19=15,26=1,33=1/3(2);
 2/9=110/2;
 99//99;
 2/9=110/2;
 3/5=2,8=11,25=1,41=4200000,71=1,75=-5,135=20/1,2,3;
 4/5=5,9=2,16=3,35=1/1;
 5/5=2,7=120,8=3,13=1,35=1,38=5/2,8;
 7//1,2,3,16;
 1/6=150,18=20,19=15,26=1,33=1/3(-5);
 2/9=110/2;
 6/7=2,8=2,9=2,10=2,19=2,28=1/1;
 99/9=1/99;
 Leave Link    1 at Wed Oct 21 14:32:19 2020, MaxMem=  2684354560 cpu:              12.3 elap:               1.2
 (Enter /udrive/faculty/rpeverati/g16/g16/l101.exe)
 ONIOM data not found on unit 2.
 ------------------
 TS search on BH76.
 ------------------
 TstMul:  ICh=     0
 TstMul:  Mul=     1
 TstMul:  ICh=     0
 TstMul:  Mul=     1
 Symbolic Z-matrix:
 Charge =  0 Multiplicity = 1
 C                     0.        0.        0.66559 
 C                     0.        0.       -0.66559 
 H                     0.        0.92149   1.23167 
 H                     0.       -0.92149   1.23167 
 H                     0.        0.92149  -1.23167 
 H                     0.       -0.92149  -1.23167 
 
 RdStrC is calling ZToCFu for IStruc=1 NZ=     6.
 PrtBox:  NBox=     1 Levels=  1 BoxLen=    8.00 SMaxX=        4.66
          Shift=            0.000000            1.741370            2.327520
 Box      1 Number                   0 centers from      1 to      6:
 After GenITR:
 ITRead=  0  0  0  0  0  0
 MicOpt= -1 -1 -1 -1 -1 -1
 ITRead=  0  0  0  0  0  0
 MicOpt= -1 -1 -1 -1 -1 -1
 NAtoms=      6 NQM=        6 NQMF=       0 NMMI=      0 NMMIF=      0
                NMic=       0 NMicF=      0.
                    Isotopes and Nuclear Properties:
 (Nuclear quadrupole moments (NQMom) in fm**2, nuclear magnetic moments (NMagM)
  in nuclear magnetons)

  Atom         1           2           3           4           5           6
 IAtWgt=          12          12           1           1           1           1
 AtmWgt=  12.0000000  12.0000000   1.0078250   1.0078250   1.0078250   1.0078250
 NucSpn=           0           0           1           1           1           1
 AtZEff=   0.0000000   0.0000000   0.0000000   0.0000000   0.0000000   0.0000000
 NQMom=    0.0000000   0.0000000   0.0000000   0.0000000   0.0000000   0.0000000
 NMagM=    0.0000000   0.0000000   2.7928460   2.7928460   2.7928460   2.7928460
 AtZNuc=   6.0000000   6.0000000   1.0000000   1.0000000   1.0000000   1.0000000
 No MM parameters found.
 Leave Link  101 at Wed Oct 21 14:32:20 2020, MaxMem=  2684354560 cpu:               3.7 elap:               0.7
 (Enter /udrive/faculty/rpeverati/g16/g16/l103.exe)

 GradGradGradGradGradGradGradGradGradGradGradGradGradGradGradGradGradGrad
 Berny optimization.
 Optmz: redundant internal coordinate code flag= 1
 Initialization pass.
                           ----------------------------
                           !    Initial Parameters    !
                           ! (Angstroms and Degrees)  !
 --------------------------                            --------------------------
 ! Name  Definition              Value          Derivative Info.                !
 --------------------------------------------------------------------------------
 ! R1    R(1,2)                  1.3312         estimate D2E/DX2                !
 ! R2    R(1,3)                  1.0815         estimate D2E/DX2                !
 ! R3    R(1,4)                  1.0815         estimate D2E/DX2                !
 ! R4    R(2,5)                  1.0815         estimate D2E/DX2                !
 ! R5    R(2,6)                  1.0815         estimate D2E/DX2                !
 ! A1    A(2,1,3)              121.5626         estimate D2E/DX2                !
 ! A2    A(2,1,4)              121.5626         estimate D2E/DX2                !
 ! A3    A(3,1,4)              116.8749         estimate D2E/DX2                !
 ! A4    A(1,2,5)              121.5626         estimate D2E/DX2                !
 ! A5    A(1,2,6)              121.5626         estimate D2E/DX2                !
 ! A6    A(5,2,6)              116.8749         estimate D2E/DX2                !
 ! D1    D(3,1,2,5)              0.0            estimate D2E/DX2                !
 ! D2    D(3,1,2,6)            180.0            estimate D2E/DX2                !
 ! D3    D(4,1,2,5)            180.0            estimate D2E/DX2                !
 ! D4    D(4,1,2,6)              0.0            estimate D2E/DX2                !
 --------------------------------------------------------------------------------
 Maximum allowed force set to 1.00D+20.
 Trust Radius=3.00D-01 FncErr=1.00D-07 GrdErr=1.00D-07 EigMax=2.50D+02 EigMin=1.00D-04
 Number of steps in this run=    100 maximum allowed number of steps=    100.
 GradGradGradGradGradGradGradGradGradGradGradGradGradGradGradGradGradGrad

 Leave Link  103 at Wed Oct 21 14:32:21 2020, MaxMem=  2684354560 cpu:               2.0 elap:               0.7
 (Enter /udrive/faculty/rpeverati/g16/g16/l202.exe)
                          Input orientation:                          
 ---------------------------------------------------------------------
 Center     Atomic      Atomic             Coordinates (Angstroms)
 Number     Number       Type             X           Y           Z
 ---------------------------------------------------------------------
      1          6           0        0.000000    0.000000    0.665594
      2          6           0        0.000000    0.000000   -0.665594
      3          1           0        0.000000    0.921493    1.231671
      4          1           0        0.000000   -0.921493    1.231671
      5          1           0        0.000000    0.921493   -1.231671
      6          1           0        0.000000   -0.921493   -1.231671
 ---------------------------------------------------------------------
                    Distance matrix (angstroms):
                    1          2          3          4          5
     1  C    0.000000
     2  C    1.331188   0.000000
     3  H    1.081477   2.109209   0.000000
     4  H    1.081477   2.109209   1.842987   0.000000
     5  H    2.109209   1.081477   2.463341   3.076467   0.000000
     6  H    2.109209   1.081477   3.076467   2.463341   1.842987
                    6
     6  H    0.000000
 Stoichiometry    C2H4
 Framework group  D2H[C2"(C.C),SG(H4)]
 Deg. of freedom     3
 Full point group                 D2H     NOp   8
 Largest Abelian subgroup         D2H     NOp   8
 Largest concise Abelian subgroup D2      NOp   4
                         Standard orientation:                         
 ---------------------------------------------------------------------
 Center     Atomic      Atomic             Coordinates (Angstroms)
 Number     Number       Type             X           Y           Z
 ---------------------------------------------------------------------
      1          6           0        0.000000    0.000000    0.665594
      2          6           0        0.000000    0.000000   -0.665594
      3          1           0        0.000000    0.921493    1.231671
      4          1           0       -0.000000   -0.921493    1.231671
      5          1           0        0.000000    0.921493   -1.231671
      6          1           0       -0.000000   -0.921493   -1.231671
 ---------------------------------------------------------------------
 Rotational constants (GHZ):         147.6344406          30.1756739          25.0546419
 Leave Link  202 at Wed Oct 21 14:32:22 2020, MaxMem=  2684354560 cpu:               1.9 elap:               0.8
 (Enter /udrive/faculty/rpeverati/g16/g16/l301.exe)
 Standard basis: VSTO-6G (5D, 7F)
 Ernie: Thresh=  0.10000D-02 Tol=  0.10000D-05 Strict=F.
 EHB=         0.000000000 Number of Hydrogen Bonds=     0
  NNHCO=     0 NNPyr=     0 NCTC=     0               EPep=         0.000000000
    EC=        15.090412915  ECS=         0.959628149   EG=         0.148547535
   EHC=         0.000206410  EAt=       -10.130385707  AtH=         0.876780387
 EPDDG=         0.000000000  ECC=        16.198795010 EAtT=        11.007166095
  EHyb=         0.000000000
 There are     3 symmetry adapted cartesian basis functions of AG  symmetry.
 There are     0 symmetry adapted cartesian basis functions of B1G symmetry.
 There are     1 symmetry adapted cartesian basis functions of B2G symmetry.
 There are     2 symmetry adapted cartesian basis functions of B3G symmetry.
 There are     0 symmetry adapted cartesian basis functions of AU  symmetry.
 There are     3 symmetry adapted cartesian basis functions of B1U symmetry.
 There are     2 symmetry adapted cartesian basis functions of B2U symmetry.
 There are     1 symmetry adapted cartesian basis functions of B3U symmetry.
 There are     3 symmetry adapted basis functions of AG  symmetry.
 There are     0 symmetry adapted basis functions of B1G symmetry.
 There are     1 symmetry adapted basis functions of B2G symmetry.
 There are     2 symmetry adapted basis functions of B3G symmetry.
 There are     0 symmetry adapted basis functions of AU  symmetry.
 There are     3 symmetry adapted basis functions of B1U symmetry.
 There are     2 symmetry adapted basis functions of B2U symmetry.
 There are     1 symmetry adapted basis functions of B3U symmetry.
    12 basis functions,    72 primitive gaussians,    12 cartesian basis functions
     6 alpha electrons        6 beta electrons
       nuclear repulsion energy        27.2059611040 Hartrees.
 IExCor=    0 DFT=F Ex=HF Corr=None ExCW=0 ScaHFX=  1.000000
 ScaDFX=  1.000000  1.000000  1.000000  1.000000 ScalE2=  1.000000  1.000000
 IRadAn=      5 IRanWt=     -1 IRanGd=            0 ICorTp=0 IEmpDi=251
 Integral buffers will be    131072 words long.
 Regular integral format.
 Two-electron integral symmetry is turned off.
 R6Disp:  PM7 Dispersion energy=       -0.0000568769 Hartrees.
 Nuclear repulsion after empirical dispersion term =       27.2059042272 Hartrees.
 Leave Link  301 at Wed Oct 21 14:32:23 2020, MaxMem=  2684354560 cpu:               2.0 elap:               0.7
 (Enter /udrive/faculty/rpeverati/g16/g16/l302.exe)
 Do NDO integrals.
 NPDir=0 NMtPBC=     1 NCelOv=     1 NCel=       1 NClECP=     1 NCelD=      1
         NCelK=      1 NCelE2=     1 NClLst=     1 CellRange=     0.0.
 One-electron integrals computed using PRISM.
 NBasis=    12 RedAO= T EigKep=  1.00D+00  NBF=     3     0     1     2     0     3     2     1
 NBsUse=    12 1.00D-06 EigRej= -1.00D+00 NBFU=     3     0     1     2     0     3     2     1
 Leave Link  302 at Wed Oct 21 14:32:24 2020, MaxMem=  2684354560 cpu:               2.0 elap:               0.8
 (Enter /udrive/faculty/rpeverati/g16/g16/l303.exe)
 DipDrv:  MaxL=1.
 Leave Link  303 at Wed Oct 21 14:32:26 2020, MaxMem=  2684354560 cpu:               1.9 elap:               0.9
 (Enter /udrive/faculty/rpeverati/g16/g16/l401.exe)
 SCF N**3 symmetry information disabled.
 Simple Huckel Guess.
 JPrj=0 DoOrth=F DoCkMO=F.
 Initial guess orbital symmetries:
       Occupied  (AG) (B1U) (B2U) (AG) (B3G) (B3U)
       Virtual   (B2G) (B2U) (B1U) (B3G) (AG) (B1U)
 The electronic state of the initial guess is 1-AG.
 Leave Link  401 at Wed Oct 21 14:32:27 2020, MaxMem=  2684354560 cpu:               2.5 elap:               0.8
 (Enter /udrive/faculty/rpeverati/g16/g16/l502.exe)
 Keep J ints in memory in canonical form, NReq=859449.
 FoFCou: FMM=F IPFlag=           0 FMFlag=           0 FMFlg1=           0
         NFxFlg=           0 DoJE=F BraDBF=F KetDBF=F FulRan=T
         wScrn=  0.000000 ICntrl=       600 IOpCl=  2 I1Cent=           0 NGrid=           0
         NMat0=    1 NMatS0=     24 NMatT0=    0 NMatD0=    1 NMtDS0=    0 NMtDT0=    0
 Symmetry not used in FoFCou.
 Two-electron integral symmetry not used.
 Closed shell SCF:
 Using DIIS extrapolation, IDIIS=  1040.
 Overlap will be assumed to be unity.
 NGot=  2684354560 LenX=  2684293808 LenY=  2684292926
 Requested convergence on RMS density matrix=1.00D-08 within 120 cycles.
 Requested convergence on MAX density matrix=1.00D-06.
 Requested convergence on             energy=1.00D-06.
 No special actions if energy rises.

 Cycle   1  Pass 1  IDiag  1:
 E= 0.537300564411751E-01
 DIIS: error= 2.05D-02 at cycle   1 NSaved=   1.
 NSaved= 1 IEnMin= 1 EnMin= 0.537300564411751E-01 IErMin= 1 ErrMin= 2.05D-02
 ErrMax= 2.05D-02  0.00D+00 EMaxC= 1.00D-01 BMatC= 1.04D-02 BMatP= 1.04D-02
 IDIUse=3 WtCom= 7.95D-01 WtEn= 2.05D-01
 Coeff-Com:  0.100D+01
 Coeff-En:   0.100D+01
 Coeff:      0.100D+01
 GapD=    2.000 DampG=2.000 DampE=0.500 DampFc=1.0000 IDamp=-1.
 RMSDP=1.28D-02 MaxDP=5.23D-02              OVMax= 0.00D+00

 Cycle   2  Pass 1  IDiag  1:
 E= 0.257038559279117E-01 Delta-E=       -0.028026200513 Rises=F Damp=F
 DIIS: error= 5.42D-03 at cycle   2 NSaved=   2.
 NSaved= 2 IEnMin= 2 EnMin= 0.257038559279117E-01 IErMin= 2 ErrMin= 5.42D-03
 ErrMax= 5.42D-03  0.00D+00 EMaxC= 1.00D-01 BMatC= 8.55D-04 BMatP= 1.04D-02
 IDIUse=3 WtCom= 9.46D-01 WtEn= 5.42D-02
 Coeff-Com: -0.380D+00 0.138D+01
 Coeff-En:   0.000D+00 0.100D+01
 Coeff:     -0.360D+00 0.136D+01
 RMSDP=5.29D-03 MaxDP=2.13D-02 DE=-2.80D-02 OVMax= 0.00D+00

 Cycle   3  Pass 1  IDiag  3:
 E= 0.229286030145062E-01 Delta-E=       -0.002775252913 Rises=F Damp=F
 DIIS: error= 6.23D-04 at cycle   3 NSaved=   3.
 NSaved= 3 IEnMin= 3 EnMin= 0.229286030145062E-01 IErMin= 3 ErrMin= 6.23D-04
 ErrMax= 6.23D-04  0.00D+00 EMaxC= 1.00D-01 BMatC= 1.41D-05 BMatP= 8.55D-04
 IDIUse=3 WtCom= 9.94D-01 WtEn= 6.23D-03
 Coeff-Com:  0.264D+00-0.100D+01 0.174D+01
 Coeff-En:   0.000D+00 0.000D+00 0.100D+01
 Coeff:      0.263D+00-0.995D+00 0.173D+01
 Gap=     0.432 Goal=   None    Shift=    0.000
 RMSDP=9.90D-04 MaxDP=3.72D-03 DE=-2.78D-03 OVMax= 5.43D-03

 Cycle   4  Pass 1  IDiag  3:
 E= 0.228621424465736E-01 Delta-E=       -0.000066460568 Rises=F Damp=F
 DIIS: error= 6.45D-05 at cycle   4 NSaved=   4.
 NSaved= 4 IEnMin= 4 EnMin= 0.228621424465736E-01 IErMin= 4 ErrMin= 6.45D-05
 ErrMax= 6.45D-05  0.00D+00 EMaxC= 1.00D-01 BMatC= 1.49D-07 BMatP= 1.41D-05
 IDIUse=1 WtCom= 1.00D+00 WtEn= 0.00D+00
 Coeff-Com: -0.930D-01 0.356D+00-0.681D+00 0.142D+01
 Coeff:     -0.930D-01 0.356D+00-0.681D+00 0.142D+01
 Gap=     0.432 Goal=   None    Shift=    0.000
 RMSDP=9.16D-05 MaxDP=3.71D-04 DE=-6.65D-05 OVMax= 3.77D-04

 Cycle   5  Pass 1  IDiag  3:
 E= 0.228615411463373E-01 Delta-E=       -0.000000601300 Rises=F Damp=F
 DIIS: error= 9.12D-06 at cycle   5 NSaved=   5.
 NSaved= 5 IEnMin= 5 EnMin= 0.228615411463373E-01 IErMin= 5 ErrMin= 9.12D-06
 ErrMax= 9.12D-06  0.00D+00 EMaxC= 1.00D-01 BMatC= 1.91D-09 BMatP= 1.49D-07
 IDIUse=1 WtCom= 1.00D+00 WtEn= 0.00D+00
 Coeff-Com:  0.308D-03-0.181D-02 0.151D-01-0.144D+00 0.113D+01
 Coeff:      0.308D-03-0.181D-02 0.151D-01-0.144D+00 0.113D+01
 Gap=     0.432 Goal=   None    Shift=    0.000
 RMSDP=8.14D-06 MaxDP=2.89D-05 DE=-6.01D-07 OVMax= 4.23D-05

 Cycle   6  Pass 1  IDiag  3:
 E= 0.228615343519074E-01 Delta-E=       -0.000000006794 Rises=F Damp=F
 DIIS: error= 1.19D-06 at cycle   6 NSaved=   6.
 NSaved= 6 IEnMin= 6 EnMin= 0.228615343519074E-01 IErMin= 6 ErrMin= 1.19D-06
 ErrMax= 1.19D-06  0.00D+00 EMaxC= 1.00D-01 BMatC= 5.34D-11 BMatP= 1.91D-09
 IDIUse=1 WtCom= 1.00D+00 WtEn= 0.00D+00
 Coeff-Com:  0.331D-03-0.107D-02-0.142D-02 0.363D-01-0.401D+00 0.137D+01
 Coeff:      0.331D-03-0.107D-02-0.142D-02 0.363D-01-0.401D+00 0.137D+01
 Gap=     0.432 Goal=   None    Shift=    0.000
 RMSDP=1.62D-06 MaxDP=5.54D-06 DE=-6.79D-09 OVMax= 1.10D-05

 Cycle   7  Pass 1  IDiag  3:
 E= 0.228615341491967E-01 Delta-E=       -0.000000000203 Rises=F Damp=F
 DIIS: error= 1.15D-07 at cycle   7 NSaved=   7.
 NSaved= 7 IEnMin= 7 EnMin= 0.228615341491967E-01 IErMin= 7 ErrMin= 1.15D-07
 ErrMax= 1.15D-07  0.00D+00 EMaxC= 1.00D-01 BMatC= 3.74D-13 BMatP= 5.34D-11
 IDIUse=1 WtCom= 1.00D+00 WtEn= 0.00D+00
 Coeff-Com:  0.322D-04-0.217D-03 0.203D-02-0.199D-01 0.196D+00-0.666D+00
 Coeff-Com:  0.149D+01
 Coeff:      0.322D-04-0.217D-03 0.203D-02-0.199D-01 0.196D+00-0.666D+00
 Coeff:      0.149D+01
 Gap=     0.432 Goal=   None    Shift=    0.000
 RMSDP=1.49D-07 MaxDP=6.78D-07 DE=-2.03D-10 OVMax= 1.13D-06

 Cycle   8  Pass 1  IDiag  3:
 E= 0.228615341477116E-01 Delta-E=       -0.000000000001 Rises=F Damp=F
 DIIS: error= 2.43D-09 at cycle   8 NSaved=   8.
 NSaved= 8 IEnMin= 8 EnMin= 0.228615341477116E-01 IErMin= 8 ErrMin= 2.43D-09
 ErrMax= 2.43D-09  0.00D+00 EMaxC= 1.00D-01 BMatC= 1.14D-16 BMatP= 3.74D-13
 IDIUse=1 WtCom= 1.00D+00 WtEn= 0.00D+00
 Coeff-Com: -0.153D-04 0.118D-03-0.125D-02 0.125D-01-0.123D+00 0.422D+00
 Coeff-Com: -0.945D+00 0.163D+01
 Coeff:     -0.153D-04 0.118D-03-0.125D-02 0.125D-01-0.123D+00 0.422D+00
 Coeff:     -0.945D+00 0.163D+01
 Gap=     0.432 Goal=   None    Shift=    0.000
 RMSDP=2.64D-09 MaxDP=1.19D-08 DE=-1.49D-12 OVMax= 1.53D-08

 Cycle   9  Pass 2  IDiag  1:
 SCF Done:  E(RPM7) =  0.228615341477E-01 A.U. after    9 cycles
            NFock=  8  Conv=0.26D-08     -V/T= 1.0013
 KE=-1.742472933559D+01 PE=-2.955069374297D+01 EE= 1.979238038551D+01
 Leave Link  502 at Wed Oct 21 14:32:29 2020, MaxMem=  2684354560 cpu:               6.3 elap:               1.2
 (Enter /udrive/faculty/rpeverati/g16/g16/l508.exe)
 QCSCF skips out because SCF is already converged.
 Leave Link  508 at Wed Oct 21 14:32:30 2020, MaxMem=  2684354560 cpu:               0.8 elap:               0.6
 (Enter /udrive/faculty/rpeverati/g16/g16/l601.exe)
 Copying SCF densities to generalized density rwf, IOpCl= 0 IROHF=0.

 **********************************************************************

            Population analysis using the SCF density.

 **********************************************************************

 Orbital symmetries:
       Occupied  (AG) (B1U) (B2U) (AG) (B3G) (B3U)
       Virtual   (B2G) (B2U) (B1U) (AG) (B1U) (B3G)
 The electronic state is 1-AG.
 Alpha  occ. eigenvalues --   -0.98886  -0.73846  -0.60040  -0.52565  -0.44698
 Alpha  occ. eigenvalues --   -0.39498
 Alpha virt. eigenvalues --    0.03679   0.20126   0.20624   0.23492   0.23739
 Alpha virt. eigenvalues --    0.23846
          Condensed to atoms (all electrons):
               1          2          3          4          5          6
     1  C    4.282849   0.000000   0.000000   0.000000   0.000000   0.000000
     2  C    0.000000   4.282849   0.000000   0.000000   0.000000   0.000000
     3  H    0.000000   0.000000   0.858576   0.000000   0.000000   0.000000
     4  H    0.000000   0.000000   0.000000   0.858576   0.000000   0.000000
     5  H    0.000000   0.000000   0.000000   0.000000   0.858576   0.000000
     6  H    0.000000   0.000000   0.000000   0.000000   0.000000   0.858576
 Mulliken charges:
               1
     1  C   -0.282849
     2  C   -0.282849
     3  H    0.141424
     4  H    0.141424
     5  H    0.141424
     6  H    0.141424
 Sum of Mulliken charges =   0.00000
 Mulliken charges with hydrogens summed into heavy atoms:
               1
     1  C    0.000000
     2  C   -0.000000
 Charge=              0.0000 electrons
 Dipole moment (field-independent basis, Debye):
    X=             -0.0000    Y=             -0.0000    Z=              0.0000  Tot=              0.0000
 N-N= 2.720590422719D+01 E-N=-2.955069373724D+01  KE=-1.742472933559D+01
 Leave Link  601 at Wed Oct 21 14:32:31 2020, MaxMem=  2684354560 cpu:               2.4 elap:               0.8
 (Enter /udrive/faculty/rpeverati/g16/g16/l701.exe)
 ... and contract with generalized density number  0.
 Compute integral first derivatives.
 R6Disp: Adding PM7 dispersion energy 1st derivatives to the gradient.
 Leave Link  701 at Wed Oct 21 14:32:32 2020, MaxMem=  2684354560 cpu:               2.7 elap:               0.8
 (Enter /udrive/faculty/rpeverati/g16/g16/l702.exe)
 L702 exits ... SP integral derivatives will be done elsewhere.
 Leave Link  702 at Wed Oct 21 14:32:33 2020, MaxMem=  2684354560 cpu:               1.3 elap:               0.6
 (Enter /udrive/faculty/rpeverati/g16/g16/l703.exe)
 Integral derivatives from FoFJK, PRISM(SPDF).
 Compute integral first derivatives, UseDBF=F ICtDFT=           0.
 Calling FoFJK, ICntrl=      2127 FMM=F ISym2X=1 I1Cent= 0 IOpClX= 0 NMat=1 NMatS=1 NMatT=0.
 FoFJK:  IHMeth=43 ICntrl=    2127 DoSepK=F KAlg= 0 I1Cent=           0 FoldK=F
 IRaf=         0 NMat=       1 IRICut=       1 DoRegI=T DoRafI=F ISym2E= 1 IDoP0=3 IntGTp=3.
 FoFCou: FMM=F IPFlag=           0 FMFlag=      100000 FMFlg1=         800
         NFxFlg=           0 DoJE=F BraDBF=F KetDBF=F FulRan=T
         wScrn=  0.000000 ICntrl=      2127 IOpCl=  0 I1Cent=           0 NGrid=           0
         NMat0=    1 NMatS0=      1 NMatT0=    0 NMatD0=    1 NMtDS0=    0 NMtDT0=    0
 Petite list used in FoFCou.
 Leave Link  703 at Wed Oct 21 14:32:35 2020, MaxMem=  2684354560 cpu:               1.8 elap:               0.9
 (Enter /udrive/faculty/rpeverati/g16/g16/l716.exe)
 Dipole        =-3.07014531D-16-8.88178420D-16 6.21724894D-15
 ***** Axes restored to original set *****
 -------------------------------------------------------------------
 Center     Atomic                   Forces (Hartrees/Bohr)
 Number     Number              X              Y              Z
 -------------------------------------------------------------------
      1        6          -0.000000000    0.000000000   -0.002482841
      2        6          -0.000000000   -0.000000000    0.002482841
      3        1           0.000000000   -0.003610126    0.003986496
      4        1           0.000000000    0.003610126    0.003986496
      5        1           0.000000000   -0.003610126   -0.003986496
      6        1           0.000000000    0.003610126   -0.003986496
 -------------------------------------------------------------------
 Cartesian Forces:  Max     0.003986496 RMS     0.002666976
 Leave Link  716 at Wed Oct 21 14:32:36 2020, MaxMem=  2684354560 cpu:               1.6 elap:               0.6
 (Enter /udrive/faculty/rpeverati/g16/g16/l103.exe)

 GradGradGradGradGradGradGradGradGradGradGradGradGradGradGradGradGradGrad
 Berny optimization.
 Optmz: redundant internal coordinate code flag= 1
 FormGI is forming the generalized inverse of G from B-inverse, IUseBI=4.
 Internal  Forces:  Max     0.007202550 RMS     0.003556101
 Search for a local minimum.
 Step number   1 out of a maximum of  100
 All quantities printed in internal units (Hartrees-Bohrs-Radians)
 RMS Force = .35561D-02 SwitMx=.10000D-02 MixMth= 1
 Mixed Optimization -- RFO/linear search
 Second derivative matrix not updated -- first step.
 The second derivative matrix:
                          R1        R2        R3        R4        R5
           R1           0.59226
           R2           0.00000   0.35816
           R3           0.00000   0.00000   0.35816
           R4           0.00000   0.00000   0.00000   0.35816
           R5           0.00000   0.00000   0.00000   0.00000   0.35816
           A1           0.00000   0.00000   0.00000   0.00000   0.00000
           A2           0.00000   0.00000   0.00000   0.00000   0.00000
           A3           0.00000   0.00000   0.00000   0.00000   0.00000
           A4           0.00000   0.00000   0.00000   0.00000   0.00000
           A5           0.00000   0.00000   0.00000   0.00000   0.00000
           A6           0.00000   0.00000   0.00000   0.00000   0.00000
           D1           0.00000   0.00000   0.00000   0.00000   0.00000
           D2           0.00000   0.00000   0.00000   0.00000   0.00000
           D3           0.00000   0.00000   0.00000   0.00000   0.00000
           D4           0.00000   0.00000   0.00000   0.00000   0.00000
                          A1        A2        A3        A4        A5
           A1           0.16000
           A2           0.00000   0.16000
           A3           0.00000   0.00000   0.16000
           A4           0.00000   0.00000   0.00000   0.16000
           A5           0.00000   0.00000   0.00000   0.00000   0.16000
           A6           0.00000   0.00000   0.00000   0.00000   0.00000
           D1           0.00000   0.00000   0.00000   0.00000   0.00000
           D2           0.00000   0.00000   0.00000   0.00000   0.00000
           D3           0.00000   0.00000   0.00000   0.00000   0.00000
           D4           0.00000   0.00000   0.00000   0.00000   0.00000
                          A6        D1        D2        D3        D4
           A6           0.16000
           D1           0.00000   0.02999
           D2           0.00000   0.00000   0.02999
           D3           0.00000   0.00000   0.00000   0.02999
           D4           0.00000   0.00000   0.00000   0.00000   0.02999
 ITU=  0
 Eigenvectors of the second derivative matrix:
                           1         2         3         4         5
     Eigenvalues --     0.02999   0.02999   0.02999   0.16000   0.16000
   1         R1        -0.00000  -0.00000  -0.00000  -0.00000   0.00000
   2         R2        -0.00000   0.00000  -0.00000  -0.00000   0.00000
   3         R3        -0.00000   0.00000  -0.00000   0.00000   0.00000
   4         R4        -0.00000  -0.00000  -0.00000  -0.00000   0.00000
   5         R5        -0.00000  -0.00000  -0.00000   0.00000  -0.00000
   6         A1         0.00000  -0.00000  -0.00000  -0.07587   0.72143
   7         A2         0.00000  -0.00000   0.00000  -0.47067  -0.49766
   8         A3        -0.00000   0.00000   0.00000   0.54654  -0.22377
   9         A4         0.00000  -0.00000   0.00000  -0.35411  -0.22247
  10         A5         0.00000   0.00000   0.00000  -0.20105   0.34314
  11         A6        -0.00000   0.00000  -0.00000   0.55516  -0.12067
  12         D1         0.45547   0.34015  -0.65333  -0.00000  -0.00000
  13         D2        -0.42499  -0.12520  -0.74412  -0.00000   0.00000
  14         D3         0.10532   0.84926   0.13293  -0.00000  -0.00000
  15         D4        -0.77514   0.38391   0.04214  -0.00000   0.00000
                           6         7         8         9        10
     Eigenvalues --     0.16000   0.16000   0.35816   0.35816   0.35816
   1         R1        -0.00000   0.00000  -0.00000   0.00000   0.00000
   2         R2        -0.00000   0.00000  -0.59030  -0.73485  -0.33399
   3         R3         0.00000   0.00000   0.08439   0.35512  -0.93054
   4         R4        -0.00000   0.00000  -0.46090   0.34254   0.06304
   5         R5         0.00000   0.00000   0.65727  -0.46536  -0.13628
   6         A1         0.19887  -0.31765   0.00000   0.00000   0.00000
   7         A2        -0.39016  -0.21273   0.00000   0.00000  -0.00000
   8         A3         0.19129   0.53038  -0.00000  -0.00000   0.00000
   9         A4         0.70103   0.01819  -0.00000   0.00000  -0.00000
  10         A5        -0.48179   0.52572   0.00000   0.00000   0.00000
  11         A6        -0.21924  -0.54391  -0.00000  -0.00000  -0.00000
  12         D1         0.00000   0.00000   0.00000   0.00000   0.00000
  13         D2         0.00000   0.00000   0.00000  -0.00000   0.00000
  14         D3         0.00000  -0.00000  -0.00000   0.00000   0.00000
  15         D4         0.00000   0.00000  -0.00000   0.00000   0.00000
                          11        12
     Eigenvalues --     0.35816   0.59226
   1         R1         0.00000  -1.00000
   2         R2        -0.00086   0.00000
   3         R3         0.02951  -0.00000
   4         R4        -0.81625   0.00000
   5         R5        -0.57694  -0.00000
   6         A1         0.00000  -0.00000
   7         A2        -0.00000   0.00000
   8         A3        -0.00000  -0.00000
   9         A4         0.00000   0.00000
  10         A5         0.00000   0.00000
  11         A6        -0.00000  -0.00000
  12         D1         0.00000   0.00000
  13         D2         0.00000   0.00000
  14         D3        -0.00000  -0.00000
  15         D4        -0.00000   0.00000
 Iter=   1 RLamda= 0.00000000D+00 Sum=-1.03451456D-03.
 Iter=   2 RLamda=-1.03451456D-03 Sum=-1.02814560D-03.
 Iter=   3 RLamda=-1.02814560D-03 Sum=-1.02818457D-03.
 Iter=   4 RLamda=-1.02818457D-03 Sum=-1.02818433D-03.
 RFO step:  Lambda=-1.02818457D-03 EMin= 2.99901184D-02
 Linear search not attempted -- first point.
 Iteration  1 RMS(Cart)=  0.02568382 RMS(Int)=  0.00026507
 Iteration  2 RMS(Cart)=  0.00026465 RMS(Int)=  0.00000000
 Iteration  3 RMS(Cart)=  0.00000000 RMS(Int)=  0.00000000
 ITry= 1 IFail=0 DXMaxC= 4.18D-02 DCOld= 1.00D+10 DXMaxT= 3.00D-01 DXLimC= 3.00D+00 Rises=F
 ClnCor:  largest displacement from symmetrization is 6.17D-15 for atom     2.
 Variable       Old X    -DE/DX   Delta X   Delta X   Delta X     New X
                                 (Linear)    (Quad)   (Total)
    R1        2.51558   0.00549   0.00000   0.00925   0.00925   2.52483
    R2        2.04370  -0.00099   0.00000  -0.00275  -0.00275   2.04094
    R3        2.04370  -0.00099   0.00000  -0.00275  -0.00275   2.04094
    R4        2.04370  -0.00099   0.00000  -0.00275  -0.00275   2.04094
    R5        2.04370  -0.00099   0.00000  -0.00275  -0.00275   2.04094
    A1        2.12167   0.00360   0.00000   0.02236   0.02236   2.14403
    A2        2.12167   0.00360   0.00000   0.02236   0.02236   2.14403
    A3        2.03985  -0.00720   0.00000  -0.04473  -0.04473   1.99512
    A4        2.12167   0.00360   0.00000   0.02236   0.02236   2.14403
    A5        2.12167   0.00360   0.00000   0.02236   0.02236   2.14403
    A6        2.03985  -0.00720   0.00000  -0.04473  -0.04473   1.99512
    D1        0.00000   0.00000   0.00000  -0.00000   0.00000   0.00000
    D2        3.14159  -0.00000   0.00000  -0.00000   0.00000   3.14159
    D3        3.14159   0.00000   0.00000   0.00000   0.00000   3.14159
    D4        0.00000  -0.00000   0.00000  -0.00000   0.00000   0.00000
         Item               Value     Threshold  Converged?
 Maximum Force            0.007203     0.000450     NO 
 RMS     Force            0.003556     0.000300     NO 
 Maximum Displacement     0.041807     0.001800     NO 
 RMS     Displacement     0.025664     0.001200     NO 
 Predicted change in Energy=-5.172373D-04
 Lowest energy point so far.  Saving SCF results.
 Largest change from initial coordinates is atom    3       0.026 Angstoms.
 GradGradGradGradGradGradGradGradGradGradGradGradGradGradGradGradGradGrad

 Leave Link  103 at Wed Oct 21 14:32:37 2020, MaxMem=  2684354560 cpu:               4.7 elap:               1.1
 (Enter /udrive/faculty/rpeverati/g16/g16/l202.exe)
                          Input orientation:                          
 ---------------------------------------------------------------------
 Center     Atomic      Atomic             Coordinates (Angstroms)
 Number     Number       Type             X           Y           Z
 ---------------------------------------------------------------------
      1          6           0       -0.000000    0.000000    0.668042
      2          6           0        0.000000    0.000000   -0.668042
      3          1           0       -0.000000    0.907379    1.253794
      4          1           0       -0.000000   -0.907379    1.253794
      5          1           0        0.000000    0.907379   -1.253794
      6          1           0        0.000000   -0.907379   -1.253794
 ---------------------------------------------------------------------
                    Distance matrix (angstroms):
                    1          2          3          4          5
     1  C    0.000000
     2  C    1.336084   0.000000
     3  H    1.080019   2.125274   0.000000
     4  H    1.080019   2.125274   1.814759   0.000000
     5  H    2.125274   1.080019   2.507587   3.095375   0.000000
     6  H    2.125274   1.080019   3.095375   2.507587   1.814759
                    6
     6  H    0.000000
 Stoichiometry    C2H4
 Framework group  D2H[C2"(C.C),SG(H4)]
 Deg. of freedom     3
 Full point group                 D2H     NOp   8
 RotChk:  IX=0 Diff= 1.99D-15
 Largest Abelian subgroup         D2H     NOp   8
 Largest concise Abelian subgroup D2      NOp   4
                         Standard orientation:                         
 ---------------------------------------------------------------------
 Center     Atomic      Atomic             Coordinates (Angstroms)
 Number     Number       Type             X           Y           Z
 ---------------------------------------------------------------------
      1          6           0       -0.000000    0.000000    0.668042
      2          6           0        0.000000    0.000000   -0.668042
      3          1           0        0.000000    0.907379    1.253794
      4          1           0       -0.000000   -0.907379    1.253794
      5          1           0        0.000000    0.907379   -1.253794
      6          1           0       -0.000000   -0.907379   -1.253794
 ---------------------------------------------------------------------
 Rotational constants (GHZ):         152.2629501          29.6445995          24.8135615
 Leave Link  202 at Wed Oct 21 14:32:38 2020, MaxMem=  2684354560 cpu:               2.4 elap:               0.6
 (Enter /udrive/faculty/rpeverati/g16/g16/l301.exe)
 Standard basis: VSTO-6G (5D, 7F)
 Ernie: Thresh=  0.10000D-02 Tol=  0.10000D-05 Strict=F.
 EHB=         0.000000000 Number of Hydrogen Bonds=     0
  NNHCO=     0 NNPyr=     0 NCTC=     0               EPep=         0.000000000
    EC=        15.061051494  ECS=         0.957047345   EG=         0.148505114
   EHC=         0.000206033  EAt=       -10.130385707  AtH=         0.876780387
 EPDDG=         0.000000000  ECC=        16.166809986 EAtT=        11.007166095
  EHyb=         0.000000000
 There are     3 symmetry adapted cartesian basis functions of AG  symmetry.
 There are     0 symmetry adapted cartesian basis functions of B1G symmetry.
 There are     1 symmetry adapted cartesian basis functions of B2G symmetry.
 There are     2 symmetry adapted cartesian basis functions of B3G symmetry.
 There are     0 symmetry adapted cartesian basis functions of AU  symmetry.
 There are     3 symmetry adapted cartesian basis functions of B1U symmetry.
 There are     2 symmetry adapted cartesian basis functions of B2U symmetry.
 There are     1 symmetry adapted cartesian basis functions of B3U symmetry.
 There are     3 symmetry adapted basis functions of AG  symmetry.
 There are     0 symmetry adapted basis functions of B1G symmetry.
 There are     1 symmetry adapted basis functions of B2G symmetry.
 There are     2 symmetry adapted basis functions of B3G symmetry.
 There are     0 symmetry adapted basis functions of AU  symmetry.
 There are     3 symmetry adapted basis functions of B1U symmetry.
 There are     2 symmetry adapted basis functions of B2U symmetry.
 There are     1 symmetry adapted basis functions of B3U symmetry.
    12 basis functions,    72 primitive gaussians,    12 cartesian basis functions
     6 alpha electrons        6 beta electrons
       nuclear repulsion energy        27.1739760803 Hartrees.
 IExCor=    0 DFT=F Ex=HF Corr=None ExCW=0 ScaHFX=  1.000000
 ScaDFX=  1.000000  1.000000  1.000000  1.000000 ScalE2=  1.000000  1.000000
 IRadAn=      5 IRanWt=     -1 IRanGd=            0 ICorTp=0 IEmpDi=251
 Integral buffers will be    131072 words long.
 Regular integral format.
 Two-electron integral symmetry is turned off.
 R6Disp:  PM7 Dispersion energy=       -0.0000579790 Hartrees.
 Nuclear repulsion after empirical dispersion term =       27.1739181013 Hartrees.
 Leave Link  301 at Wed Oct 21 14:32:40 2020, MaxMem=  2684354560 cpu:               3.8 elap:               0.8
 (Enter /udrive/faculty/rpeverati/g16/g16/l302.exe)
 Do NDO integrals.
 NPDir=0 NMtPBC=     1 NCelOv=     1 NCel=       1 NClECP=     1 NCelD=      1
         NCelK=      1 NCelE2=     1 NClLst=     1 CellRange=     0.0.
 One-electron integrals computed using PRISM.
 NBasis=    12 RedAO= T EigKep=  1.00D+00  NBF=     3     0     1     2     0     3     2     1
 NBsUse=    12 1.00D-06 EigRej= -1.00D+00 NBFU=     3     0     1     2     0     3     2     1
 Leave Link  302 at Wed Oct 21 14:32:41 2020, MaxMem=  2684354560 cpu:               2.2 elap:               0.8
 (Enter /udrive/faculty/rpeverati/g16/g16/l303.exe)
 DipDrv:  MaxL=1.
 Leave Link  303 at Wed Oct 21 14:32:42 2020, MaxMem=  2684354560 cpu:               1.8 elap:               0.8
 (Enter /udrive/faculty/rpeverati/g16/g16/l401.exe)
 Initial guess from the checkpoint file:  "MN_11_c2h4_BH76_PM7_SE.chk"
 SCF N**3 symmetry information disabled.
 B after Tr=     0.000000    0.000000   -0.000000
         Rot=    1.000000   -0.000000    0.000000    0.000000 Ang=   0.00 deg.
 Guess basis will be translated and rotated to current coordinates.
 JPrj=0 DoOrth=T DoCkMO=T.
 Initial guess orbital symmetries:
       Occupied  (AG) (B1U) (B2U) (AG) (B3G) (B3U)
       Virtual   (B2G) (B2U) (B1U) (AG) (B1U) (B3G)
 The electronic state of the initial guess is 1-AG.
 Leave Link  401 at Wed Oct 21 14:32:43 2020, MaxMem=  2684354560 cpu:               2.0 elap:               0.7
 (Enter /udrive/faculty/rpeverati/g16/g16/l502.exe)
 Keep J ints in memory in canonical form, NReq=859449.
 FoFCou: FMM=F IPFlag=           0 FMFlag=           0 FMFlg1=           0
         NFxFlg=           0 DoJE=F BraDBF=F KetDBF=F FulRan=T
         wScrn=  0.000000 ICntrl=       600 IOpCl=  2 I1Cent=           0 NGrid=           0
         NMat0=    1 NMatS0=     24 NMatT0=    0 NMatD0=    1 NMtDS0=    0 NMtDT0=    0
 Symmetry not used in FoFCou.
 Two-electron integral symmetry not used.
 Closed shell SCF:
 Using DIIS extrapolation, IDIIS=  1040.
 Overlap will be assumed to be unity.
 NGot=  2684354560 LenX=  2684293808 LenY=  2684292926
 Requested convergence on RMS density matrix=1.00D-08 within 120 cycles.
 Requested convergence on MAX density matrix=1.00D-06.
 Requested convergence on             energy=1.00D-06.
 No special actions if energy rises.

 Cycle   1  Pass 1  IDiag  1:
 E= 0.222853085218873E-01
 DIIS: error= 6.03D-04 at cycle   1 NSaved=   1.
 NSaved= 1 IEnMin= 1 EnMin= 0.222853085218873E-01 IErMin= 1 ErrMin= 6.03D-04
 ErrMax= 6.03D-04  0.00D+00 EMaxC= 1.00D-01 BMatC= 1.93D-05 BMatP= 1.93D-05
 IDIUse=3 WtCom= 9.94D-01 WtEn= 6.03D-03
 Coeff-Com:  0.100D+01
 Coeff-En:   0.100D+01
 Coeff:      0.100D+01
 RMSDP=5.94D-04 MaxDP=1.71D-03              OVMax= 0.00D+00

 Cycle   2  Pass 1  IDiag  3:
 E= 0.222269045267360E-01 Delta-E=       -0.000058403995 Rises=F Damp=F
 DIIS: error= 2.20D-04 at cycle   2 NSaved=   2.
 NSaved= 2 IEnMin= 2 EnMin= 0.222269045267360E-01 IErMin= 2 ErrMin= 2.20D-04
 ErrMax= 2.20D-04  0.00D+00 EMaxC= 1.00D-01 BMatC= 2.16D-06 BMatP= 1.93D-05
 IDIUse=3 WtCom= 9.98D-01 WtEn= 2.20D-03
 Coeff-Com: -0.473D+00 0.147D+01
 Coeff-En:   0.000D+00 0.100D+01
 Coeff:     -0.472D+00 0.147D+01
 Gap=     0.430 Goal=   None    Shift=    0.000
 RMSDP=3.07D-04 MaxDP=9.09D-04 DE=-5.84D-05 OVMax= 2.02D-03

 Cycle   3  Pass 1  IDiag  3:
 E= 0.222188912711054E-01 Delta-E=       -0.000008013256 Rises=F Damp=F
 DIIS: error= 1.71D-05 at cycle   3 NSaved=   3.
 NSaved= 3 IEnMin= 3 EnMin= 0.222188912711054E-01 IErMin= 3 ErrMin= 1.71D-05
 ErrMax= 1.71D-05  0.00D+00 EMaxC= 1.00D-01 BMatC= 1.54D-08 BMatP= 2.16D-06
 IDIUse=1 WtCom= 1.00D+00 WtEn= 0.00D+00
 Coeff-Com:  0.149D+00-0.500D+00 0.135D+01
 Coeff:      0.149D+00-0.500D+00 0.135D+01
 Gap=     0.430 Goal=   None    Shift=    0.000
 RMSDP=2.71D-05 MaxDP=7.60D-05 DE=-8.01D-06 OVMax= 2.22D-04

 Cycle   4  Pass 1  IDiag  3:
 E= 0.222188334886653E-01 Delta-E=       -0.000000057782 Rises=F Damp=F
 DIIS: error= 2.10D-06 at cycle   4 NSaved=   4.
 NSaved= 4 IEnMin= 4 EnMin= 0.222188334886653E-01 IErMin= 4 ErrMin= 2.10D-06
 ErrMax= 2.10D-06  0.00D+00 EMaxC= 1.00D-01 BMatC= 1.48D-10 BMatP= 1.54D-08
 IDIUse=1 WtCom= 1.00D+00 WtEn= 0.00D+00
 Coeff-Com: -0.918D-01 0.308D+00-0.847D+00 0.163D+01
 Coeff:     -0.918D-01 0.308D+00-0.847D+00 0.163D+01
 Gap=     0.430 Goal=   None    Shift=    0.000
 RMSDP=2.91D-06 MaxDP=1.23D-05 DE=-5.78D-08 OVMax= 1.86D-05

 Cycle   5  Pass 1  IDiag  3:
 E= 0.222188328534010E-01 Delta-E=       -0.000000000635 Rises=F Damp=F
 DIIS: error= 2.57D-07 at cycle   5 NSaved=   5.
 NSaved= 5 IEnMin= 5 EnMin= 0.222188328534010E-01 IErMin= 5 ErrMin= 2.57D-07
 ErrMax= 2.57D-07  0.00D+00 EMaxC= 1.00D-01 BMatC= 2.58D-12 BMatP= 1.48D-10
 IDIUse=1 WtCom= 1.00D+00 WtEn= 0.00D+00
 Coeff-Com:  0.547D-01-0.184D+00 0.508D+00-0.103D+01 0.165D+01
 Coeff:      0.547D-01-0.184D+00 0.508D+00-0.103D+01 0.165D+01
 Gap=     0.430 Goal=   None    Shift=    0.000
 RMSDP=4.33D-07 MaxDP=1.65D-06 DE=-6.35D-10 OVMax= 3.06D-06

 Cycle   6  Pass 1  IDiag  3:
 E= 0.222188328417587E-01 Delta-E=       -0.000000000012 Rises=F Damp=F
 DIIS: error= 1.10D-08 at cycle   6 NSaved=   6.
 NSaved= 6 IEnMin= 6 EnMin= 0.222188328417587E-01 IErMin= 6 ErrMin= 1.10D-08
 ErrMax= 1.10D-08  0.00D+00 EMaxC= 1.00D-01 BMatC= 4.20D-15 BMatP= 2.58D-12
 IDIUse=1 WtCom= 1.00D+00 WtEn= 0.00D+00
 Coeff-Com:  0.457D-02-0.154D-01 0.421D-01-0.859D-01 0.137D+00 0.917D+00
 Coeff:      0.457D-02-0.154D-01 0.421D-01-0.859D-01 0.137D+00 0.917D+00
 Gap=     0.430 Goal=   None    Shift=    0.000
 RMSDP=1.12D-08 MaxDP=3.68D-08 DE=-1.16D-11 OVMax= 7.56D-08

 Cycle   7  Pass 1  IDiag  3:
 E= 0.222188328417410E-01 Delta-E=       -0.000000000000 Rises=F Damp=F
 DIIS: error= 2.32D-09 at cycle   7 NSaved=   7.
 NSaved= 7 IEnMin= 7 EnMin= 0.222188328417410E-01 IErMin= 7 ErrMin= 2.32D-09
 ErrMax= 2.32D-09  0.00D+00 EMaxC= 1.00D-01 BMatC= 2.51D-16 BMatP= 4.20D-15
 IDIUse=1 WtCom= 1.00D+00 WtEn= 0.00D+00
 Coeff-Com: -0.179D-03 0.601D-03-0.150D-02 0.342D-02-0.633D-02-0.550D+00
 Coeff-Com:  0.155D+01
 Coeff:     -0.179D-03 0.601D-03-0.150D-02 0.342D-02-0.633D-02-0.550D+00
 Coeff:      0.155D+01
 Gap=     0.430 Goal=   None    Shift=    0.000
 RMSDP=3.33D-09 MaxDP=1.42D-08 DE=-1.78D-14 OVMax= 2.09D-08

 Cycle   8  Pass 2  IDiag  1:
 SCF Done:  E(RPM7) =  0.222188328417E-01 A.U. after    8 cycles
            NFock=  7  Conv=0.33D-08     -V/T= 1.0013
 KE=-1.741854355771D+01 PE=-2.949845808474D+01 EE= 1.976530237397D+01
 Leave Link  502 at Wed Oct 21 14:32:45 2020, MaxMem=  2684354560 cpu:               9.3 elap:               1.4
 (Enter /udrive/faculty/rpeverati/g16/g16/l508.exe)
 QCSCF skips out because SCF is already converged.
 Leave Link  508 at Wed Oct 21 14:32:46 2020, MaxMem=  2684354560 cpu:               0.9 elap:               0.8
 (Enter /udrive/faculty/rpeverati/g16/g16/l701.exe)
 ... and contract with generalized density number  0.
 Compute integral first derivatives.
 R6Disp: Adding PM7 dispersion energy 1st derivatives to the gradient.
 Leave Link  701 at Wed Oct 21 14:32:48 2020, MaxMem=  2684354560 cpu:               4.7 elap:               1.1
 (Enter /udrive/faculty/rpeverati/g16/g16/l702.exe)
 L702 exits ... SP integral derivatives will be done elsewhere.
 Leave Link  702 at Wed Oct 21 14:32:49 2020, MaxMem=  2684354560 cpu:               1.2 elap:               0.8
 (Enter /udrive/faculty/rpeverati/g16/g16/l703.exe)
 Integral derivatives from FoFJK, PRISM(SPDF).
 Compute integral first derivatives, UseDBF=F ICtDFT=           0.
 Calling FoFJK, ICntrl=      2127 FMM=F ISym2X=1 I1Cent= 0 IOpClX= 0 NMat=1 NMatS=1 NMatT=0.
 FoFJK:  IHMeth=43 ICntrl=    2127 DoSepK=F KAlg= 0 I1Cent=           0 FoldK=F
 IRaf=         0 NMat=       1 IRICut=       1 DoRegI=T DoRafI=F ISym2E= 1 IDoP0=3 IntGTp=3.
 FoFCou: FMM=F IPFlag=           0 FMFlag=      100000 FMFlg1=         800
         NFxFlg=           0 DoJE=F BraDBF=F KetDBF=F FulRan=T
         wScrn=  0.000000 ICntrl=      2127 IOpCl=  0 I1Cent=           0 NGrid=           0
         NMat0=    1 NMatS0=      1 NMatT0=    0 NMatD0=    1 NMtDS0=    0 NMtDT0=    0
 Petite list used in FoFCou.
 Leave Link  703 at Wed Oct 21 14:32:50 2020, MaxMem=  2684354560 cpu:               2.8 elap:               0.9
 (Enter /udrive/faculty/rpeverati/g16/g16/l716.exe)
 Dipole        =-3.92002426D-16 6.66133815D-16-4.44089210D-15
 ***** Axes restored to original set *****
 -------------------------------------------------------------------
 Center     Atomic                   Forces (Hartrees/Bohr)
 Number     Number              X              Y              Z
 -------------------------------------------------------------------
      1        6           0.000000000   -0.000000000   -0.009258531
      2        6          -0.000000000    0.000000000    0.009258531
      3        1           0.000000000   -0.001379730    0.001176607
      4        1           0.000000000    0.001379730    0.001176607
      5        1          -0.000000000   -0.001379730   -0.001176607
      6        1           0.000000000    0.001379730   -0.001176607
 -------------------------------------------------------------------
 Cartesian Forces:  Max     0.009258531 RMS     0.003202369
 Leave Link  716 at Wed Oct 21 14:32:51 2020, MaxMem=  2684354560 cpu:               1.2 elap:               0.5
 (Enter /udrive/faculty/rpeverati/g16/g16/l103.exe)

 GradGradGradGradGradGradGradGradGradGradGradGradGradGradGradGradGradGrad
 Berny optimization.
 Optmz: redundant internal coordinate code flag= 1
 Using GEDIIS/GDIIS optimizer.
 Red2BG:  D1=  2.88D-01 OD1=  5.42D-02 B2RMS=  0.00D+00 IAprox=0
 FormGI is forming the generalized inverse of G from B-inverse, IUseBI=4.
 Internal  Forces:  Max     0.006905317 RMS     0.002090026
 Search for a local minimum.
 Step number   2 out of a maximum of  100
 All quantities printed in internal units (Hartrees-Bohrs-Radians)
 RMS Force = .20900D-02 SwitMx=.10000D-02 MixMth= 1
 Mixed Optimization -- RFO/linear search
 Update second derivatives using D2CorX and points    1    2
 DE= -6.43D-04 DEPred=-5.17D-04 R= 1.24D+00
 TightC=F SS=  1.41D+00  RLast= 7.82D-02 DXNew= 5.0454D-01 2.3465D-01
 Trust test= 1.24D+00 RLast= 7.82D-02 DXMaxT set to 3.00D-01
 The second derivative matrix:
                          R1        R2        R3        R4        R5
           R1           0.76261
           R2          -0.00226   0.35750
           R3          -0.00226  -0.00067   0.35750
           R4          -0.00226  -0.00067  -0.00067   0.35750
           R5          -0.00226  -0.00067  -0.00067  -0.00067   0.35750
           A1           0.01980   0.00198   0.00198   0.00198   0.00198
           A2           0.01980   0.00198   0.00198   0.00198   0.00198
           A3          -0.03960  -0.00396  -0.00396  -0.00396  -0.00396
           A4           0.01980   0.00198   0.00198   0.00198   0.00198
           A5           0.01980   0.00198   0.00198   0.00198   0.00198
           A6          -0.03960  -0.00396  -0.00396  -0.00396  -0.00396
           D1           0.00000  -0.00000  -0.00000  -0.00000  -0.00000
           D2          -0.00000   0.00000   0.00000   0.00000   0.00000
           D3           0.00000  -0.00000  -0.00000  -0.00000  -0.00000
           D4           0.00000  -0.00000  -0.00000  -0.00000  -0.00000
                          A1        A2        A3        A4        A5
           A1           0.15508
           A2          -0.00492   0.15508
           A3           0.00984   0.00984   0.14033
           A4          -0.00492  -0.00492   0.00984   0.15508
           A5          -0.00492  -0.00492   0.00984  -0.00492   0.15508
           A6           0.00984   0.00984  -0.01967   0.00984   0.00984
           D1           0.00000   0.00000  -0.00000   0.00000   0.00000
           D2          -0.00000  -0.00000   0.00000  -0.00000  -0.00000
           D3           0.00000   0.00000  -0.00000   0.00000   0.00000
           D4           0.00000   0.00000  -0.00000   0.00000   0.00000
                          A6        D1        D2        D3        D4
           A6           0.14033
           D1          -0.00000   0.02999
           D2           0.00000  -0.00000   0.02999
           D3          -0.00000   0.00000  -0.00000   0.02999
           D4          -0.00000   0.00000  -0.00000   0.00000   0.02999
 ITU=  1  0
 Use linear search instead of GDIIS.
 Eigenvectors of the second derivative matrix:
                           1         2         3         4         5
     Eigenvalues --     0.02999   0.02999   0.02999   0.09318   0.16000
   1         R1        -0.00000   0.00000   0.00000  -0.10214   0.00000
   2         R2         0.00000  -0.00000  -0.00000  -0.02687   0.00000
   3         R3         0.00000  -0.00000  -0.00000  -0.02687   0.00000
   4         R4         0.00000  -0.00000  -0.00000  -0.02687   0.00000
   5         R5         0.00000  -0.00000  -0.00000  -0.02687   0.00000
   6         A1        -0.00000   0.00000   0.00000   0.28675   0.56723
   7         A2        -0.00000   0.00000   0.00000   0.28675  -0.29713
   8         A3         0.00000  -0.00000  -0.00000  -0.57349  -0.27011
   9         A4        -0.00000   0.00000   0.00000   0.28675  -0.58648
  10         A5        -0.00000   0.00000   0.00000   0.28675   0.31637
  11         A6         0.00000  -0.00000  -0.00000  -0.57349   0.27011
  12         D1         0.53412   0.64960   0.20674   0.00000  -0.00000
  13         D2         0.02755   0.08815   0.86109  -0.00000   0.00000
  14         D3         0.79442  -0.17350  -0.29798   0.00000  -0.00000
  15         D4         0.28785  -0.73495   0.35636   0.00000  -0.00000
                           6         7         8         9        10
     Eigenvalues --     0.16000   0.16000   0.35623   0.35816   0.35816
   1         R1        -0.00000  -0.00000   0.00194   0.00000   0.00000
   2         R2         0.00000  -0.00000   0.49926   0.42000   0.54556
   3         R3         0.00000  -0.00000   0.49926   0.57175  -0.51159
   4         R4        -0.00000  -0.00000   0.49926  -0.44628   0.45210
   5         R5        -0.00000   0.00000   0.49926  -0.54547  -0.48606
   6         A1        -0.03732   0.51008   0.01565   0.00000  -0.00000
   7         A2        -0.47283  -0.52104   0.01565   0.00000  -0.00000
   8         A3         0.51015   0.01095  -0.03130  -0.00000   0.00000
   9         A4         0.00568   0.48923   0.01565  -0.00000  -0.00000
  10         A5         0.50448  -0.47828   0.01565  -0.00000  -0.00000
  11         A6        -0.51015  -0.01095  -0.03130   0.00000   0.00000
  12         D1         0.00000  -0.00000   0.00000  -0.00000   0.00000
  13         D2        -0.00000  -0.00000   0.00000  -0.00000   0.00000
  14         D3         0.00000   0.00000  -0.00000  -0.00000   0.00000
  15         D4        -0.00000  -0.00000  -0.00000  -0.00000   0.00000
                          11        12
     Eigenvalues --     0.35816   0.76966
   1         R1         0.00000   0.99477
   2         R2         0.52533  -0.00373
   3         R3        -0.40172  -0.00373
   4         R4        -0.58859  -0.00373
   5         R5         0.46499  -0.00373
   6         A1        -0.00000   0.02941
   7         A2        -0.00000   0.02941
   8         A3         0.00000  -0.05882
   9         A4        -0.00000   0.02941
  10         A5        -0.00000   0.02941
  11         A6         0.00000  -0.05882
  12         D1         0.00000   0.00000
  13         D2        -0.00000  -0.00000
  14         D3         0.00000   0.00000
  15         D4         0.00000   0.00000
 Iter=   1 RLamda= 0.00000000D+00 Sum=-2.20137235D-04.
 Iter=   2 RLamda=-2.20137235D-04 Sum=-2.19941425D-04.
 Iter=   3 RLamda=-2.19941425D-04 Sum=-2.19941599D-04.
 RFO step:  Lambda=-2.19941425D-04 EMin= 2.99901184D-02
 Quartic linear search produced a step of  0.33968.
 Iteration  1 RMS(Cart)=  0.01311778 RMS(Int)=  0.00011404
 Iteration  2 RMS(Cart)=  0.00011503 RMS(Int)=  0.00000000
 Iteration  3 RMS(Cart)=  0.00000000 RMS(Int)=  0.00000000
 ITry= 1 IFail=0 DXMaxC= 1.85D-02 DCOld= 1.00D+10 DXMaxT= 3.00D-01 DXLimC= 3.00D+00 Rises=F
 ClnCor:  largest displacement from symmetrization is 1.16D-14 for atom     4.
 Variable       Old X    -DE/DX   Delta X   Delta X   Delta X     New X
                                 (Linear)    (Quad)   (Total)
    R1        2.52483  -0.00691   0.00314  -0.01678  -0.01364   2.51120
    R2        2.04094  -0.00052  -0.00094  -0.00160  -0.00253   2.03841
    R3        2.04094  -0.00052  -0.00094  -0.00160  -0.00253   2.03841
    R4        2.04094  -0.00052  -0.00094  -0.00160  -0.00253   2.03841
    R5        2.04094  -0.00052  -0.00094  -0.00160  -0.00253   2.03841
    A1        2.14403   0.00118   0.00760   0.00705   0.01464   2.15868
    A2        2.14403   0.00118   0.00760   0.00705   0.01464   2.15868
    A3        1.99512  -0.00236  -0.01519  -0.01409  -0.02929   1.96583
    A4        2.14403   0.00118   0.00760   0.00705   0.01464   2.15868
    A5        2.14403   0.00118   0.00760   0.00705   0.01464   2.15868
    A6        1.99512  -0.00236  -0.01519  -0.01409  -0.02929   1.96583
    D1        0.00000  -0.00000   0.00000  -0.00000   0.00000   0.00000
    D2        3.14159  -0.00000   0.00000  -0.00000   0.00000   3.14159
    D3        3.14159  -0.00000   0.00000  -0.00000   0.00000   3.14159
    D4        0.00000  -0.00000   0.00000  -0.00000   0.00000   0.00000
         Item               Value     Threshold  Converged?
 Maximum Force            0.006905     0.000450     NO 
 RMS     Force            0.002090     0.000300     NO 
 Maximum Displacement     0.018501     0.001800     NO 
 RMS     Displacement     0.013132     0.001200     NO 
 Predicted change in Energy=-1.529741D-04
 Lowest energy point so far.  Saving SCF results.
 Largest change from initial coordinates is atom    3       0.039 Angstoms.
 GradGradGradGradGradGradGradGradGradGradGradGradGradGradGradGradGradGrad

 Leave Link  103 at Wed Oct 21 14:32:53 2020, MaxMem=  2684354560 cpu:               4.8 elap:               0.9
 (Enter /udrive/faculty/rpeverati/g16/g16/l202.exe)
                          Input orientation:                          
 ---------------------------------------------------------------------
 Center     Atomic      Atomic             Coordinates (Angstroms)
 Number     Number       Type             X           Y           Z
 ---------------------------------------------------------------------
      1          6           0       -0.000000    0.000000    0.664434
      2          6           0        0.000000   -0.000000   -0.664434
      3          1           0        0.000000    0.897589    1.262666
      4          1           0       -0.000000   -0.897589    1.262666
      5          1           0        0.000000    0.897589   -1.262666
      6          1           0       -0.000000   -0.897589   -1.262666
 ---------------------------------------------------------------------
                    Distance matrix (angstroms):
                    1          2          3          4          5
     1  C    0.000000
     2  C    1.328868   0.000000
     3  H    1.078679   2.125883   0.000000
     4  H    1.078679   2.125883   1.795178   0.000000
     5  H    2.125883   1.078679   2.525332   3.098381   0.000000
     6  H    2.125883   1.078679   3.098381   2.525332   1.795178
                    6
     6  H    0.000000
 Stoichiometry    C2H4
 Framework group  D2H[C2"(C.C),SG(H4)]
 Deg. of freedom     3
 Full point group                 D2H     NOp   8
 RotChk:  IX=0 Diff= 3.72D-16
 Largest Abelian subgroup         D2H     NOp   8
 Largest concise Abelian subgroup D2      NOp   4
                         Standard orientation:                         
 ---------------------------------------------------------------------
 Center     Atomic      Atomic             Coordinates (Angstroms)
 Number     Number       Type             X           Y           Z
 ---------------------------------------------------------------------
      1          6           0        0.000000    0.000000    0.664434
      2          6           0        0.000000    0.000000   -0.664434
      3          1           0       -0.000000    0.897589    1.262666
      4          1           0       -0.000000   -0.897589    1.262666
      5          1           0        0.000000    0.897589   -1.262666
      6          1           0       -0.000000   -0.897589   -1.262666
 ---------------------------------------------------------------------
 Rotational constants (GHZ):         155.6027057          29.6888102          24.9318442
 Leave Link  202 at Wed Oct 21 14:32:54 2020, MaxMem=  2684354560 cpu:               2.0 elap:               0.7
 (Enter /udrive/faculty/rpeverati/g16/g16/l301.exe)
 Standard basis: VSTO-6G (5D, 7F)
 Ernie: Thresh=  0.10000D-02 Tol=  0.10000D-05 Strict=F.
 EHB=         0.000000000 Number of Hydrogen Bonds=     0
  NNHCO=     0 NNPyr=     0 NCTC=     0               EPep=         0.000000000
    EC=        15.079851616  ECS=         0.966062651   EG=         0.148490783
   EHC=         0.000212267  EAt=       -10.130385707  AtH=         0.876780387
 EPDDG=         0.000000000  ECC=        16.194617318 EAtT=        11.007166095
  EHyb=         0.000000000
 There are     3 symmetry adapted cartesian basis functions of AG  symmetry.
 There are     0 symmetry adapted cartesian basis functions of B1G symmetry.
 There are     1 symmetry adapted cartesian basis functions of B2G symmetry.
 There are     2 symmetry adapted cartesian basis functions of B3G symmetry.
 There are     0 symmetry adapted cartesian basis functions of AU  symmetry.
 There are     3 symmetry adapted cartesian basis functions of B1U symmetry.
 There are     2 symmetry adapted cartesian basis functions of B2U symmetry.
 There are     1 symmetry adapted cartesian basis functions of B3U symmetry.
 There are     3 symmetry adapted basis functions of AG  symmetry.
 There are     0 symmetry adapted basis functions of B1G symmetry.
 There are     1 symmetry adapted basis functions of B2G symmetry.
 There are     2 symmetry adapted basis functions of B3G symmetry.
 There are     0 symmetry adapted basis functions of AU  symmetry.
 There are     3 symmetry adapted basis functions of B1U symmetry.
 There are     2 symmetry adapted basis functions of B2U symmetry.
 There are     1 symmetry adapted basis functions of B3U symmetry.
    12 basis functions,    72 primitive gaussians,    12 cartesian basis functions
     6 alpha electrons        6 beta electrons
       nuclear repulsion energy        27.2017834121 Hartrees.
 IExCor=    0 DFT=F Ex=HF Corr=None ExCW=0 ScaHFX=  1.000000
 ScaDFX=  1.000000  1.000000  1.000000  1.000000 ScalE2=  1.000000  1.000000
 IRadAn=      5 IRanWt=     -1 IRanGd=            0 ICorTp=0 IEmpDi=251
 Integral buffers will be    131072 words long.
 Regular integral format.
 Two-electron integral symmetry is turned off.
 R6Disp:  PM7 Dispersion energy=       -0.0000582772 Hartrees.
 Nuclear repulsion after empirical dispersion term =       27.2017251349 Hartrees.
 Leave Link  301 at Wed Oct 21 14:32:55 2020, MaxMem=  2684354560 cpu:               3.4 elap:               0.9
 (Enter /udrive/faculty/rpeverati/g16/g16/l302.exe)
 Do NDO integrals.
 NPDir=0 NMtPBC=     1 NCelOv=     1 NCel=       1 NClECP=     1 NCelD=      1
         NCelK=      1 NCelE2=     1 NClLst=     1 CellRange=     0.0.
 One-electron integrals computed using PRISM.
 NBasis=    12 RedAO= T EigKep=  1.00D+00  NBF=     3     0     1     2     0     3     2     1
 NBsUse=    12 1.00D-06 EigRej= -1.00D+00 NBFU=     3     0     1     2     0     3     2     1
 Leave Link  302 at Wed Oct 21 14:32:57 2020, MaxMem=  2684354560 cpu:               2.3 elap:               0.9
 (Enter /udrive/faculty/rpeverati/g16/g16/l303.exe)
 DipDrv:  MaxL=1.
 Leave Link  303 at Wed Oct 21 14:32:58 2020, MaxMem=  2684354560 cpu:               2.5 elap:               0.9
 (Enter /udrive/faculty/rpeverati/g16/g16/l401.exe)
 Initial guess from the checkpoint file:  "MN_11_c2h4_BH76_PM7_SE.chk"
 SCF N**3 symmetry information disabled.
 B after Tr=     0.000000    0.000000    0.000000
         Rot=    1.000000    0.000000   -0.000000    0.000000 Ang=   0.00 deg.
 Guess basis will be translated and rotated to current coordinates.
 JPrj=0 DoOrth=T DoCkMO=T.
 Initial guess orbital symmetries:
       Occupied  (AG) (B1U) (B2U) (AG) (B3G) (B3U)
       Virtual   (B2G) (B2U) (B1U) (B1U) (AG) (B3G)
 The electronic state of the initial guess is 1-AG.
 Leave Link  401 at Wed Oct 21 14:32:59 2020, MaxMem=  2684354560 cpu:               2.8 elap:               0.7
 (Enter /udrive/faculty/rpeverati/g16/g16/l502.exe)
 Keep J ints in memory in canonical form, NReq=859449.
 FoFCou: FMM=F IPFlag=           0 FMFlag=           0 FMFlg1=           0
         NFxFlg=           0 DoJE=F BraDBF=F KetDBF=F FulRan=T
         wScrn=  0.000000 ICntrl=       600 IOpCl=  2 I1Cent=           0 NGrid=           0
         NMat0=    1 NMatS0=     24 NMatT0=    0 NMatD0=    1 NMtDS0=    0 NMtDT0=    0
 Symmetry not used in FoFCou.
 Two-electron integral symmetry not used.
 Closed shell SCF:
 Using DIIS extrapolation, IDIIS=  1040.
 Overlap will be assumed to be unity.
 NGot=  2684354560 LenX=  2684293808 LenY=  2684292926
 Requested convergence on RMS density matrix=1.00D-08 within 120 cycles.
 Requested convergence on MAX density matrix=1.00D-06.
 Requested convergence on             energy=1.00D-06.
 No special actions if energy rises.

 Cycle   1  Pass 1  IDiag  1:
 E= 0.221448887097147E-01
 DIIS: error= 9.18D-04 at cycle   1 NSaved=   1.
 NSaved= 1 IEnMin= 1 EnMin= 0.221448887097147E-01 IErMin= 1 ErrMin= 9.18D-04
 ErrMax= 9.18D-04  0.00D+00 EMaxC= 1.00D-01 BMatC= 1.84D-05 BMatP= 1.84D-05
 IDIUse=3 WtCom= 9.91D-01 WtEn= 9.18D-03
 Coeff-Com:  0.100D+01
 Coeff-En:   0.100D+01
 Coeff:      0.100D+01
 RMSDP=5.70D-04 MaxDP=1.91D-03              OVMax= 0.00D+00

 Cycle   2  Pass 1  IDiag  3:
 E= 0.220895051486991E-01 Delta-E=       -0.000055383561 Rises=F Damp=F
 DIIS: error= 3.05D-04 at cycle   2 NSaved=   2.
 NSaved= 2 IEnMin= 2 EnMin= 0.220895051486991E-01 IErMin= 2 ErrMin= 3.05D-04
 ErrMax= 3.05D-04  0.00D+00 EMaxC= 1.00D-01 BMatC= 2.18D-06 BMatP= 1.84D-05
 IDIUse=3 WtCom= 9.97D-01 WtEn= 3.05D-03
 Coeff-Com: -0.510D+00 0.151D+01
 Coeff-En:   0.000D+00 0.100D+01
 Coeff:     -0.509D+00 0.151D+01
 Gap=     0.433 Goal=   None    Shift=    0.000
 RMSDP=3.01D-04 MaxDP=1.02D-03 DE=-5.54D-05 OVMax= 1.55D-03

 Cycle   3  Pass 1  IDiag  3:
 E= 0.220818351807566E-01 Delta-E=       -0.000007669968 Rises=F Damp=F
 DIIS: error= 1.41D-05 at cycle   3 NSaved=   3.
 NSaved= 3 IEnMin= 3 EnMin= 0.220818351807566E-01 IErMin= 3 ErrMin= 1.41D-05
 ErrMax= 1.41D-05  0.00D+00 EMaxC= 1.00D-01 BMatC= 7.63D-09 BMatP= 2.18D-06
 IDIUse=1 WtCom= 1.00D+00 WtEn= 0.00D+00
 Coeff-Com:  0.192D+00-0.584D+00 0.139D+01
 Coeff:      0.192D+00-0.584D+00 0.139D+01
 Gap=     0.433 Goal=   None    Shift=    0.000
 RMSDP=1.82D-05 MaxDP=8.11D-05 DE=-7.67D-06 OVMax= 1.19D-04

 Cycle   4  Pass 1  IDiag  3:
 E= 0.220818063255415E-01 Delta-E=       -0.000000028855 Rises=F Damp=F
 DIIS: error= 2.59D-06 at cycle   4 NSaved=   4.
 NSaved= 4 IEnMin= 4 EnMin= 0.220818063255415E-01 IErMin= 4 ErrMin= 2.59D-06
 ErrMax= 2.59D-06  0.00D+00 EMaxC= 1.00D-01 BMatC= 1.82D-10 BMatP= 7.63D-09
 IDIUse=1 WtCom= 1.00D+00 WtEn= 0.00D+00
 Coeff-Com: -0.955D-01 0.291D+00-0.762D+00 0.157D+01
 Coeff:     -0.955D-01 0.291D+00-0.762D+00 0.157D+01
 Gap=     0.433 Goal=   None    Shift=    0.000
 RMSDP=3.73D-06 MaxDP=1.77D-05 DE=-2.89D-08 OVMax= 2.80D-05

 Cycle   5  Pass 1  IDiag  3:
 E= 0.220818054262182E-01 Delta-E=       -0.000000000899 Rises=F Damp=F
 DIIS: error= 3.71D-07 at cycle   5 NSaved=   5.
 NSaved= 5 IEnMin= 5 EnMin= 0.220818054262182E-01 IErMin= 5 ErrMin= 3.71D-07
 ErrMax= 3.71D-07  0.00D+00 EMaxC= 1.00D-01 BMatC= 3.74D-12 BMatP= 1.82D-10
 IDIUse=1 WtCom= 1.00D+00 WtEn= 0.00D+00
 Coeff-Com:  0.581D-01-0.177D+00 0.466D+00-0.999D+00 0.165D+01
 Coeff:      0.581D-01-0.177D+00 0.466D+00-0.999D+00 0.165D+01
 Gap=     0.433 Goal=   None    Shift=    0.000
 RMSDP=4.76D-07 MaxDP=1.98D-06 DE=-8.99D-10 OVMax= 2.98D-06

 Cycle   6  Pass 1  IDiag  3:
 E= 0.220818054106289E-01 Delta-E=       -0.000000000016 Rises=F Damp=F
 DIIS: error= 1.00D-08 at cycle   6 NSaved=   6.
 NSaved= 6 IEnMin= 6 EnMin= 0.220818054106289E-01 IErMin= 6 ErrMin= 1.00D-08
 ErrMax= 1.00D-08  0.00D+00 EMaxC= 1.00D-01 BMatC= 2.28D-15 BMatP= 3.74D-12
 IDIUse=1 WtCom= 1.00D+00 WtEn= 0.00D+00
 Coeff-Com: -0.575D-02 0.175D-01-0.464D-01 0.991D-01-0.174D+00 0.111D+01
 Coeff:     -0.575D-02 0.175D-01-0.464D-01 0.991D-01-0.174D+00 0.111D+01
 Gap=     0.433 Goal=   None    Shift=    0.000
 RMSDP=9.79D-09 MaxDP=4.09D-08 DE=-1.56D-11 OVMax= 5.31D-08

 Cycle   7  Pass 2  IDiag  1:
 SCF Done:  E(RPM7) =  0.220818054106E-01 A.U. after    7 cycles
            NFock=  6  Conv=0.98D-08     -V/T= 1.0013
 KE=-1.742363476251D+01 PE=-2.953586253274D+01 EE= 1.977985396575D+01
 Leave Link  502 at Wed Oct 21 14:33:01 2020, MaxMem=  2684354560 cpu:               6.8 elap:               1.2
 (Enter /udrive/faculty/rpeverati/g16/g16/l508.exe)
 QCSCF skips out because SCF is already converged.
 Leave Link  508 at Wed Oct 21 14:33:02 2020, MaxMem=  2684354560 cpu:               0.4 elap:               0.7
 (Enter /udrive/faculty/rpeverati/g16/g16/l701.exe)
 ... and contract with generalized density number  0.
 Compute integral first derivatives.
 R6Disp: Adding PM7 dispersion energy 1st derivatives to the gradient.
 Leave Link  701 at Wed Oct 21 14:33:03 2020, MaxMem=  2684354560 cpu:               3.7 elap:               1.1
 (Enter /udrive/faculty/rpeverati/g16/g16/l702.exe)
 L702 exits ... SP integral derivatives will be done elsewhere.
 Leave Link  702 at Wed Oct 21 14:33:04 2020, MaxMem=  2684354560 cpu:               1.3 elap:               0.7
 (Enter /udrive/faculty/rpeverati/g16/g16/l703.exe)
 Integral derivatives from FoFJK, PRISM(SPDF).
 Compute integral first derivatives, UseDBF=F ICtDFT=           0.
 Calling FoFJK, ICntrl=      2127 FMM=F ISym2X=1 I1Cent= 0 IOpClX= 0 NMat=1 NMatS=1 NMatT=0.
 FoFJK:  IHMeth=43 ICntrl=    2127 DoSepK=F KAlg= 0 I1Cent=           0 FoldK=F
 IRaf=         0 NMat=       1 IRICut=       1 DoRegI=T DoRafI=F ISym2E= 1 IDoP0=3 IntGTp=3.
 FoFCou: FMM=F IPFlag=           0 FMFlag=      100000 FMFlg1=         800
         NFxFlg=           0 DoJE=F BraDBF=F KetDBF=F FulRan=T
         wScrn=  0.000000 ICntrl=      2127 IOpCl=  0 I1Cent=           0 NGrid=           0
         NMat0=    1 NMatS0=      1 NMatT0=    0 NMatD0=    1 NMtDS0=    0 NMtDT0=    0
 Petite list used in FoFCou.
 Leave Link  703 at Wed Oct 21 14:33:06 2020, MaxMem=  2684354560 cpu:               2.9 elap:               0.9
 (Enter /udrive/faculty/rpeverati/g16/g16/l716.exe)
 Dipole        =-5.09329679D-16-5.99520433D-15-8.88178420D-15
 ***** Axes restored to original set *****
 -------------------------------------------------------------------
 Center     Atomic                   Forces (Hartrees/Bohr)
 Number     Number              X              Y              Z
 -------------------------------------------------------------------
      1        6           0.000000000    0.000000000    0.000872451
      2        6          -0.000000000    0.000000000   -0.000872451
      3        1           0.000000000    0.000615693    0.000355911
      4        1           0.000000000   -0.000615693    0.000355911
      5        1          -0.000000000    0.000615693   -0.000355911
      6        1           0.000000000   -0.000615693   -0.000355911
 -------------------------------------------------------------------
 Cartesian Forces:  Max     0.000872451 RMS     0.000443806
 Leave Link  716 at Wed Oct 21 14:33:06 2020, MaxMem=  2684354560 cpu:               1.2 elap:               0.5
 (Enter /udrive/faculty/rpeverati/g16/g16/l103.exe)

 GradGradGradGradGradGradGradGradGradGradGradGradGradGradGradGradGradGrad
 Berny optimization.
 Optmz: redundant internal coordinate code flag= 1
 Using GEDIIS/GDIIS optimizer.
 Red2BG:  D1=  2.91D-01 OD1=  3.63D-02 B2RMS=  0.00D+00 IAprox=0
 FormGI is forming the generalized inverse of G from B-inverse, IUseBI=4.
 Internal  Forces:  Max     0.001584273 RMS     0.000549914
 Search for a local minimum.
 Step number   3 out of a maximum of  100
 All quantities printed in internal units (Hartrees-Bohrs-Radians)
 RMS Force = .54991D-03 SwitMx=.10000D-02 MixMth= 2
 Mixed Optimization -- En-DIIS/RFO-DIIS
 Update second derivatives using D2CorX and points    1    2    3
 DE= -1.37D-04 DEPred=-1.53D-04 R= 8.96D-01
 TightC=F SS=  1.41D+00  RLast= 5.28D-02 DXNew= 5.0454D-01 1.5832D-01
 Trust test= 8.96D-01 RLast= 5.28D-02 DXMaxT set to 3.00D-01
 The second derivative matrix:
                          R1        R2        R3        R4        R5
           R1           0.79666
           R2           0.00969   0.36116
           R3           0.00969   0.00299   0.36116
           R4           0.00969   0.00299   0.00299   0.36116
           R5           0.00969   0.00299   0.00299   0.00299   0.36116
           A1           0.01407  -0.00092  -0.00092  -0.00092  -0.00092
           A2           0.01407  -0.00092  -0.00092  -0.00092  -0.00092
           A3          -0.02815   0.00183   0.00183   0.00183   0.00183
           A4           0.01407  -0.00092  -0.00092  -0.00092  -0.00092
           A5           0.01407  -0.00092  -0.00092  -0.00092  -0.00092
           A6          -0.02815   0.00183   0.00183   0.00183   0.00183
           D1           0.00000   0.00000   0.00000   0.00000   0.00000
           D2          -0.00000  -0.00000  -0.00000  -0.00000  -0.00000
           D3           0.00000   0.00000   0.00000   0.00000   0.00000
           D4           0.00000   0.00000   0.00000   0.00000   0.00000
                          A1        A2        A3        A4        A5
           A1           0.15461
           A2          -0.00539   0.15461
           A3           0.01079   0.01079   0.13842
           A4          -0.00539  -0.00539   0.01079   0.15461
           A5          -0.00539  -0.00539   0.01079  -0.00539   0.15461
           A6           0.01079   0.01079  -0.02158   0.01079   0.01079
           D1          -0.00000  -0.00000   0.00000  -0.00000  -0.00000
           D2           0.00000   0.00000  -0.00000   0.00000   0.00000
           D3          -0.00000  -0.00000   0.00000  -0.00000  -0.00000
           D4           0.00000   0.00000  -0.00000   0.00000   0.00000
                          A6        D1        D2        D3        D4
           A6           0.13842
           D1           0.00000   0.02999
           D2          -0.00000  -0.00000   0.02999
           D3           0.00000   0.00000  -0.00000   0.02999
           D4          -0.00000   0.00000  -0.00000   0.00000   0.02999
 ITU=  1  1  0
 Use linear search instead of GDIIS.
 Eigenvectors of the second derivative matrix:
                           1         2         3         4         5
     Eigenvalues --     0.02999   0.02999   0.02999   0.09168   0.16000
   1         R1         0.00000  -0.00000  -0.00000  -0.06972  -0.00000
   2         R2        -0.00000  -0.00000  -0.00000   0.01378   0.00000
   3         R3        -0.00000  -0.00000  -0.00000   0.01378   0.00000
   4         R4        -0.00000  -0.00000   0.00000   0.01378   0.00000
   5         R5        -0.00000   0.00000   0.00000   0.01378   0.00000
   6         A1         0.00000   0.00000  -0.00000   0.28786  -0.59838
   7         A2         0.00000   0.00000  -0.00000   0.28786   0.32604
   8         A3        -0.00000  -0.00000   0.00000  -0.57573   0.27234
   9         A4         0.00000   0.00000   0.00000   0.28786   0.55463
  10         A5         0.00000   0.00000   0.00000   0.28786  -0.28228
  11         A6        -0.00000  -0.00000  -0.00000  -0.57573  -0.27234
  12         D1         0.70408   0.04821   0.50194  -0.00000  -0.00000
  13         D2         0.04938  -0.70766   0.49677   0.00000  -0.00000
  14         D3        -0.05180   0.70291   0.50322  -0.00000  -0.00000
  15         D4        -0.70650  -0.05296   0.49805   0.00000  -0.00000
                           6         7         8         9        10
     Eigenvalues --     0.16000   0.16000   0.35816   0.35816   0.35816
   1         R1         0.00000   0.00000  -0.00000   0.00000   0.00000
   2         R2         0.00000   0.00000  -0.44830   0.72342  -0.16026
   3         R3         0.00000  -0.00000   0.51426  -0.17624  -0.67415
   4         R4         0.00000   0.00000  -0.54892  -0.65823   0.12418
   5         R5         0.00000  -0.00000   0.48296   0.11104   0.71023
   6         A1        -0.01484  -0.47440  -0.00000  -0.00000  -0.00000
   7         A2         0.52337   0.45069  -0.00000  -0.00000  -0.00000
   8         A3        -0.50853   0.02371   0.00000   0.00000   0.00000
   9         A4        -0.05505  -0.52220  -0.00000  -0.00000  -0.00000
  10         A5        -0.45347   0.54590  -0.00000  -0.00000  -0.00000
  11         A6         0.50853  -0.02371   0.00000   0.00000   0.00000
  12         D1         0.00000   0.00000  -0.00000  -0.00000  -0.00000
  13         D2        -0.00000   0.00000   0.00000   0.00000   0.00000
  14         D3         0.00000   0.00000  -0.00000   0.00000  -0.00000
  15         D4         0.00000   0.00000  -0.00000  -0.00000  -0.00000
                          11        12
     Eigenvalues --     0.36952   0.80086
   1         R1         0.04183   0.99669
   2         R2        -0.49933   0.02192
   3         R3        -0.49933   0.02192
   4         R4        -0.49933   0.02192
   5         R5        -0.49933   0.02192
   6         A1         0.00881   0.01977
   7         A2         0.00881   0.01977
   8         A3        -0.01762  -0.03953
   9         A4         0.00881   0.01977
  10         A5         0.00881   0.01977
  11         A6        -0.01762  -0.03953
  12         D1        -0.00000   0.00000
  13         D2         0.00000  -0.00000
  14         D3        -0.00000   0.00000
  15         D4         0.00000   0.00000
 Iter=   1 RLamda= 0.00000000D+00 Sum=-5.24535799D-06.
 Iter=   2 RLamda=-5.24535799D-06 Sum=-5.24524867D-06.
 RFO step:  Lambda=-5.24535799D-06 EMin= 2.99901184D-02
 Quartic linear search produced a step of -0.09931.
 Iteration  1 RMS(Cart)=  0.00130155 RMS(Int)=  0.00000046
 Iteration  2 RMS(Cart)=  0.00000053 RMS(Int)=  0.00000000
 ITry= 1 IFail=0 DXMaxC= 2.14D-03 DCOld= 1.00D+10 DXMaxT= 3.00D-01 DXLimC= 3.00D+00 Rises=F
 ClnCor:  largest displacement from symmetrization is 8.74D-15 for atom     5.
 Variable       Old X    -DE/DX   Delta X   Delta X   Delta X     New X
                                 (Linear)    (Quad)   (Total)
    R1        2.51120   0.00158   0.00135   0.00066   0.00201   2.51321
    R2        2.03841   0.00071   0.00025   0.00160   0.00185   2.04026
    R3        2.03841   0.00071   0.00025   0.00160   0.00185   2.04026
    R4        2.03841   0.00071   0.00025   0.00160   0.00185   2.04026
    R5        2.03841   0.00071   0.00025   0.00160   0.00185   2.04026
    A1        2.15868  -0.00003  -0.00145   0.00092  -0.00053   2.15814
    A2        2.15868  -0.00003  -0.00145   0.00092  -0.00053   2.15814
    A3        1.96583   0.00006   0.00291  -0.00185   0.00106   1.96690
    A4        2.15868  -0.00003  -0.00145   0.00092  -0.00053   2.15814
    A5        2.15868  -0.00003  -0.00145   0.00092  -0.00053   2.15814
    A6        1.96583   0.00006   0.00291  -0.00185   0.00106   1.96690
    D1        0.00000   0.00000   0.00000   0.00000   0.00000   0.00000
    D2        3.14159  -0.00000   0.00000  -0.00000   0.00000   3.14159
    D3        3.14159   0.00000   0.00000   0.00000   0.00000   3.14159
    D4        0.00000  -0.00000   0.00000  -0.00000   0.00000   0.00000
         Item               Value     Threshold  Converged?
 Maximum Force            0.001584     0.000450     NO 
 RMS     Force            0.000550     0.000300     NO 
 Maximum Displacement     0.002139     0.001800     NO 
 RMS     Displacement     0.001301     0.001200     NO 
 Predicted change in Energy=-4.321397D-06
 Lowest energy point so far.  Saving SCF results.
 Largest change from initial coordinates is atom    3       0.039 Angstoms.
[...]
 Coeff:     -0.193D-01 0.608D-01-0.123D+00 0.246D+00-0.576D+00 0.141D+01
 Gap=     0.432 Goal=   None    Shift=    0.000
 RMSDP=2.41D-09 MaxDP=1.04D-08 DE=-6.75D-14 OVMax= 1.63D-08

 Cycle   7  Pass 2  IDiag  1:
 SCF Done:  E(RPM7) =  0.220773155881E-01 A.U. after    7 cycles
            NFock=  6  Conv=0.24D-08     -V/T= 1.0013
 KE=-1.742160068327D+01 PE=-2.952178207312D+01 EE= 1.977419413784D+01
 Leave Link  502 at Wed Oct 21 14:33:16 2020, MaxMem=  2684354560 cpu:               7.2 elap:               1.3
 (Enter /udrive/faculty/rpeverati/g16/g16/l508.exe)
 QCSCF skips out because SCF is already converged.
 Leave Link  508 at Wed Oct 21 14:33:17 2020, MaxMem=  2684354560 cpu:               0.4 elap:               0.6
 (Enter /udrive/faculty/rpeverati/g16/g16/l701.exe)
 ... and contract with generalized density number  0.
 Compute integral first derivatives.
 R6Disp: Adding PM7 dispersion energy 1st derivatives to the gradient.
 Leave Link  701 at Wed Oct 21 14:33:18 2020, MaxMem=  2684354560 cpu:               4.2 elap:               1.0
 (Enter /udrive/faculty/rpeverati/g16/g16/l702.exe)
 L702 exits ... SP integral derivatives will be done elsewhere.
 Leave Link  702 at Wed Oct 21 14:33:19 2020, MaxMem=  2684354560 cpu:               1.3 elap:               0.5
 (Enter /udrive/faculty/rpeverati/g16/g16/l703.exe)
 Integral derivatives from FoFJK, PRISM(SPDF).
 Compute integral first derivatives, UseDBF=F ICtDFT=           0.
 Calling FoFJK, ICntrl=      2127 FMM=F ISym2X=1 I1Cent= 0 IOpClX= 0 NMat=1 NMatS=1 NMatT=0.
 FoFJK:  IHMeth=43 ICntrl=    2127 DoSepK=F KAlg= 0 I1Cent=           0 FoldK=F
 IRaf=         0 NMat=       1 IRICut=       1 DoRegI=T DoRafI=F ISym2E= 1 IDoP0=3 IntGTp=3.
 FoFCou: FMM=F IPFlag=           0 FMFlag=      100000 FMFlg1=         800
         NFxFlg=           0 DoJE=F BraDBF=F KetDBF=F FulRan=T
         wScrn=  0.000000 ICntrl=      2127 IOpCl=  0 I1Cent=           0 NGrid=           0
         NMat0=    1 NMatS0=      1 NMatT0=    0 NMatD0=    1 NMtDS0=    0 NMtDT0=    0
 Petite list used in FoFCou.
 Leave Link  703 at Wed Oct 21 14:33:20 2020, MaxMem=  2684354560 cpu:               2.1 elap:               0.6
 (Enter /udrive/faculty/rpeverati/g16/g16/l716.exe)
 Dipole        =-4.25909579D-16 1.11022302D-15-2.66453526D-15
 ***** Axes restored to original set *****
 -------------------------------------------------------------------
 Center     Atomic                   Forces (Hartrees/Bohr)
 Number     Number              X              Y              Z
 -------------------------------------------------------------------
      1        6          -0.000000000    0.000000000   -0.000345539
      2        6          -0.000000000   -0.000000000    0.000345539
      3        1           0.000000000    0.000100019    0.000043676
      4        1           0.000000000   -0.000100019    0.000043676
      5        1          -0.000000000    0.000100019   -0.000043676
      6        1           0.000000000   -0.000100019   -0.000043676
 -------------------------------------------------------------------
 Cartesian Forces:  Max     0.000345539 RMS     0.000126148
 Leave Link  716 at Wed Oct 21 14:33:22 2020, MaxMem=  2684354560 cpu:               1.3 elap:               0.7
 (Enter /udrive/faculty/rpeverati/g16/g16/l103.exe)

 GradGradGradGradGradGradGradGradGradGradGradGradGradGradGradGradGradGrad
 Berny optimization.
 Optmz: redundant internal coordinate code flag= 1
 Using GEDIIS/GDIIS optimizer.
 Red2BG:  D1=  2.90D-01 OD1=  3.01D-03 B2RMS=  0.00D+00 IAprox=0
 FormGI is forming the generalized inverse of G from B-inverse, IUseBI=4.
 Internal  Forces:  Max     0.000258187 RMS     0.000087510
 Search for a local minimum.
 Step number   4 out of a maximum of  100
 All quantities printed in internal units (Hartrees-Bohrs-Radians)
 RMS Force = .87510D-04 SwitMx=.10000D-02 MixMth= 2
 Mixed Optimization -- En-DIIS/RFO-DIIS
 Swapping is turned off.
 Update second derivatives using D2CorX and points    1    2    3    4
 DE= -4.49D-06 DEPred=-4.32D-06 R= 1.04D+00
 TightC=F SS=  1.41D+00  RLast= 4.59D-03 DXNew= 5.0454D-01 1.3779D-02
 Trust test= 1.04D+00 RLast= 4.59D-03 DXMaxT set to 3.00D-01
 The second derivative matrix:
                          R1        R2        R3        R4        R5
           R1           0.91472
           R2           0.01604   0.34554
           R3           0.01604  -0.01262   0.34554
           R4           0.01604  -0.01262  -0.01262   0.34554
           R5           0.01604  -0.01262  -0.01262  -0.01262   0.34554
           A1           0.01791  -0.00021  -0.00021  -0.00021  -0.00021
           A2           0.01791  -0.00021  -0.00021  -0.00021  -0.00021
           A3          -0.03582   0.00042   0.00042   0.00042   0.00042
           A4           0.01791  -0.00021  -0.00021  -0.00021  -0.00021
           A5           0.01791  -0.00021  -0.00021  -0.00021  -0.00021
           A6          -0.03582   0.00042   0.00042   0.00042   0.00042
           D1           0.00000   0.00000   0.00000   0.00000   0.00000
           D2          -0.00000  -0.00000  -0.00000  -0.00000  -0.00000
           D3          -0.00000  -0.00000  -0.00000  -0.00000  -0.00000
           D4          -0.00000  -0.00000  -0.00000  -0.00000  -0.00000
                          A1        A2        A3        A4        A5
           A1           0.15485
           A2          -0.00515   0.15485
           A3           0.01029   0.01029   0.13941
           A4          -0.00515  -0.00515   0.01029   0.15485
           A5          -0.00515  -0.00515   0.01029  -0.00515   0.15485
           A6           0.01029   0.01029  -0.02059   0.01029   0.01029
           D1           0.00000   0.00000  -0.00000   0.00000   0.00000
           D2          -0.00000  -0.00000   0.00000  -0.00000  -0.00000
           D3          -0.00000  -0.00000   0.00000  -0.00000  -0.00000
           D4          -0.00000  -0.00000   0.00000  -0.00000  -0.00000
                          A6        D1        D2        D3        D4
           A6           0.13941
           D1          -0.00000   0.02999
           D2           0.00000  -0.00000   0.02999
           D3           0.00000  -0.00000   0.00000   0.02999
           D4           0.00000  -0.00000   0.00000   0.00000   0.02999
 ITU=  1  1  1  0
 Eigenvectors of the second derivative matrix:
                           1         2         3         4         5
     Eigenvalues --     0.02999   0.02999   0.02999   0.09349   0.16000
   1         R1         0.00000  -0.00000  -0.00000  -0.07602  -0.00000
   2         R2         0.00000  -0.00000  -0.00000   0.00909  -0.00000
   3         R3         0.00000  -0.00000  -0.00000   0.00909  -0.00000
   4         R4         0.00000  -0.00000  -0.00000   0.00909  -0.00000
   5         R5         0.00000  -0.00000  -0.00000   0.00909  -0.00000
   6         A1        -0.00000   0.00000   0.00000   0.28779   0.62367
   7         A2         0.00000   0.00000   0.00000   0.28779  -0.25835
   8         A3         0.00000  -0.00000  -0.00000  -0.57558  -0.36532
   9         A4         0.00000   0.00000   0.00000   0.28779  -0.50720
  10         A5        -0.00000   0.00000   0.00000   0.28779   0.14188
  11         A6         0.00000  -0.00000  -0.00000  -0.57558   0.36532
  12         D1         0.25249  -0.26932   0.78340  -0.00000   0.00000
  13         D2        -0.31629  -0.79238   0.14866   0.00000  -0.00000
  14         D3         0.86510  -0.02378   0.03213   0.00000   0.00000
  15         D4         0.29633  -0.54685  -0.60262   0.00000   0.00000
                           6         7         8         9        10
     Eigenvalues --     0.16000   0.16000   0.30609   0.35816   0.35816
   1         R1        -0.00000   0.00000   0.05038  -0.00000  -0.00000
   2         R2        -0.00000   0.00000  -0.49924   0.23765  -0.56389
   3         R3        -0.00000   0.00000  -0.49924   0.70559   0.35733
   4         R4        -0.00000   0.00000  -0.49924  -0.45157  -0.41296
   5         R5        -0.00000   0.00000  -0.49924  -0.49168   0.61952
   6         A1         0.14463   0.41648   0.00637  -0.00000  -0.00000
   7         A2        -0.59163  -0.40813   0.00637  -0.00000  -0.00000
   8         A3         0.44700  -0.00835  -0.01273   0.00000   0.00000
   9         A4        -0.03100   0.57019   0.00637  -0.00000  -0.00000
  10         A5         0.47800  -0.57855   0.00637  -0.00000  -0.00000
  11         A6        -0.44700   0.00835  -0.01273   0.00000   0.00000
  12         D1         0.00000  -0.00000  -0.00000  -0.00000   0.00000
  13         D2        -0.00000  -0.00000   0.00000   0.00000  -0.00000
  14         D3         0.00000  -0.00000   0.00000  -0.00000   0.00000
  15         D4         0.00000  -0.00000   0.00000  -0.00000   0.00000
                          11        12
     Eigenvalues --     0.35816   0.92106
   1         R1         0.00000  -0.99583
   2         R2        -0.61282  -0.02595
   3         R3         0.35278  -0.02595
   4         R4         0.61282  -0.02595
   5         R5        -0.35278  -0.02595
   6         A1         0.00000  -0.02165
   7         A2         0.00000  -0.02165
   8         A3        -0.00000   0.04329
   9         A4         0.00000  -0.02165
  10         A5         0.00000  -0.02165
  11         A6        -0.00000   0.04329
  12         D1        -0.00000  -0.00000
  13         D2        -0.00000   0.00000
  14         D3        -0.00000   0.00000
  15         D4         0.00000   0.00000
 DoSqrt=T IScMMF=    -3 MM Scaling Factor =       0.00000
 En-DIIS/RFO-DIIS/Sim-DIIS IScMMF=       -3 using points:     4    3
 Iter=   1 RLamda=-2.00098816D-02 Sum=-2.30277426D-07.
 Iter=   2 RLamda=-2.30277426D-07 Sum=-2.43039475D-07.
 Iter=   3 RLamda=-2.43039475D-07 Sum=-2.43039466D-07.
 RFO step:  Lambda=-2.43039475D-07.
 NNeg= 0 NGDIIS= 2 SimSw=  2.50D-01 Rises=F DC= -4.49D-06 SmlDif=  1.00D-05
 NRisDI= 0 DoIntr=F SqrtH=F CThrHd= 10.0 CDAdj=  3.0
 RMS Error=  0.2133364863D-03 NUsed= 2 OKEnD=F EnDIS=F
 Total RFO-DIIS matrix:
                 1             2             3 
      1   0.000000D+00 -0.100000D+01 -0.100000D+01
      2  -0.100000D+01  0.682687D-06  0.327454D-05
      3  -0.100000D+01  0.327454D-05  0.269619D-04
 InvSVX:  RCond= 5.27D-06 Info=           0 Equed=N FErr=  1.16D-15 BErr=  0.00D+00
 DidBck=F Rises=F RFO-DIIS coefs:    1.12286   -0.12286
 Iteration  1 RMS(Cart)=  0.00021097 RMS(Int)=  0.00000001
 Iteration  2 RMS(Cart)=  0.00000001 RMS(Int)=  0.00000000
 ITry= 1 IFail=0 DXMaxC= 3.89D-04 DCOld= 1.00D+10 DXMaxT= 3.00D-01 DXLimC= 3.00D+00 Rises=F
 ClnCor:  largest displacement from symmetrization is 9.16D-15 for atom     5.
 Variable       Old X    -DE/DX   Delta X   Delta X   Delta X     New X
                                 (Linear)    (Quad)   (Total)
    R1        2.51321  -0.00026   0.00025  -0.00054  -0.00029   2.51292
    R2        2.04026   0.00011   0.00023   0.00014   0.00036   2.04062
    R3        2.04026   0.00011   0.00023   0.00014   0.00036   2.04062
    R4        2.04026   0.00011   0.00023   0.00014   0.00036   2.04062
    R5        2.04026   0.00011   0.00023   0.00014   0.00036   2.04062
    A1        2.15814  -0.00001  -0.00007  -0.00001  -0.00008   2.15807
    A2        2.15814  -0.00001  -0.00007  -0.00001  -0.00008   2.15807
    A3        1.96690   0.00003   0.00013   0.00002   0.00015   1.96705
    A4        2.15814  -0.00001  -0.00007  -0.00001  -0.00008   2.15807
    A5        2.15814  -0.00001  -0.00007  -0.00001  -0.00008   2.15807
    A6        1.96690   0.00003   0.00013   0.00002   0.00015   1.96705
    D1        0.00000  -0.00000   0.00000  -0.00000   0.00000   0.00000
    D2        3.14159  -0.00000   0.00000  -0.00000   0.00000   3.14159
    D3        3.14159   0.00000   0.00000   0.00000   0.00000   3.14159
    D4        0.00000  -0.00000   0.00000  -0.00000   0.00000   0.00000
         Item               Value     Threshold  Converged?
 Maximum Force            0.000258     0.000450     YES
 RMS     Force            0.000088     0.000300     YES
 Maximum Displacement     0.000389     0.001800     YES
 RMS     Displacement     0.000211     0.001200     YES
 Predicted change in Energy=-1.215198D-07
 Optimization completed.
    -- Stationary point found.
                           ----------------------------
                           !   Optimized Parameters   !
                           ! (Angstroms and Degrees)  !
 --------------------------                            --------------------------
 ! Name  Definition              Value          Derivative Info.                !
 --------------------------------------------------------------------------------
 ! R1    R(1,2)                  1.3299         -DE/DX =   -0.0003              !
 ! R2    R(1,3)                  1.0797         -DE/DX =    0.0001              !
 ! R3    R(1,4)                  1.0797         -DE/DX =    0.0001              !
 ! R4    R(2,5)                  1.0797         -DE/DX =    0.0001              !
 ! R5    R(2,6)                  1.0797         -DE/DX =    0.0001              !
 ! A1    A(2,1,3)              123.6525         -DE/DX =    0.0                 !
 ! A2    A(2,1,4)              123.6525         -DE/DX =    0.0                 !
 ! A3    A(3,1,4)              112.695          -DE/DX =    0.0                 !
 ! A4    A(1,2,5)              123.6525         -DE/DX =    0.0                 !
 ! A5    A(1,2,6)              123.6525         -DE/DX =    0.0                 !
 ! A6    A(5,2,6)              112.695          -DE/DX =    0.0                 !
 ! D1    D(3,1,2,5)              0.0            -DE/DX =    0.0                 !
 ! D2    D(3,1,2,6)            180.0            -DE/DX =    0.0                 !
 ! D3    D(4,1,2,5)            180.0            -DE/DX =    0.0                 !
 ! D4    D(4,1,2,6)              0.0            -DE/DX =    0.0                 !
 --------------------------------------------------------------------------------
 Lowest energy point so far.  Saving SCF results.
 Largest change from initial coordinates is atom    3       0.039 Angstoms.
 GradGradGradGradGradGradGradGradGradGradGradGradGradGradGradGradGradGrad

 Leave Link  103 at Wed Oct 21 14:33:23 2020, MaxMem=  2684354560 cpu:               5.0 elap:               1.0
 (Enter /udrive/faculty/rpeverati/g16/g16/l202.exe)
                          Input orientation:                          
 ---------------------------------------------------------------------
 Center     Atomic      Atomic             Coordinates (Angstroms)
 Number     Number       Type             X           Y           Z
 ---------------------------------------------------------------------
      1          6           0       -0.000000   -0.000000    0.664966
      2          6           0        0.000000    0.000000   -0.664966
      3          1           0        0.000000    0.898721    1.263263
      4          1           0       -0.000000   -0.898721    1.263263
      5          1           0        0.000000    0.898721   -1.263263
      6          1           0       -0.000000   -0.898721   -1.263263
 ---------------------------------------------------------------------
                    Distance matrix (angstroms):
                    1          2          3          4          5
     1  C    0.000000
     2  C    1.329931   0.000000
     3  H    1.079657   2.127384   0.000000
     4  H    1.079657   2.127384   1.797442   0.000000
     5  H    2.127384   1.079657   2.526525   3.100666   0.000000
     6  H    2.127384   1.079657   3.100666   2.526525   1.797442
                    6
     6  H    0.000000
 Stoichiometry    C2H4
 Framework group  D2H[C2"(C.C),SG(H4)]
 Deg. of freedom     3
 Full point group                 D2H     NOp   8
 RotChk:  IX=0 Diff= 1.35D-15
 Largest Abelian subgroup         D2H     NOp   8
 Largest concise Abelian subgroup D2      NOp   4
                         Standard orientation:                         
 ---------------------------------------------------------------------
 Center     Atomic      Atomic             Coordinates (Angstroms)
 Number     Number       Type             X           Y           Z
 ---------------------------------------------------------------------
      1          6           0        0.000000   -0.000000    0.664966
      2          6           0        0.000000   -0.000000   -0.664966
      3          1           0        0.000000    0.898721    1.263263
      4          1           0       -0.000000   -0.898721    1.263263
      5          1           0        0.000000    0.898721   -1.263263
      6          1           0       -0.000000   -0.898721   -1.263263
 ---------------------------------------------------------------------
 Rotational constants (GHZ):         155.2109240          29.6486872          24.8934859
 Leave Link  202 at Wed Oct 21 14:33:24 2020, MaxMem=  2684354560 cpu:               2.0 elap:               0.8
 (Enter /udrive/faculty/rpeverati/g16/g16/l601.exe)
 Copying SCF densities to generalized density rwf, IOpCl= 0 IROHF=0.

 **********************************************************************

            Population analysis using the SCF density.

 **********************************************************************

 Orbital symmetries:
       Occupied  (AG) (B1U) (B2U) (AG) (B3G) (B3U)
       Virtual   (B2G) (B2U) (B1U) (B1U) (B3G) (AG)
 The electronic state is 1-AG.
 Alpha  occ. eigenvalues --   -0.98655  -0.74644  -0.59294  -0.53376  -0.44263
 Alpha  occ. eigenvalues --   -0.39517
 Alpha virt. eigenvalues --    0.03716   0.19812   0.21028   0.23661   0.23667
 Alpha virt. eigenvalues --    0.23861
          Condensed to atoms (all electrons):
               1          2          3          4          5          6
     1  C    4.280359   0.000000   0.000000   0.000000   0.000000   0.000000
     2  C    0.000000   4.280359   0.000000   0.000000   0.000000   0.000000
     3  H    0.000000   0.000000   0.859821   0.000000   0.000000   0.000000
     4  H    0.000000   0.000000   0.000000   0.859821   0.000000   0.000000
     5  H    0.000000   0.000000   0.000000   0.000000   0.859821   0.000000
     6  H    0.000000   0.000000   0.000000   0.000000   0.000000   0.859821
 Mulliken charges:
               1
     1  C   -0.280359
     2  C   -0.280359
     3  H    0.140179
     4  H    0.140179
     5  H    0.140179
     6  H    0.140179
 Sum of Mulliken charges =   0.00000
 Mulliken charges with hydrogens summed into heavy atoms:
               1
     1  C    0.000000
     2  C   -0.000000
 Charge=              0.0000 electrons
 Dipole moment (field-independent basis, Debye):
    X=             -0.0000    Y=              0.0000    Z=             -0.0000  Tot=              0.0000
 N-N= 2.719126593414D+01 E-N=-2.952178207331D+01  KE=-1.742160068327D+01
 Leave Link  601 at Wed Oct 21 14:33:26 2020, MaxMem=  2684354560 cpu:               3.2 elap:               0.9
 (Enter /udrive/faculty/rpeverati/g16/g16/l9999.exe)

 Test job not archived.
 1\1\GINC-NODE59\FOpt\RPM7\ZDO\C2H4\RPEVERATI\21-Oct-2020\0\\#P Opt(Max
 Cyc=150) PM7 5D 7F Integral=UltraFineGrid SCF=(NoSymm,XQC,MaxCyc=120) 
 IOp(1/33=1)\\TS search on BH76.\\0,1\C,0.,0.,0.664965515\C,0.,0.,-0.66
 4965515\H,0.,0.8987210013,1.263262534\H,0.,-0.8987210013,1.263262534\H
 ,0.,0.8987210013,-1.263262534\H,0.,-0.8987210013,-1.263262534\\Version
 =ES64L-G16RevA.03\State=1-AG\HF=0.0220773\RMSD=2.410e-09\RMSF=1.261e-0
 4\Dipole=0.,0.,0.\PG=D02H [C2"(C1.C1),SG(H4)]\\@


 Ideas are like rabbits. You get a couple and learn
 how to handle them, and pretty soon you have a dozen.
                                    -- John Steinbeck
 Job cpu time:       0 days  0 hours  2 minutes 40.9 seconds.
 Elapsed time:       0 days  0 hours  0 minutes 45.7 seconds.
 File lengths (MBytes):  RWF=      5 Int=      0 D2E=      0 Chk=      2 Scr=      1
 Normal termination of Gaussian 16 at Wed Oct 21 14:33:28 2020.
