 Entering Gaussian System, Link 0=g16
 Input=MN_37_fch3clts_BH76_PM7_SE.in
 Output=MN_37_fch3clts_BH76_PM7_SE.log
 Initial command:
 /udrive/faculty/rpeverati/g16/g16/l1.exe "/udrive/scratch-directories/gaussian09/rpeverati/Gau-10498.inp" -scrdir="/udrive/scratch-directories/gaussian09/rpeverati/"
 Entering Link 1 = /udrive/faculty/rpeverati/g16/g16/l1.exe PID=     10499.
  
 Copyright (c) 1988,1990,1992,1993,1995,1998,2003,2009,2016,
            Gaussian, Inc.  All Rights Reserved.
  
 This is part of the Gaussian(R) 16 program.  It is based on
 the Gaussian(R) 09 system (copyright 2009, Gaussian, Inc.),
 the Gaussian(R) 03 system (copyright 2003, Gaussian, Inc.),
 the Gaussian(R) 98 system (copyright 1998, Gaussian, Inc.),
 the Gaussian(R) 94 system (copyright 1995, Gaussian, Inc.),
 the Gaussian 92(TM) system (copyright 1992, Gaussian, Inc.),
 the Gaussian 90(TM) system (copyright 1990, Gaussian, Inc.),
 the Gaussian 88(TM) system (copyright 1988, Gaussian, Inc.),
 the Gaussian 86(TM) system (copyright 1986, Carnegie Mellon
 University), and the Gaussian 82(TM) system (copyright 1983,
 Carnegie Mellon University). Gaussian is a federally registered
 trademark of Gaussian, Inc.
  
 This software contains proprietary and confidential information,
 including trade secrets, belonging to Gaussian, Inc.
  
 This software is provided under written license and may be
 used, copied, transmitted, or stored only in accord with that
 written license.
  
 The following legend is applicable only to US Government
 contracts under FAR:
  
                    RESTRICTED RIGHTS LEGEND
  
 Use, reproduction and disclosure by the US Government is
 subject to restrictions as set forth in subparagraphs (a)
 and (c) of the Commercial Computer Software - Restricted
 Rights clause in FAR 52.227-19.
  
 Gaussian, Inc.
 340 Quinnipiac St., Bldg. 40, Wallingford CT 06492
  
  
 ---------------------------------------------------------------
 Warning -- This program may not be used in any manner that
 competes with the business of Gaussian, Inc. or will provide
 assistance to any competitor of Gaussian, Inc.  The licensee
 of this program is prohibited from giving any competitor of
 Gaussian, Inc. access to this program.  By using this program,
 the user acknowledges that Gaussian, Inc. is engaged in the
 business of creating and licensing software in the field of
 computational chemistry and represents and warrants to the
 licensee that it is not a competitor of Gaussian, Inc. and that
 it will not use this program in any manner prohibited above.
 ---------------------------------------------------------------
  

 Cite this work as:
 Gaussian 16, Revision A.03,
 M. J. Frisch, G. W. Trucks, H. B. Schlegel, G. E. Scuseria, 
 M. A. Robb, J. R. Cheeseman, G. Scalmani, V. Barone, 
 G. A. Petersson, H. Nakatsuji, X. Li, M. Caricato, A. V. Marenich, 
 J. Bloino, B. G. Janesko, R. Gomperts, B. Mennucci, H. P. Hratchian, 
 J. V. Ortiz, A. F. Izmaylov, J. L. Sonnenberg, D. Williams-Young, 
 F. Ding, F. Lipparini, F. Egidi, J. Goings, B. Peng, A. Petrone, 
 T. Henderson, D. Ranasinghe, V. G. Zakrzewski, J. Gao, N. Rega, 
 G. Zheng, W. Liang, M. Hada, M. Ehara, K. Toyota, R. Fukuda, 
 J. Hasegawa, M. Ishida, T. Nakajima, Y. Honda, O. Kitao, H. Nakai, 
 T. Vreven, K. Throssell, J. A. Montgomery, Jr., J. E. Peralta, 
 F. Ogliaro, M. J. Bearpark, J. J. Heyd, E. N. Brothers, K. N. Kudin, 
 V. N. Staroverov, T. A. Keith, R. Kobayashi, J. Normand, 
 K. Raghavachari, A. P. Rendell, J. C. Burant, S. S. Iyengar, 
 J. Tomasi, M. Cossi, J. M. Millam, M. Klene, C. Adamo, R. Cammi, 
 J. W. Ochterski, R. L. Martin, K. Morokuma, O. Farkas, 
 J. B. Foresman, and D. J. Fox, Gaussian, Inc., Wallingford CT, 2016.
 
 ******************************************
 Gaussian 16:  ES64L-G16RevA.03 25-Dec-2016
                21-Oct-2020 
 ******************************************
 %NoSave
 %nproc=12
 Will use up to   12 processors via shared memory.
 %mem=20GB
 %chk=MN_37_fch3clts_BH76_PM7_SE
 ----------------------------------------------------------------------
 #P Opt(TS,MaxCyc=50,NoEigenTest,MaxStep=10,AddRedundant) PM7 5D 7F Int
 egral=UltraFineGrid SCF=(NoSymm,XQC,MaxCyc=120) IOp(1/33=1)
 ----------------------------------------------------------------------
 1/5=1,6=50,8=10,11=1,18=120,26=1,33=1,38=1/1,3;
 2/9=110,12=2,17=6,18=5,40=1/2;
 3/5=2,8=11,25=1,41=4200000,71=1,75=-5/1,2,3;
 4/9=2,35=1/1;
 5/5=2,7=120,8=3,13=1,35=1,38=5/2,8;
 6/7=2,8=2,9=2,10=2,28=1/1;
 7//1,2,3,16;
 1/5=1,6=50,8=10,11=1,18=20,26=1,33=1/3(2);
 2/9=110/2;
 99//99;
 2/9=110/2;
 3/5=2,8=11,25=1,41=4200000,71=1,75=-5,135=20/1,2,3;
 4/5=5,9=2,16=3,35=1/1;
 5/5=2,7=120,8=3,13=1,35=1,38=5/2,8;
 7//1,2,3,16;
 1/5=1,6=50,8=10,11=1,18=20,26=1,33=1/3(-5);
 2/9=110/2;
 6/7=2,8=2,9=2,10=2,19=2,28=1/1;
 99/9=1/99;
 Leave Link    1 at Wed Oct 21 14:35:48 2020, MaxMem=  2684354560 cpu:              15.6 elap:               1.7
 (Enter /udrive/faculty/rpeverati/g16/g16/l101.exe)
 ONIOM data not found on unit 2.
 ------------------
 TS search on BH76.
 ------------------
 TstMul:  ICh=    -1
 TstMul:  Mul=     1
 TstMul:  ICh=    -1
 TstMul:  Mul=     1
 Symbolic Z-matrix:
 Charge = -1 Multiplicity = 1
 F                     0.        0.       -1.99681 
 C                     0.        0.        0.05275 
 H                    -0.53104   0.91979  -0.07385 
 H                    -0.53104  -0.91979  -0.07385 
 H                     1.06209   0.       -0.07385 
 Cl                    0.        0.        2.16562 
 
 RdStrC is calling ZToCFu for IStruc=1 NZ=     6.
 PrtBox:  NBox=     1 Levels=  1 BoxLen=    8.00 SMaxX=        7.87
          Shift=            1.003525            1.738156            3.773422
 Box      1 Number                   0 centers from      1 to      6:
 After GenITR:
 ITRead=  0  0  0  0  0  0
 MicOpt= -1 -1 -1 -1 -1 -1
 Add virtual bond connecting atoms C2         and F1         Dist= 3.87D+00.
 Add virtual bond connecting atoms H3         and F1         Dist= 4.15D+00.
 Add virtual bond connecting atoms H4         and F1         Dist= 4.15D+00.
 Add virtual bond connecting atoms H5         and F1         Dist= 4.15D+00.
 The following ModRedundant input section has been read:
 
 ITRead=  0  0  0  0  0  0
 MicOpt= -1 -1 -1 -1 -1 -1
 NAtoms=      6 NQM=        6 NQMF=       0 NMMI=      0 NMMIF=      0
                NMic=       0 NMicF=      0.
                    Isotopes and Nuclear Properties:
 (Nuclear quadrupole moments (NQMom) in fm**2, nuclear magnetic moments (NMagM)
  in nuclear magnetons)

  Atom         1           2           3           4           5           6
 IAtWgt=          19          12           1           1           1          35
 AtmWgt=  18.9984033  12.0000000   1.0078250   1.0078250   1.0078250  34.9688527
 NucSpn=           1           0           1           1           1           3
 AtZEff=   0.0000000   0.0000000   0.0000000   0.0000000   0.0000000   0.0000000
 NQMom=    0.0000000   0.0000000   0.0000000   0.0000000   0.0000000  -8.1650000
 NMagM=    2.6288670   0.0000000   2.7928460   2.7928460   2.7928460   0.8218740
 AtZNuc=   9.0000000   6.0000000   1.0000000   1.0000000   1.0000000  17.0000000
 No MM parameters found.
 Leave Link  101 at Wed Oct 21 14:35:50 2020, MaxMem=  2684354560 cpu:               4.5 elap:               1.1
 (Enter /udrive/faculty/rpeverati/g16/g16/l103.exe)

 GradGradGradGradGradGradGradGradGradGradGradGradGradGradGradGradGradGrad
 Berny optimization.
 Optmz: redundant internal coordinate code flag= 1
 Initialization pass.
                           ----------------------------
                           !    Initial Parameters    !
                           ! (Angstroms and Degrees)  !
 --------------------------                            --------------------------
 ! Name  Definition              Value          Derivative Info.                !
 --------------------------------------------------------------------------------
 ! R1    R(1,2)                  2.0496         estimate D2E/DX2                !
 ! R2    R(1,3)                  2.1968         estimate D2E/DX2                !
 ! R3    R(1,4)                  2.1968         estimate D2E/DX2                !
 ! R4    R(1,5)                  2.1968         estimate D2E/DX2                !
 ! R5    R(2,3)                  1.0696         estimate D2E/DX2                !
 ! R6    R(2,4)                  1.0696         estimate D2E/DX2                !
 ! R7    R(2,5)                  1.0696         estimate D2E/DX2                !
 ! R8    R(2,6)                  2.1129         estimate D2E/DX2                !
 ! A1    A(3,1,4)               49.5055         estimate D2E/DX2                !
 ! A2    A(3,1,5)               49.5055         estimate D2E/DX2                !
 ! A3    A(4,1,5)               49.5055         estimate D2E/DX2                !
 ! A4    A(3,2,4)              118.6192         estimate D2E/DX2                !
 ! A5    A(3,2,5)              118.6192         estimate D2E/DX2                !
 ! A6    A(3,2,6)               96.7976         estimate D2E/DX2                !
 ! A7    A(4,2,5)              118.6192         estimate D2E/DX2                !
 ! A8    A(4,2,6)               96.7976         estimate D2E/DX2                !
 ! A9    A(5,2,6)               96.7976         estimate D2E/DX2                !
 ! A10   L(1,2,6,3,-1)         180.0            estimate D2E/DX2                !
 ! A11   L(1,2,6,3,-2)         180.0            estimate D2E/DX2                !
 ! D1    D(3,1,5,4)             66.8145         estimate D2E/DX2                !
 ! D2    D(3,2,5,4)           -156.8288         estimate D2E/DX2                !
 ! D3    D(3,2,6,4)            120.0            estimate D2E/DX2                !
 ! D4    D(3,2,6,5)           -120.0            estimate D2E/DX2                !
 ! D5    D(4,2,6,5)            120.0            estimate D2E/DX2                !
 --------------------------------------------------------------------------------
 Maximum allowed force set to 1.00D+20.
 Trust Radius=1.00D-01 FncErr=1.00D-07 GrdErr=1.00D-07 EigMax=2.50D+02 EigMin=1.00D-04
 Number of steps in this run=     50 maximum allowed number of steps=    100.
 Search for a saddle point of order  1.
 GradGradGradGradGradGradGradGradGradGradGradGradGradGradGradGradGradGrad

 Leave Link  103 at Wed Oct 21 14:35:52 2020, MaxMem=  2684354560 cpu:               1.4 elap:               1.3
 (Enter /udrive/faculty/rpeverati/g16/g16/l202.exe)
                          Input orientation:                          
 ---------------------------------------------------------------------
 Center     Atomic      Atomic             Coordinates (Angstroms)
 Number     Number       Type             X           Y           Z
 ---------------------------------------------------------------------
      1          9           0        0.000000    0.000000   -1.996809
      2          6           0        0.000000    0.000000    0.052748
      3          1           0       -0.531043    0.919793   -0.073853
      4          1           0       -0.531043   -0.919793   -0.073853
      5          1           0        1.062085    0.000000   -0.073853
      6         17           0        0.000000    0.000000    2.165620
 ---------------------------------------------------------------------
                    Distance matrix (angstroms):
                    1          2          3          4          5
     1  F    0.000000
     2  C    2.049556   0.000000
     3  H    2.196767   1.069604   0.000000
     4  H    2.196767   1.069604   1.839585   0.000000
     5  H    2.196767   1.069604   1.839585   1.839585   0.000000
     6  Cl   4.162429   2.112872   2.478561   2.478561   2.478561
                    6
     6  Cl   0.000000
 Stoichiometry    CH3ClF(1-)
 Framework group  C3V[C3(FCCl),3SGV(H)]
 Deg. of freedom     4
 Full point group                 C3V     NOp   6
 Largest Abelian subgroup         CS      NOp   2
 Largest concise Abelian subgroup CS      NOp   2
                         Standard orientation:                         
 ---------------------------------------------------------------------
 Center     Atomic      Atomic             Coordinates (Angstroms)
 Number     Number       Type             X           Y           Z
 ---------------------------------------------------------------------
      1          9           0        0.000000    0.000000   -2.537928
      2          6           0        0.000000    0.000000   -0.488372
      3          1           0       -0.000000    1.062085   -0.614972
      4          1           0       -0.919793   -0.531043   -0.614972
      5          1           0        0.919793   -0.531043   -0.614972
      6         17           0        0.000000    0.000000    1.624500
 ---------------------------------------------------------------------
 Rotational constants (GHZ):         148.1808741           2.2934982           2.2934982
 Leave Link  202 at Wed Oct 21 14:35:54 2020, MaxMem=  2684354560 cpu:               3.1 elap:               1.5
 (Enter /udrive/faculty/rpeverati/g16/g16/l301.exe)
 Standard basis: VSTO-6G (5D, 7F)
 Ernie: Thresh=  0.10000D-02 Tol=  0.10000D-05 Strict=F.
 EHB=         0.000000000 Number of Hydrogen Bonds=     0
  NNHCO=     0 NNPyr=     0 NCTC=     0               EPep=         0.000000000
    EC=        32.076575045  ECS=         0.594092452   EG=         0.108873945
   EHC=         0.000126132  EAt=       -32.223220683  AtH=         0.597721653
 EPDDG=         0.000000000  ECC=        32.779667574 EAtT=        32.820942336
  EHyb=         0.000000000
 There are    15 symmetry adapted cartesian basis functions of A'  symmetry.
 There are     6 symmetry adapted cartesian basis functions of A"  symmetry.
 There are    14 symmetry adapted basis functions of A'  symmetry.
 There are     6 symmetry adapted basis functions of A"  symmetry.
    20 basis functions,   126 primitive gaussians,    21 cartesian basis functions
    11 alpha electrons       11 beta electrons
       nuclear repulsion energy        65.6006099102 Hartrees.
 IExCor=    0 DFT=F Ex=HF Corr=None ExCW=0 ScaHFX=  1.000000
 ScaDFX=  1.000000  1.000000  1.000000  1.000000 ScalE2=  1.000000  1.000000
 IRadAn=      5 IRanWt=     -1 IRanGd=            0 ICorTp=0 IEmpDi=251
 Integral buffers will be    131072 words long.
 Regular integral format.
 Two-electron integral symmetry is turned off.
 R6Disp:  PM7 Dispersion energy=       -0.0002636015 Hartrees.
 Nuclear repulsion after empirical dispersion term =       65.6003463087 Hartrees.
 Leave Link  301 at Wed Oct 21 14:35:56 2020, MaxMem=  2684354560 cpu:               2.7 elap:               1.7
 (Enter /udrive/faculty/rpeverati/g16/g16/l302.exe)
 Do NDO integrals.
 NPDir=0 NMtPBC=     1 NCelOv=     1 NCel=       1 NClECP=     1 NCelD=      1
         NCelK=      1 NCelE2=     1 NClLst=     1 CellRange=     0.0.
 One-electron integrals computed using PRISM.
 NBasis=    20 RedAO= T EigKep=  1.00D+00  NBF=    14     6
 NBsUse=    20 1.00D-06 EigRej= -1.00D+00 NBFU=    14     6
 Leave Link  302 at Wed Oct 21 14:35:58 2020, MaxMem=  2684354560 cpu:               4.1 elap:               1.3
 (Enter /udrive/faculty/rpeverati/g16/g16/l303.exe)
 DipDrv:  MaxL=1.
 Leave Link  303 at Wed Oct 21 14:36:00 2020, MaxMem=  2684354560 cpu:               3.3 elap:               1.4
 (Enter /udrive/faculty/rpeverati/g16/g16/l401.exe)
 SCF N**3 symmetry information disabled.
 Nonelectrostatic core Hamiltonian diagonalized for initial guess.
 JPrj=0 DoOrth=F DoCkMO=F.
 Initial guess orbital symmetries:
       Occupied  (A1) (A1) (E) (E) (A1) (E) (E) (A1) (A1) (E) (E)
       Virtual   (A1) (A1) (E) (E) (E) (E) (A1) (E) (E)
 The electronic state of the initial guess is 1-A1.
 Leave Link  401 at Wed Oct 21 14:36:02 2020, MaxMem=  2684354560 cpu:               3.9 elap:               1.5
 (Enter /udrive/faculty/rpeverati/g16/g16/l502.exe)
 Keep J ints in memory in canonical form, NReq=1849128.
 FoFCou: FMM=F IPFlag=           0 FMFlag=           0 FMFlg1=           0
         NFxFlg=           0 DoJE=F BraDBF=F KetDBF=F FulRan=T
         wScrn=  0.000000 ICntrl=       600 IOpCl=  2 I1Cent=           0 NGrid=           0
         NMat0=    1 NMatS0=     68 NMatT0=    0 NMatD0=    1 NMtDS0=    0 NMtDT0=    0
 Symmetry not used in FoFCou.
 Two-electron integral symmetry not used.
 Closed shell SCF:
 Using DIIS extrapolation, IDIIS=  1040.
 Overlap will be assumed to be unity.
 NGot=  2684354560 LenX=  2684291729 LenY=  2684290847
 Requested convergence on RMS density matrix=1.00D-08 within 120 cycles.
 Requested convergence on MAX density matrix=1.00D-06.
 Requested convergence on             energy=1.00D-06.
 No special actions if energy rises.

 Cycle   1  Pass 1  IDiag  1:
 E= 0.104021735876557    
 DIIS: error= 5.57D-02 at cycle   1 NSaved=   1.
 NSaved= 1 IEnMin= 1 EnMin= 0.104021735876557     IErMin= 1 ErrMin= 5.57D-02
 ErrMax= 5.57D-02  0.00D+00 EMaxC= 1.00D-01 BMatC= 3.51D-02 BMatP= 3.51D-02
 IDIUse=3 WtCom= 4.43D-01 WtEn= 5.57D-01
 Coeff-Com:  0.100D+01
 Coeff-En:   0.100D+01
 Coeff:      0.100D+01
 GapD=    2.000 DampG=2.000 DampE=0.500 DampFc=1.0000 IDamp=-1.
 RMSDP=2.70D-02 MaxDP=3.05D-01              OVMax= 0.00D+00

 Cycle   2  Pass 1  IDiag  1:
 E=-0.881302751302684E-01 Delta-E=       -0.192152011007 Rises=F Damp=F
 DIIS: error= 1.84D-02 at cycle   2 NSaved=   2.
 NSaved= 2 IEnMin= 2 EnMin=-0.881302751302684E-01 IErMin= 2 ErrMin= 1.84D-02
 ErrMax= 1.84D-02  0.00D+00 EMaxC= 1.00D-01 BMatC= 7.37D-03 BMatP= 3.51D-02
 IDIUse=3 WtCom= 8.16D-01 WtEn= 1.84D-01
 Coeff-Com: -0.475D+00 0.148D+01
 Coeff-En:   0.000D+00 0.100D+01
 Coeff:     -0.388D+00 0.139D+01
 RMSDP=1.32D-02 MaxDP=1.11D-01 DE=-1.92D-01 OVMax= 0.00D+00

 Cycle   3  Pass 1  IDiag  3:
 E=-0.125820254738159     Delta-E=       -0.037689979608 Rises=F Damp=F
 DIIS: error= 5.13D-03 at cycle   3 NSaved=   3.
 NSaved= 3 IEnMin= 3 EnMin=-0.125820254738159     IErMin= 3 ErrMin= 5.13D-03
 ErrMax= 5.13D-03  0.00D+00 EMaxC= 1.00D-01 BMatC= 5.11D-04 BMatP= 7.37D-03
 IDIUse=3 WtCom= 9.49D-01 WtEn= 5.13D-02
 Coeff-Com: -0.345D-01-0.219D+00 0.125D+01
 Coeff-En:   0.000D+00 0.000D+00 0.100D+01
 Coeff:     -0.327D-01-0.208D+00 0.124D+01
 Gap=     0.367 Goal=   None    Shift=    0.000
 RMSDP=4.18D-03 MaxDP=2.81D-02 DE=-3.77D-02 OVMax= 2.67D-02

 Cycle   4  Pass 1  IDiag  3:
 E=-0.128681565889607     Delta-E=       -0.002861311151 Rises=F Damp=F
 DIIS: error= 7.61D-04 at cycle   4 NSaved=   4.
 NSaved= 4 IEnMin= 4 EnMin=-0.128681565889607     IErMin= 4 ErrMin= 7.61D-04
 ErrMax= 7.61D-04  0.00D+00 EMaxC= 1.00D-01 BMatC= 1.91D-05 BMatP= 5.11D-04
 IDIUse=3 WtCom= 9.92D-01 WtEn= 7.61D-03
 Coeff-Com:  0.974D-03 0.107D+00-0.584D+00 0.148D+01
 Coeff-En:   0.000D+00 0.000D+00 0.000D+00 0.100D+01
 Coeff:      0.967D-03 0.107D+00-0.579D+00 0.147D+01
 Gap=     0.363 Goal=   None    Shift=    0.000
 RMSDP=6.94D-04 MaxDP=4.67D-03 DE=-2.86D-03 OVMax= 4.55D-03

 Cycle   5  Pass 1  IDiag  3:
 E=-0.128765936242061     Delta-E=       -0.000084370352 Rises=F Damp=F
 DIIS: error= 1.72D-04 at cycle   5 NSaved=   5.
 NSaved= 5 IEnMin= 5 EnMin=-0.128765936242061     IErMin= 5 ErrMin= 1.72D-04
 ErrMax= 1.72D-04  0.00D+00 EMaxC= 1.00D-01 BMatC= 4.88D-07 BMatP= 1.91D-05
 IDIUse=3 WtCom= 9.98D-01 WtEn= 1.72D-03
 Coeff-Com:  0.221D-02-0.319D-01 0.159D+00-0.489D+00 0.136D+01
 Coeff-En:   0.000D+00 0.000D+00 0.000D+00 0.000D+00 0.100D+01
 Coeff:      0.221D-02-0.319D-01 0.158D+00-0.488D+00 0.136D+01
 Gap=     0.363 Goal=   None    Shift=    0.000
 RMSDP=1.27D-04 MaxDP=1.20D-03 DE=-8.44D-05 OVMax= 1.32D-03

 Cycle   6  Pass 1  IDiag  3:
 E=-0.128768776285853     Delta-E=       -0.000002840044 Rises=F Damp=F
 DIIS: error= 4.52D-05 at cycle   6 NSaved=   6.
 NSaved= 6 IEnMin= 6 EnMin=-0.128768776285853     IErMin= 6 ErrMin= 4.52D-05
 ErrMax= 4.52D-05  0.00D+00 EMaxC= 1.00D-01 BMatC= 3.16D-08 BMatP= 4.88D-07
 IDIUse=1 WtCom= 1.00D+00 WtEn= 0.00D+00
 Coeff-Com: -0.147D-02 0.126D-01-0.537D-01 0.155D+00-0.595D+00 0.148D+01
 Coeff:     -0.147D-02 0.126D-01-0.537D-01 0.155D+00-0.595D+00 0.148D+01
 Gap=     0.363 Goal=   None    Shift=    0.000
 RMSDP=3.96D-05 MaxDP=3.55D-04 DE=-2.84D-06 OVMax= 3.87D-04

 Cycle   7  Pass 1  IDiag  3:
 E=-0.128768979286321     Delta-E=       -0.000000203000 Rises=F Damp=F
 DIIS: error= 4.16D-06 at cycle   7 NSaved=   7.
 NSaved= 7 IEnMin= 7 EnMin=-0.128768979286321     IErMin= 7 ErrMin= 4.16D-06
 ErrMax= 4.16D-06  0.00D+00 EMaxC= 1.00D-01 BMatC= 7.05D-10 BMatP= 3.16D-08
 IDIUse=1 WtCom= 1.00D+00 WtEn= 0.00D+00
 Coeff-Com:  0.146D-03-0.139D-02 0.636D-02-0.197D-01 0.928D-01-0.358D+00
 Coeff-Com:  0.128D+01
 Coeff:      0.146D-03-0.139D-02 0.636D-02-0.197D-01 0.928D-01-0.358D+00
 Coeff:      0.128D+01
 Gap=     0.363 Goal=   None    Shift=    0.000
 RMSDP=4.94D-06 MaxDP=3.61D-05 DE=-2.03D-07 OVMax= 4.10D-05

 Cycle   8  Pass 1  IDiag  3:
 E=-0.128768982489106     Delta-E=       -0.000000003203 Rises=F Damp=F
 DIIS: error= 7.23D-07 at cycle   8 NSaved=   8.
 NSaved= 8 IEnMin= 8 EnMin=-0.128768982489106     IErMin= 8 ErrMin= 7.23D-07
 ErrMax= 7.23D-07  0.00D+00 EMaxC= 1.00D-01 BMatC= 1.38D-11 BMatP= 7.05D-10
 IDIUse=1 WtCom= 1.00D+00 WtEn= 0.00D+00
 Coeff-Com: -0.211D-04 0.136D-03-0.624D-03 0.239D-02-0.159D-01 0.824D-01
 Coeff-Com: -0.383D+00 0.131D+01
 Coeff:     -0.211D-04 0.136D-03-0.624D-03 0.239D-02-0.159D-01 0.824D-01
 Coeff:     -0.383D+00 0.131D+01
 Gap=     0.363 Goal=   None    Shift=    0.000
 RMSDP=5.73D-07 MaxDP=4.16D-06 DE=-3.20D-09 OVMax= 5.42D-06

 Cycle   9  Pass 1  IDiag  3:
 E=-0.128768982554590     Delta-E=       -0.000000000065 Rises=F Damp=F
 DIIS: error= 2.18D-07 at cycle   9 NSaved=   9.
 NSaved= 9 IEnMin= 9 EnMin=-0.128768982554590     IErMin= 9 ErrMin= 2.18D-07
 ErrMax= 2.18D-07  0.00D+00 EMaxC= 1.00D-01 BMatC= 6.22D-13 BMatP= 1.38D-11
 IDIUse=1 WtCom= 1.00D+00 WtEn= 0.00D+00
 Coeff-Com:  0.227D-05-0.748D-05 0.481D-04-0.356D-03 0.332D-02-0.198D-01
 Coeff-Com:  0.981D-01-0.467D+00 0.139D+01
 Coeff:      0.227D-05-0.748D-05 0.481D-04-0.356D-03 0.332D-02-0.198D-01
 Coeff:      0.981D-01-0.467D+00 0.139D+01
 Gap=     0.363 Goal=   None    Shift=    0.000
 RMSDP=1.69D-07 MaxDP=1.57D-06 DE=-6.55D-11 OVMax= 2.04D-06

 Cycle  10  Pass 1  IDiag  3:
 E=-0.128768982558697     Delta-E=       -0.000000000004 Rises=F Damp=F
 DIIS: error= 4.42D-08 at cycle  10 NSaved=  10.
 NSaved=10 IEnMin=10 EnMin=-0.128768982558697     IErMin=10 ErrMin= 4.42D-08
 ErrMax= 4.42D-08  0.00D+00 EMaxC= 1.00D-01 BMatC= 2.78D-14 BMatP= 6.22D-13
 IDIUse=1 WtCom= 1.00D+00 WtEn= 0.00D+00
 Coeff-Com:  0.309D-06-0.130D-05-0.518D-05 0.809D-04-0.724D-03 0.435D-02
 Coeff-Com: -0.224D-01 0.136D+00-0.543D+00 0.143D+01
 Coeff:      0.309D-06-0.130D-05-0.518D-05 0.809D-04-0.724D-03 0.435D-02
 Coeff:     -0.224D-01 0.136D+00-0.543D+00 0.143D+01
 Gap=     0.363 Goal=   None    Shift=    0.000
 RMSDP=4.04D-08 MaxDP=3.96D-07 DE=-4.11D-12 OVMax= 5.17D-07

 Cycle  11  Pass 1  IDiag  3:
 E=-0.128768982558768     Delta-E=       -0.000000000000 Rises=F Damp=F
 DIIS: error= 8.62D-09 at cycle  11 NSaved=  11.
 NSaved=11 IEnMin=11 EnMin=-0.128768982558768     IErMin=11 ErrMin= 8.62D-09
 ErrMax= 8.62D-09  0.00D+00 EMaxC= 1.00D-01 BMatC= 1.91D-15 BMatP= 2.78D-14
 IDIUse=1 WtCom= 1.00D+00 WtEn= 0.00D+00
 Coeff-Com: -0.182D-06 0.631D-06 0.146D-05-0.255D-04 0.217D-03-0.124D-02
 Coeff-Com:  0.608D-02-0.409D-01 0.187D+00-0.725D+00 0.157D+01
 Coeff:     -0.182D-06 0.631D-06 0.146D-05-0.255D-04 0.217D-03-0.124D-02
 Coeff:      0.608D-02-0.409D-01 0.187D+00-0.725D+00 0.157D+01
 Gap=     0.363 Goal=   None    Shift=    0.000
 RMSDP=1.17D-08 MaxDP=1.01D-07 DE=-7.11D-14 OVMax= 1.29D-07

 Cycle  12  Pass 1  IDiag  3:
 E=-0.128768982558910     Delta-E=       -0.000000000000 Rises=F Damp=F
 DIIS: error= 9.56D-10 at cycle  12 NSaved=  12.
 NSaved=12 IEnMin=12 EnMin=-0.128768982558910     IErMin=12 ErrMin= 9.56D-10
 ErrMax= 9.56D-10  0.00D+00 EMaxC= 1.00D-01 BMatC= 2.67D-17 BMatP= 1.91D-15
 IDIUse=1 WtCom= 1.00D+00 WtEn= 0.00D+00
 Coeff-Com:  0.188D-08 0.130D-06-0.130D-05 0.762D-05-0.525D-04 0.279D-03
 Coeff-Com: -0.132D-02 0.822D-02-0.370D-01 0.155D+00-0.394D+00 0.127D+01
 Coeff:      0.188D-08 0.130D-06-0.130D-05 0.762D-05-0.525D-04 0.279D-03
 Coeff:     -0.132D-02 0.822D-02-0.370D-01 0.155D+00-0.394D+00 0.127D+01
 Gap=     0.363 Goal=   None    Shift=    0.000
 RMSDP=8.10D-10 MaxDP=4.72D-09 DE=-1.42D-13 OVMax= 8.31D-09

 Cycle  13  Pass 2  IDiag  1:
 SCF Done:  E(RPM7) = -0.128768982559     A.U. after   13 cycles
            NFock= 12  Conv=0.81D-09     -V/T= 0.9977
 KE=-5.692562471955D+01 PE=-6.503557917113D+01 EE= 5.623208859940D+01
 Leave Link  502 at Wed Oct 21 14:36:06 2020, MaxMem=  2684354560 cpu:              24.4 elap:               3.3
 (Enter /udrive/faculty/rpeverati/g16/g16/l508.exe)
 QCSCF skips out because SCF is already converged.
 Leave Link  508 at Wed Oct 21 14:36:08 2020, MaxMem=  2684354560 cpu:               1.6 elap:               0.9
 (Enter /udrive/faculty/rpeverati/g16/g16/l601.exe)
 Copying SCF densities to generalized density rwf, IOpCl= 0 IROHF=0.

 **********************************************************************

            Population analysis using the SCF density.

 **********************************************************************

 Orbital symmetries:
       Occupied  (A1) (A1) (A1) (E) (E) (A1) (E) (E) (E) (E) (A1)
       Virtual   (A1) (A1) (E) (E) (A1) (E) (E) (E) (E)
 The electronic state is 1-A1.
 Alpha  occ. eigenvalues --   -1.02575  -0.80467  -0.71730  -0.38754  -0.38754
 Alpha  occ. eigenvalues --   -0.29009  -0.24033  -0.24033  -0.22936  -0.22936
 Alpha  occ. eigenvalues --   -0.19624
 Alpha virt. eigenvalues --    0.16632   0.36539   0.36651   0.36651   2.90012
 Alpha virt. eigenvalues --    2.90543   2.90543   2.92917   2.92917
          Condensed to atoms (all electrons):
               1          2          3          4          5          6
     1  F    7.866224   0.000000   0.000000   0.000000   0.000000   0.000000
     2  C    0.000000   3.873630   0.000000   0.000000   0.000000   0.000000
     3  H    0.000000   0.000000   0.860828   0.000000   0.000000   0.000000
     4  H    0.000000   0.000000   0.000000   0.860828   0.000000   0.000000
     5  H    0.000000   0.000000   0.000000   0.000000   0.860828   0.000000
     6  Cl   0.000000   0.000000   0.000000   0.000000   0.000000   7.677663
 Mulliken charges:
               1
     1  F   -0.866224
     2  C    0.126370
     3  H    0.139172
     4  H    0.139172
     5  H    0.139172
     6  Cl  -0.677663
 Sum of Mulliken charges =  -1.00000
 Mulliken charges with hydrogens summed into heavy atoms:
               1
     1  F   -0.866224
     2  C    0.543887
     6  Cl  -0.677663
 Charge=             -1.0000 electrons
 Dipole moment (field-independent basis, Debye):
    X=             -0.0000    Y=             -0.0004    Z=              3.7795  Tot=              3.7795
 N-N= 6.560034630872D+01 E-N=-6.503557918017D+01  KE=-5.692562471955D+01
 Leave Link  601 at Wed Oct 21 14:36:11 2020, MaxMem=  2684354560 cpu:               4.1 elap:               1.7
 (Enter /udrive/faculty/rpeverati/g16/g16/l701.exe)
 ... and contract with generalized density number  0.
 Compute integral first derivatives.
 R6Disp: Adding PM7 dispersion energy 1st derivatives to the gradient.
 Leave Link  701 at Wed Oct 21 14:36:13 2020, MaxMem=  2684354560 cpu:               8.4 elap:               1.7
 (Enter /udrive/faculty/rpeverati/g16/g16/l702.exe)
 L702 exits ... SP integral derivatives will be done elsewhere.
 Leave Link  702 at Wed Oct 21 14:36:15 2020, MaxMem=  2684354560 cpu:               2.5 elap:               1.4
 (Enter /udrive/faculty/rpeverati/g16/g16/l703.exe)
 Integral derivatives from FoFJK, PRISM(SPDF).
 Compute integral first derivatives, UseDBF=F ICtDFT=           0.
 Calling FoFJK, ICntrl=      2127 FMM=F ISym2X=1 I1Cent= 0 IOpClX= 0 NMat=1 NMatS=1 NMatT=0.
 FoFJK:  IHMeth=43 ICntrl=    2127 DoSepK=F KAlg= 0 I1Cent=           0 FoldK=F
 IRaf=         0 NMat=       1 IRICut=       1 DoRegI=T DoRafI=F ISym2E= 1 IDoP0=3 IntGTp=3.
 FoFCou: FMM=F IPFlag=           0 FMFlag=      100000 FMFlg1=         800
         NFxFlg=           0 DoJE=F BraDBF=F KetDBF=F FulRan=T
         wScrn=  0.000000 ICntrl=      2127 IOpCl=  0 I1Cent=           0 NGrid=           0
         NMat0=    1 NMatS0=      1 NMatT0=    0 NMatD0=    1 NMtDS0=    0 NMtDT0=    0
 Petite list used in FoFCou.
 Leave Link  703 at Wed Oct 21 14:36:17 2020, MaxMem=  2684354560 cpu:               4.7 elap:               1.3
 (Enter /udrive/faculty/rpeverati/g16/g16/l716.exe)
 Dipole        =-8.88178420D-16-1.68581199D-04 1.48697223D+00
 ***** Axes restored to original set *****
 -------------------------------------------------------------------
 Center     Atomic                   Forces (Hartrees/Bohr)
 Number     Number              X              Y              Z
 -------------------------------------------------------------------
      1        9           0.000000000   -0.000000000   -0.004084961
      2        6           0.000000000   -0.000000000    0.005880892
      3        1          -0.003567085    0.006178372    0.004847389
      4        1          -0.003567085   -0.006178372    0.004847389
      5        1           0.007134170   -0.000000000    0.004847389
      6       17           0.000000000   -0.000000000   -0.016338098
 -------------------------------------------------------------------
 Cartesian Forces:  Max     0.016338098 RMS     0.005484250
 Leave Link  716 at Wed Oct 21 14:36:19 2020, MaxMem=  2684354560 cpu:               2.0 elap:               1.5
 (Enter /udrive/faculty/rpeverati/g16/g16/l103.exe)

 GradGradGradGradGradGradGradGradGradGradGradGradGradGradGradGradGradGrad
 Berny optimization.
 Optmz: redundant internal coordinate code flag= 1
 FormGI is forming the generalized inverse of G from B-inverse, IUseBI=4.
 Internal  Forces:  Max     0.016338098 RMS     0.004095038
 Search for a saddle point.
 Step number   1 out of a maximum of   50
 All quantities printed in internal units (Hartrees-Bohrs-Radians)
 Swapping is turned off.
 Second derivative matrix not updated -- first step.
 The second derivative matrix:
                          R1        R2        R3        R4        R5
           R1           0.08001
           R2           0.00000   0.03162
           R3           0.00000   0.00000   0.03162
           R4           0.00000   0.00000   0.00000   0.03162
           R5           0.00000   0.00000   0.00000   0.00000   0.37280
           R6           0.00000   0.00000   0.00000   0.00000   0.00000
           R7           0.00000   0.00000   0.00000   0.00000   0.00000
           R8           0.00000   0.00000   0.00000   0.00000   0.00000
           A1           0.00000   0.00000   0.00000   0.00000   0.00000
           A2           0.00000   0.00000   0.00000   0.00000   0.00000
           A3           0.00000   0.00000   0.00000   0.00000   0.00000
           A4           0.00000   0.00000   0.00000   0.00000   0.00000
           A5           0.00000   0.00000   0.00000   0.00000   0.00000
           A6           0.00000   0.00000   0.00000   0.00000   0.00000
           A7           0.00000   0.00000   0.00000   0.00000   0.00000
           A8           0.00000   0.00000   0.00000   0.00000   0.00000
           A9           0.00000   0.00000   0.00000   0.00000   0.00000
           A10          0.00000   0.00000   0.00000   0.00000   0.00000
           A11          0.00000   0.00000   0.00000   0.00000   0.00000
           D1           0.00000   0.00000   0.00000   0.00000   0.00000
           D2           0.00000   0.00000   0.00000   0.00000   0.00000
           D3           0.00000   0.00000   0.00000   0.00000   0.00000
           D4           0.00000   0.00000   0.00000   0.00000   0.00000
           D5           0.00000   0.00000   0.00000   0.00000   0.00000
                          R6        R7        R8        A1        A2
           R6           0.37280
           R7           0.00000   0.37280
           R8           0.00000   0.00000   0.11496
           A1           0.00000   0.00000   0.00000   0.16000
           A2           0.00000   0.00000   0.00000   0.00000   0.16000
           A3           0.00000   0.00000   0.00000   0.00000   0.00000
           A4           0.00000   0.00000   0.00000   0.00000   0.00000
           A5           0.00000   0.00000   0.00000   0.00000   0.00000
           A6           0.00000   0.00000   0.00000   0.00000   0.00000
           A7           0.00000   0.00000   0.00000   0.00000   0.00000
           A8           0.00000   0.00000   0.00000   0.00000   0.00000
           A9           0.00000   0.00000   0.00000   0.00000   0.00000
           A10          0.00000   0.00000   0.00000   0.00000   0.00000
           A11          0.00000   0.00000   0.00000   0.00000   0.00000
           D1           0.00000   0.00000   0.00000   0.00000   0.00000
           D2           0.00000   0.00000   0.00000   0.00000   0.00000
           D3           0.00000   0.00000   0.00000   0.00000   0.00000
           D4           0.00000   0.00000   0.00000   0.00000   0.00000
           D5           0.00000   0.00000   0.00000   0.00000   0.00000
                          A3        A4        A5        A6        A7
           A3           0.16000
           A4           0.00000   0.16000
           A5           0.00000   0.00000   0.16000
           A6           0.00000   0.00000   0.00000   0.16000
           A7           0.00000   0.00000   0.00000   0.00000   0.16000
           A8           0.00000   0.00000   0.00000   0.00000   0.00000
           A9           0.00000   0.00000   0.00000   0.00000   0.00000
           A10          0.00000   0.00000   0.00000   0.00000   0.00000
           A11          0.00000   0.00000   0.00000   0.00000   0.00000
           D1           0.00000   0.00000   0.00000   0.00000   0.00000
           D2           0.00000   0.00000   0.00000   0.00000   0.00000
           D3           0.00000   0.00000   0.00000   0.00000   0.00000
           D4           0.00000   0.00000   0.00000   0.00000   0.00000
           D5           0.00000   0.00000   0.00000   0.00000   0.00000
                          A8        A9        A10       A11       D1
           A8           0.16000
           A9           0.00000   0.16000
           A10          0.00000   0.00000   0.00230
           A11          0.00000   0.00000   0.00000   0.00230
           D1           0.00000   0.00000   0.00000   0.00000   0.00230
           D2           0.00000   0.00000   0.00000   0.00000   0.00000
           D3           0.00000   0.00000   0.00000   0.00000   0.00000
           D4           0.00000   0.00000   0.00000   0.00000   0.00000
           D5           0.00000   0.00000   0.00000   0.00000   0.00000
                          D2        D3        D4        D5
           D2           0.00505
           D3           0.00000   0.00230
           D4           0.00000   0.00000   0.00230
           D5           0.00000   0.00000   0.00000   0.00230
 ITU=  0
 Eigenvectors of the second derivative matrix:
                           1         2         3         4         5
     Eigenvalues --     0.02697   0.02755   0.03875   0.05665   0.07361
   1         R1         0.00169   0.00009   0.07332   0.61927  -0.16394
   2         R2         0.33009   0.64480   0.40179   0.28142  -0.00061
   3         R3         0.39373  -0.60686   0.40184   0.28157   0.00083
   4         R4        -0.71019  -0.03718   0.41823   0.27929  -0.07438
   5         R5        -0.00080   0.00167   0.01170   0.01564  -0.00798
   6         R6        -0.00066  -0.00172   0.01170   0.01564  -0.00788
   7         R7         0.00059   0.00001   0.01285   0.01803   0.00119
   8         R8         0.00000  -0.00000   0.00000  -0.00000   0.00000
   9         A1        -0.07615  -0.00399  -0.05461  -0.10071  -0.12885
  10         A2         0.03983  -0.06064  -0.07032  -0.05549   0.08015
  11         A3         0.03346   0.06447  -0.07033  -0.05551   0.07972
  12         A4         0.01670   0.00085   0.10709  -0.16559  -0.45753
  13         A5        -0.00855   0.02362   0.05538  -0.00327   0.26812
  14         A6         0.02338   0.05159  -0.18013   0.13351  -0.14845
  15         A7        -0.00611  -0.02436   0.05539  -0.00328   0.26703
  16         A8         0.02901  -0.04917  -0.18014   0.13345  -0.14992
  17         A9        -0.05747  -0.00271  -0.18214   0.16161   0.10511
  18         A10        0.19902   0.39555  -0.00219  -0.00883  -0.07053
  19         A11        0.39320  -0.20370  -0.00379  -0.01539  -0.12387
  20         D1        -0.15022  -0.00787   0.00109  -0.08155  -0.27436
  21         D2        -0.00933  -0.00050  -0.60488   0.49685  -0.09976
  22         D3         0.02798   0.00138   0.03571  -0.11512  -0.53195
  23         D4         0.01583  -0.03438   0.01786  -0.05757  -0.26668
  24         D5        -0.01216  -0.03575  -0.01786   0.05755   0.26527
                           6         7         8         9        10
     Eigenvalues --     0.07897   0.10703   0.10789   0.11496   0.32203
   1         R1        -0.00030   0.03029   0.00548   0.00000   0.06998
   2         R2         0.09678   0.08578   0.22545   0.00000  -0.07454
   3         R3        -0.09746   0.16259  -0.18044  -0.00000  -0.07459
   4         R4         0.00060  -0.25402  -0.04606   0.00000   0.01360
   5         R5         0.01245   0.01317   0.02373  -0.00000  -0.61255
   6         R6        -0.01253   0.02084  -0.01745  -0.00000  -0.61267
   7         R7         0.00005  -0.03140  -0.00579   0.00000   0.27235
   8         R8         0.00000   0.00000  -0.00000   1.00000   0.00000
   9         A1        -0.00024   0.03318   0.00611  -0.00000  -0.24206
  10         A2        -0.12828  -0.02509   0.03509   0.00000  -0.08011
  11         A3         0.12856  -0.01071  -0.04167  -0.00000  -0.08012
  12         A4        -0.00108   0.19371   0.03538  -0.00000   0.07622
  13         A5        -0.43965  -0.14477   0.18608   0.00000  -0.03390
  14         A6        -0.17497  -0.19384  -0.57501  -0.00000  -0.03733
  15         A7         0.44088  -0.06743  -0.22481  -0.00000  -0.03387
  16         A8         0.17512  -0.38525   0.46682   0.00000  -0.03749
  17         A9        -0.00053   0.62511   0.11653  -0.00000   0.05377
  18         A10       -0.12565  -0.16483  -0.46194  -0.00000   0.01330
  19         A11        0.07315  -0.46421   0.16331   0.00000   0.02301
  20         D1        -0.00050   0.06763   0.01245  -0.00000  -0.25603
  21         D2        -0.00016   0.00396   0.00066   0.00000  -0.04030
  22         D3        -0.00108   0.07958   0.01403  -0.00000   0.06291
  23         D4         0.48820   0.05979  -0.09664  -0.00000   0.03145
  24         D5         0.48929  -0.01980  -0.11067  -0.00000  -0.03146
                          11        12
     Eigenvalues --     0.33555   0.35931
   1         R1         0.08843   0.00001
   2         R2        -0.02962   0.03077
   3         R3        -0.02957  -0.03083
   4         R4        -0.08444   0.00004
   5         R5        -0.17930   0.68588
   6         R6        -0.17912  -0.68580
   7         R7        -0.88565  -0.00017
   8         R8         0.00000   0.00000
   9         A1        -0.08650   0.00002
  10         A2        -0.22188   0.14675
  11         A3        -0.22185  -0.14682
  12         A4        -0.04135   0.00000
  13         A5         0.03061  -0.02279
  14         A6         0.00791   0.06770
  15         A7         0.03058   0.02279
  16         A8         0.00807  -0.06787
  17         A9        -0.06539   0.00017
  18         A10       -0.01319  -0.05376
  19         A11       -0.02284   0.03100
  20         D1         0.12617   0.00007
  21         D2        -0.04316  -0.00000
  22         D3        -0.03920  -0.00003
  23         D4        -0.01960   0.00942
  24         D5         0.01961   0.00945
 Eigenvalue     1 is   2.70D-02 should be less than     0.000000 Eigenvector:
                          R4        R3        A11       R2        A10
   1                   -0.71019   0.39373   0.39320   0.33009   0.19902
                          D1        A1        A9        A2        A3
   1                   -0.15022  -0.07615  -0.05747   0.03983   0.03346
 RLam0= 2.70D-02.
 Iter=   1 RLamda= 0.00000000D+00 Sum=-3.85093405D-03.
 Iter=   2 RLamda=-3.85093405D-03 Sum=-3.66066926D-03.
 Iter=   3 RLamda=-3.66066926D-03 Sum=-3.66948427D-03.
 Iter=   4 RLamda=-3.66948427D-03 Sum=-3.66907463D-03.
 Iter=   5 RLamda=-3.66907463D-03 Sum=-3.66909366D-03.
 Iter=   6 RLamda=-3.66909366D-03 Sum=-3.66909278D-03.
 RFO step:  Lambda0=2.697070457D-02 Lambda=-3.66909366D-03.
 Linear search not attempted -- option 19 set.
 Maximum step size (   0.100) exceeded in Quadratic search.
    -- Step size scaled by   0.354
 Iteration  1 RMS(Cart)=  0.02137933 RMS(Int)=  0.00032743
 Iteration  2 RMS(Cart)=  0.00021526 RMS(Int)=  0.00012224
 Iteration  3 RMS(Cart)=  0.00000002 RMS(Int)=  0.00012224
 ITry= 1 IFail=0 DXMaxC= 5.49D-02 DCOld= 1.00D+10 DXMaxT= 1.00D-01 DXLimC= 3.00D+00 Rises=F
 ClnCor:  largest displacement from symmetrization is 5.49D-02 for atom     1.
 Variable       Old X    -DE/DX   Delta X   Delta X   Delta X     New X
                                 (Linear)    (Quad)   (Total)
    R1        3.87310  -0.00206   0.00000  -0.00568  -0.00636   3.86674
    R2        4.15129   0.00274   0.00000  -0.00544   0.00596   4.15725
    R3        4.15129   0.00274   0.00000  -0.01035   0.00596   4.15725
    R4        4.15129   0.00273   0.00000   0.07481   0.00596   4.15725
    R5        2.02126   0.00479   0.00000   0.00558  -0.00406   2.01720
    R6        2.02126   0.00479   0.00000   0.00557  -0.00406   2.01720
    R7        2.02126   0.00487   0.00000   0.00546  -0.00406   2.01720
    R8        3.99275  -0.01634   0.00000  -0.04881  -0.04920   3.94355
    A1        0.86403   0.00163   0.00000   0.00520  -0.00243   0.86160
    A2        0.86403   0.00181   0.00000  -0.00362  -0.00243   0.86160
    A3        0.86403   0.00181   0.00000  -0.00313  -0.00243   0.86160
    A4        2.07030   0.00019   0.00000   0.00331   0.00273   2.07303
    A5        2.07030   0.00078   0.00000   0.00570   0.00273   2.07303
    A6        1.68944  -0.00143   0.00000  -0.01398  -0.00700   1.68244
    A7        2.07030   0.00078   0.00000   0.00551   0.00273   2.07303
    A8        1.68944  -0.00143   0.00000  -0.01441  -0.00700   1.68244
    A9        1.68944  -0.00150   0.00000  -0.00775  -0.00700   1.68244
   A10        3.14159   0.00003   0.00000  -0.01535   0.00000   3.14159
   A11        3.14159   0.00005   0.00000  -0.03033   0.00000   3.14159
    D1        1.16613   0.00029   0.00000   0.01125  -0.00074   1.16540
    D2       -2.73718  -0.00470   0.00000  -0.03942  -0.02316  -2.76034
    D3        2.09440  -0.00040   0.00000  -0.00246   0.00000   2.09440
    D4       -2.09440  -0.00020   0.00000  -0.00137   0.00000  -2.09440
    D5        2.09440   0.00020   0.00000   0.00109   0.00000   2.09440
         Item               Value     Threshold  Converged?
 Maximum Force            0.016338     0.000450     NO 
 RMS     Force            0.004095     0.000300     NO 
 Maximum Displacement     0.053849     0.001800     NO 
 RMS     Displacement     0.011607     0.001200     NO 
 Predicted change in Energy=-7.703789D-04
 Lowest energy point so far.  Saving SCF results.
 Largest change from initial coordinates is atom    6       0.028 Angstoms.
 GradGradGradGradGradGradGradGradGradGradGradGradGradGradGradGradGradGrad

 Leave Link  103 at Wed Oct 21 14:36:22 2020, MaxMem=  2684354560 cpu:              20.0 elap:               2.9
 (Enter /udrive/faculty/rpeverati/g16/g16/l202.exe)
                          Input orientation:                          
 ---------------------------------------------------------------------
 Center     Atomic      Atomic             Coordinates (Angstroms)
 Number     Number       Type             X           Y           Z
 ---------------------------------------------------------------------
      1          9           0       -0.000000    0.000000   -1.995900
      2          6           0       -0.000000   -0.000000    0.050288
      3          1           0       -0.530404    0.918687   -0.068637
      4          1           0       -0.530404   -0.918687   -0.068637
      5          1           0        1.060809   -0.000000   -0.068637
      6         17           0       -0.000000    0.000000    2.137124
 ---------------------------------------------------------------------
                    Distance matrix (angstroms):
                    1          2          3          4          5
     1  F    0.000000
     2  C    2.046189   0.000000
     3  H    2.199922   1.067454   0.000000
     4  H    2.199922   1.067454   1.837375   0.000000
     5  H    2.199922   1.067454   1.837375   1.837375   0.000000
     6  Cl   4.133024   2.086836   2.447590   2.447590   2.447590
                    6
     6  Cl   0.000000
 Stoichiometry    CH3ClF(1-)
 Framework group  C3V[C3(FCCl),3SGV(H)]
 Deg. of freedom     4
 Full point group                 C3V     NOp   6
 RotChk:  IX=0 Diff= 0.00D+00
 Largest Abelian subgroup         CS      NOp   2
 Largest concise Abelian subgroup CS      NOp   2
                         Standard orientation:                         
 ---------------------------------------------------------------------
 Center     Atomic      Atomic             Coordinates (Angstroms)
 Number     Number       Type             X           Y           Z
 ---------------------------------------------------------------------
      1          9           0        0.000000    0.000000   -2.523438
      2          6           0        0.000000    0.000000   -0.477250
      3          1           0       -0.000000    1.060809   -0.596175
      4          1           0       -0.918687   -0.530404   -0.596175
      5          1           0        0.918687   -0.530404   -0.596175
      6         17           0        0.000000    0.000000    1.609586
 ---------------------------------------------------------------------
 Rotational constants (GHZ):         148.5376654           2.3281583           2.3281583
 Leave Link  202 at Wed Oct 21 14:36:24 2020, MaxMem=  2684354560 cpu:               2.8 elap:               1.2
 (Enter /udrive/faculty/rpeverati/g16/g16/l301.exe)
 Standard basis: VSTO-6G (5D, 7F)
 Ernie: Thresh=  0.10000D-02 Tol=  0.10000D-05 Strict=F.
 EHB=         0.000000000 Number of Hydrogen Bonds=     0
  NNHCO=     0 NNPyr=     0 NCTC=     0               EPep=         0.000000000
    EC=        32.222460144  ECS=         0.601794563   EG=         0.110345577
   EHC=         0.000129541  EAt=       -32.223220683  AtH=         0.597721653
 EPDDG=         0.000000000  ECC=        32.934729826 EAtT=        32.820942336
  EHyb=         0.000000000
 There are    15 symmetry adapted cartesian basis functions of A'  symmetry.
 There are     6 symmetry adapted cartesian basis functions of A"  symmetry.
 There are    14 symmetry adapted basis functions of A'  symmetry.
 There are     6 symmetry adapted basis functions of A"  symmetry.
    20 basis functions,   126 primitive gaussians,    21 cartesian basis functions
    11 alpha electrons       11 beta electrons
       nuclear repulsion energy        65.7556721619 Hartrees.
 IExCor=    0 DFT=F Ex=HF Corr=None ExCW=0 ScaHFX=  1.000000
 ScaDFX=  1.000000  1.000000  1.000000  1.000000 ScalE2=  1.000000  1.000000
 IRadAn=      5 IRanWt=     -1 IRanGd=            0 ICorTp=0 IEmpDi=251
 Integral buffers will be    131072 words long.
 Regular integral format.
 Two-electron integral symmetry is turned off.
 R6Disp:  PM7 Dispersion energy=       -0.0002625050 Hartrees.
 Nuclear repulsion after empirical dispersion term =       65.7554096569 Hartrees.
 Leave Link  301 at Wed Oct 21 14:36:27 2020, MaxMem=  2684354560 cpu:               8.2 elap:               1.9
 (Enter /udrive/faculty/rpeverati/g16/g16/l302.exe)
 Do NDO integrals.
 NPDir=0 NMtPBC=     1 NCelOv=     1 NCel=       1 NClECP=     1 NCelD=      1
         NCelK=      1 NCelE2=     1 NClLst=     1 CellRange=     0.0.
 One-electron integrals computed using PRISM.
 NBasis=    20 RedAO= T EigKep=  1.00D+00  NBF=    14     6
 NBsUse=    20 1.00D-06 EigRej= -1.00D+00 NBFU=    14     6
 Leave Link  302 at Wed Oct 21 14:36:29 2020, MaxMem=  2684354560 cpu:               5.4 elap:               1.8
 (Enter /udrive/faculty/rpeverati/g16/g16/l303.exe)
 DipDrv:  MaxL=1.
 Leave Link  303 at Wed Oct 21 14:36:31 2020, MaxMem=  2684354560 cpu:               3.9 elap:               1.3
 (Enter /udrive/faculty/rpeverati/g16/g16/l401.exe)
 Initial guess from the checkpoint file:  "MN_37_fch3clts_BH76_PM7_SE.chk"
 SCF N**3 symmetry information disabled.
 B after Tr=     0.000000   -0.000000    0.000000
         Rot=    1.000000    0.000000   -0.000000    0.000000 Ang=   0.00 deg.
 Guess basis will be translated and rotated to current coordinates.
 JPrj=0 DoOrth=T DoCkMO=T.
 Initial guess orbital symmetries:
       Occupied  (A1) (A1) (A1) (E) (E) (A1) (E) (E) (E) (E) (A1)
       Virtual   (A1) (A1) (E) (E) (A1) (E) (E) (E) (E)
 The electronic state of the initial guess is 1-A1.
 Leave Link  401 at Wed Oct 21 14:36:34 2020, MaxMem=  2684354560 cpu:               6.2 elap:               1.7
 (Enter /udrive/faculty/rpeverati/g16/g16/l502.exe)
 Keep J ints in memory in canonical form, NReq=1849128.
 FoFCou: FMM=F IPFlag=           0 FMFlag=           0 FMFlg1=           0
         NFxFlg=           0 DoJE=F BraDBF=F KetDBF=F FulRan=T
         wScrn=  0.000000 ICntrl=       600 IOpCl=  2 I1Cent=           0 NGrid=           0
         NMat0=    1 NMatS0=     68 NMatT0=    0 NMatD0=    1 NMtDS0=    0 NMtDT0=    0
 Symmetry not used in FoFCou.
 Two-electron integral symmetry not used.
 Closed shell SCF:
 Using DIIS extrapolation, IDIIS=  1040.
 Overlap will be assumed to be unity.
 NGot=  2684354560 LenX=  2684291729 LenY=  2684290847
 Requested convergence on RMS density matrix=1.00D-08 within 120 cycles.
 Requested convergence on MAX density matrix=1.00D-06.
 Requested convergence on             energy=1.00D-06.
 No special actions if energy rises.

 Cycle   1  Pass 1  IDiag  1:
 E=-0.129486295648562    
 DIIS: error= 8.67D-04 at cycle   1 NSaved=   1.
 NSaved= 1 IEnMin= 1 EnMin=-0.129486295648562     IErMin= 1 ErrMin= 8.67D-04
 ErrMax= 8.67D-04  0.00D+00 EMaxC= 1.00D-01 BMatC= 1.19D-05 BMatP= 1.19D-05
 IDIUse=3 WtCom= 9.91D-01 WtEn= 8.67D-03
 Coeff-Com:  0.100D+01
 Coeff-En:   0.100D+01
 Coeff:      0.100D+01
 RMSDP=3.43D-04 MaxDP=2.94D-03              OVMax= 0.00D+00

 Cycle   2  Pass 1  IDiag  3:
 E=-0.129522001068239     Delta-E=       -0.000035705420 Rises=F Damp=F
 DIIS: error= 3.84D-04 at cycle   2 NSaved=   2.
 NSaved= 2 IEnMin= 2 EnMin=-0.129522001068239     IErMin= 2 ErrMin= 3.84D-04
 ErrMax= 3.84D-04  0.00D+00 EMaxC= 1.00D-01 BMatC= 1.10D-06 BMatP= 1.19D-05
 IDIUse=3 WtCom= 9.96D-01 WtEn= 3.84D-03
 Coeff-Com: -0.303D+00 0.130D+01
 Coeff-En:   0.000D+00 0.100D+01
 Coeff:     -0.302D+00 0.130D+01
 Gap=     0.365 Goal=   None    Shift=    0.000
 RMSDP=1.88D-04 MaxDP=1.77D-03 DE=-3.57D-05 OVMax= 1.78D-03

 Cycle   3  Pass 1  IDiag  3:
 E=-0.129528420553072     Delta-E=       -0.000006419485 Rises=F Damp=F
 DIIS: error= 1.03D-04 at cycle   3 NSaved=   3.
 NSaved= 3 IEnMin= 3 EnMin=-0.129528420553072     IErMin= 3 ErrMin= 1.03D-04
 ErrMax= 1.03D-04  0.00D+00 EMaxC= 1.00D-01 BMatC= 8.45D-08 BMatP= 1.10D-06
 IDIUse=3 WtCom= 9.99D-01 WtEn= 1.03D-03
 Coeff-Com:  0.700D-01-0.534D+00 0.146D+01
 Coeff-En:   0.000D+00 0.000D+00 0.100D+01
 Coeff:      0.700D-01-0.533D+00 0.146D+01
 Gap=     0.365 Goal=   None    Shift=    0.000
 RMSDP=6.84D-05 MaxDP=6.59D-04 DE=-6.42D-06 OVMax= 6.70D-04

 Cycle   4  Pass 1  IDiag  3:
 E=-0.129528989378798     Delta-E=       -0.000000568826 Rises=F Damp=F
 DIIS: error= 1.02D-05 at cycle   4 NSaved=   4.
 NSaved= 4 IEnMin= 4 EnMin=-0.129528989378798     IErMin= 4 ErrMin= 1.02D-05
 ErrMax= 1.02D-05  0.00D+00 EMaxC= 1.00D-01 BMatC= 3.50D-09 BMatP= 8.45D-08
 IDIUse=1 WtCom= 1.00D+00 WtEn= 0.00D+00
 Coeff-Com: -0.277D-01 0.238D+00-0.753D+00 0.154D+01
 Coeff:     -0.277D-01 0.238D+00-0.753D+00 0.154D+01
 Gap=     0.365 Goal=   None    Shift=    0.000
 RMSDP=1.04D-05 MaxDP=6.43D-05 DE=-5.69D-07 OVMax= 8.19D-05

 Cycle   5  Pass 1  IDiag  3:
 E=-0.129529006989486     Delta-E=       -0.000000017611 Rises=F Damp=F
 DIIS: error= 2.48D-06 at cycle   5 NSaved=   5.
 NSaved= 5 IEnMin= 5 EnMin=-0.129529006989486     IErMin= 5 ErrMin= 2.48D-06
 ErrMax= 2.48D-06  0.00D+00 EMaxC= 1.00D-01 BMatC= 8.60D-11 BMatP= 3.50D-09
 IDIUse=1 WtCom= 1.00D+00 WtEn= 0.00D+00
 Coeff-Com:  0.823D-02-0.713D-01 0.231D+00-0.556D+00 0.139D+01
 Coeff:      0.823D-02-0.713D-01 0.231D+00-0.556D+00 0.139D+01
 Gap=     0.365 Goal=   None    Shift=    0.000
 RMSDP=1.40D-06 MaxDP=1.27D-05 DE=-1.76D-08 OVMax= 1.20D-05

 Cycle   6  Pass 1  IDiag  3:
 E=-0.129529007409673     Delta-E=       -0.000000000420 Rises=F Damp=F
 DIIS: error= 5.55D-07 at cycle   6 NSaved=   6.
 NSaved= 6 IEnMin= 6 EnMin=-0.129529007409673     IErMin= 6 ErrMin= 5.55D-07
 ErrMax= 5.55D-07  0.00D+00 EMaxC= 1.00D-01 BMatC= 5.03D-12 BMatP= 8.60D-11
 IDIUse=1 WtCom= 1.00D+00 WtEn= 0.00D+00
 Coeff-Com: -0.250D-02 0.217D-01-0.709D-01 0.180D+00-0.623D+00 0.150D+01
 Coeff:     -0.250D-02 0.217D-01-0.709D-01 0.180D+00-0.623D+00 0.150D+01
 Gap=     0.365 Goal=   None    Shift=    0.000
 RMSDP=3.75D-07 MaxDP=3.35D-06 DE=-4.20D-10 OVMax= 3.19D-06

 Cycle   7  Pass 1  IDiag  3:
 E=-0.129529007435878     Delta-E=       -0.000000000026 Rises=F Damp=F
 DIIS: error= 6.65D-08 at cycle   7 NSaved=   7.
 NSaved= 7 IEnMin= 7 EnMin=-0.129529007435878     IErMin= 7 ErrMin= 6.65D-08
 ErrMax= 6.65D-08  0.00D+00 EMaxC= 1.00D-01 BMatC= 1.16D-13 BMatP= 5.03D-12
 IDIUse=1 WtCom= 1.00D+00 WtEn= 0.00D+00
 Coeff-Com:  0.364D-03-0.316D-02 0.105D-01-0.269D-01 0.115D+00-0.418D+00
 Coeff-Com:  0.132D+01
 Coeff:      0.364D-03-0.316D-02 0.105D-01-0.269D-01 0.115D+00-0.418D+00
 Coeff:      0.132D+01
 Gap=     0.365 Goal=   None    Shift=    0.000
 RMSDP=5.65D-08 MaxDP=3.66D-07 DE=-2.62D-11 OVMax= 5.29D-07

 Cycle   8  Pass 1  IDiag  3:
 E=-0.129529007436418     Delta-E=       -0.000000000001 Rises=F Damp=F
 DIIS: error= 7.32D-09 at cycle   8 NSaved=   8.
 NSaved= 8 IEnMin= 8 EnMin=-0.129529007436418     IErMin= 8 ErrMin= 7.32D-09
 ErrMax= 7.32D-09  0.00D+00 EMaxC= 1.00D-01 BMatC= 8.98D-16 BMatP= 1.16D-13
 IDIUse=1 WtCom= 1.00D+00 WtEn= 0.00D+00
 Coeff-Com: -0.108D-03 0.939D-03-0.312D-02 0.800D-02-0.344D-01 0.127D+00
 Coeff-Com: -0.420D+00 0.132D+01
 Coeff:     -0.108D-03 0.939D-03-0.312D-02 0.800D-02-0.344D-01 0.127D+00
 Coeff:     -0.420D+00 0.132D+01
 Gap=     0.365 Goal=   None    Shift=    0.000
 RMSDP=4.57D-09 MaxDP=2.85D-08 DE=-5.40D-13 OVMax= 5.46D-08

 Cycle   9  Pass 2  IDiag  1:
 SCF Done:  E(RPM7) = -0.129529007436     A.U. after    9 cycles
            NFock=  8  Conv=0.46D-08     -V/T= 0.9977
 KE=-5.693005153091D+01 PE=-6.534879569646D+01 EE= 5.639390856300D+01
 Leave Link  502 at Wed Oct 21 14:36:37 2020, MaxMem=  2684354560 cpu:              14.1 elap:               2.6
 (Enter /udrive/faculty/rpeverati/g16/g16/l508.exe)
 QCSCF skips out because SCF is already converged.
 Leave Link  508 at Wed Oct 21 14:36:39 2020, MaxMem=  2684354560 cpu:               1.2 elap:               0.9
 (Enter /udrive/faculty/rpeverati/g16/g16/l701.exe)
 ... and contract with generalized density number  0.
 Compute integral first derivatives.
 R6Disp: Adding PM7 dispersion energy 1st derivatives to the gradient.
 Leave Link  701 at Wed Oct 21 14:36:41 2020, MaxMem=  2684354560 cpu:               3.9 elap:               1.6
 (Enter /udrive/faculty/rpeverati/g16/g16/l702.exe)
 L702 exits ... SP integral derivatives will be done elsewhere.
 Leave Link  702 at Wed Oct 21 14:36:43 2020, MaxMem=  2684354560 cpu:               2.7 elap:               1.4
 (Enter /udrive/faculty/rpeverati/g16/g16/l703.exe)
 Integral derivatives from FoFJK, PRISM(SPDF).
 Compute integral first derivatives, UseDBF=F ICtDFT=           0.
 Calling FoFJK, ICntrl=      2127 FMM=F ISym2X=1 I1Cent= 0 IOpClX= 0 NMat=1 NMatS=1 NMatT=0.
 FoFJK:  IHMeth=43 ICntrl=    2127 DoSepK=F KAlg= 0 I1Cent=           0 FoldK=F
 IRaf=         0 NMat=       1 IRICut=       1 DoRegI=T DoRafI=F ISym2E= 1 IDoP0=3 IntGTp=3.
 FoFCou: FMM=F IPFlag=           0 FMFlag=      100000 FMFlg1=         800
         NFxFlg=           0 DoJE=F BraDBF=F KetDBF=F FulRan=T
         wScrn=  0.000000 ICntrl=      2127 IOpCl=  0 I1Cent=           0 NGrid=           0
         NMat0=    1 NMatS0=      1 NMatT0=    0 NMatD0=    1 NMtDS0=    0 NMtDT0=    0
 Petite list used in FoFCou.
 Leave Link  703 at Wed Oct 21 14:36:45 2020, MaxMem=  2684354560 cpu:               5.7 elap:               1.6
 (Enter /udrive/faculty/rpeverati/g16/g16/l716.exe)
 Dipole        =-8.88178420D-16-1.83442876D-04 1.55203989D+00
 ***** Axes restored to original set *****
 -------------------------------------------------------------------
 Center     Atomic                   Forces (Hartrees/Bohr)
 Number     Number              X              Y              Z
 -------------------------------------------------------------------
      1        9           0.000000000   -0.000000000   -0.005015991
      2        6           0.000000000   -0.000000000    0.007864889
      3        1          -0.004143901    0.007177448    0.002765819
      4        1          -0.004143902   -0.007177448    0.002765819
      5        1           0.008287803   -0.000000000    0.002765819
      6       17           0.000000000   -0.000000000   -0.011146354
 -------------------------------------------------------------------
 Cartesian Forces:  Max     0.011146354 RMS     0.004945650
 Leave Link  716 at Wed Oct 21 14:36:47 2020, MaxMem=  2684354560 cpu:               1.9 elap:               1.3
 (Enter /udrive/faculty/rpeverati/g16/g16/l103.exe)

 GradGradGradGradGradGradGradGradGradGradGradGradGradGradGradGradGradGrad
 Berny optimization.
 Optmz: redundant internal coordinate code flag= 1
 Red2BG:  D1=  3.72D-01 OD1=  2.18D-02 B2RMS=  0.00D+00 IAprox=0
 FormGI is forming the generalized inverse of G from B-inverse, IUseBI=4.
 Internal  Forces:  Max     0.011146354 RMS     0.003402063
 Search for a saddle point.
 Step number   2 out of a maximum of   50
 All quantities printed in internal units (Hartrees-Bohrs-Radians)
 Swapping is turned off.
 Update second derivatives using D2CorX and points    1    2
 The second derivative matrix:
                          R1        R2        R3        R4        R5
           R1           0.08293
           R2          -0.00057   0.03086
           R3          -0.00057  -0.00076   0.03086
           R4          -0.00070  -0.00068  -0.00068   0.03101
           R5          -0.00007   0.00079   0.00079   0.00075   0.37211
           R6          -0.00007   0.00079   0.00079   0.00075  -0.00070
           R7           0.00019   0.00064   0.00064   0.00059  -0.00061
           R8           0.00792   0.00437   0.00437   0.00367  -0.00548
           A1           0.00072   0.00002   0.00002  -0.00002  -0.00016
           A2           0.00060   0.00009   0.00009   0.00005  -0.00020
           A3           0.00060   0.00009   0.00009   0.00005  -0.00020
           A4           0.00018  -0.00061  -0.00061  -0.00059   0.00051
           A5          -0.00049  -0.00021  -0.00021  -0.00018   0.00029
           A6           0.00048   0.00101   0.00101   0.00092  -0.00100
           A7          -0.00049  -0.00021  -0.00021  -0.00018   0.00029
           A8           0.00048   0.00101   0.00101   0.00092  -0.00100
           A9           0.00062   0.00093   0.00093   0.00084  -0.00095
           A10         -0.00000   0.00000   0.00000   0.00000  -0.00000
           A11         -0.00001   0.00001   0.00001   0.00001  -0.00000
           D1           0.00063  -0.00024  -0.00024  -0.00026   0.00009
           D2           0.01072  -0.00213  -0.00213  -0.00260  -0.00023
           D3           0.00044  -0.00026  -0.00026  -0.00027   0.00015
           D4           0.00022  -0.00013  -0.00013  -0.00014   0.00007
           D5          -0.00022   0.00013   0.00013   0.00014  -0.00007
                          R6        R7        R8        A1        A2
           R6           0.37211
           R7          -0.00061   0.37229
           R8          -0.00548  -0.00409   0.09624
           A1          -0.00016  -0.00008   0.00084   0.16014
           A2          -0.00020  -0.00012   0.00024   0.00011   0.16008
           A3          -0.00020  -0.00012   0.00024   0.00011   0.00008
           A4           0.00051   0.00046   0.00440   0.00015   0.00017
           A5           0.00029   0.00021   0.00078  -0.00006  -0.00003
           A6          -0.00100  -0.00083  -0.00618  -0.00009  -0.00016
           A7           0.00029   0.00021   0.00078  -0.00006  -0.00003
           A8          -0.00100  -0.00083  -0.00618  -0.00009  -0.00016
           A9          -0.00095  -0.00077  -0.00544  -0.00004  -0.00012
           A10         -0.00000  -0.00000  -0.00003  -0.00000  -0.00000
           A11         -0.00000  -0.00000  -0.00005  -0.00000  -0.00000
           D1           0.00009   0.00013   0.00251   0.00018   0.00016
           D2          -0.00023   0.00070   0.02922   0.00263   0.00222
           D3           0.00015   0.00016   0.00238   0.00014   0.00013
           D4           0.00007   0.00008   0.00119   0.00007   0.00007
           D5          -0.00007  -0.00008  -0.00119  -0.00007  -0.00007
                          A3        A4        A5        A6        A7
           A3           0.16008
           A4           0.00017   0.15963
           A5          -0.00003  -0.00023   0.15997
           A6          -0.00016   0.00076   0.00031   0.15869
           A7          -0.00003  -0.00023  -0.00003   0.00031   0.15997
           A8          -0.00016   0.00076   0.00031  -0.00131   0.00031
           A9          -0.00012   0.00073   0.00027  -0.00122   0.00027
           A10         -0.00000   0.00000   0.00000  -0.00000   0.00000
           A11         -0.00000   0.00000   0.00000  -0.00001   0.00000
           D1           0.00016  -0.00004  -0.00015   0.00025  -0.00015
           D2           0.00222   0.00063  -0.00179   0.00179  -0.00179
           D3           0.00013  -0.00009  -0.00014   0.00029  -0.00014
           D4           0.00007  -0.00005  -0.00007   0.00015  -0.00007
           D5          -0.00007   0.00005   0.00007  -0.00015   0.00007
                          A8        A9        A10       A11       D1
           A8           0.15869
           A9          -0.00122   0.15887
           A10         -0.00000  -0.00000   0.00230
           A11         -0.00001  -0.00001   0.00000   0.00230
           D1           0.00025   0.00027  -0.00000  -0.00000   0.00242
           D2           0.00179   0.00229  -0.00002  -0.00003   0.00231
           D3           0.00029   0.00030  -0.00000  -0.00000   0.00007
           D4           0.00015   0.00015  -0.00000  -0.00000   0.00004
           D5          -0.00015  -0.00015   0.00000   0.00000  -0.00004
                          D2        D3        D4        D5
           D2           0.04433
           D3           0.00160   0.00233
           D4           0.00080   0.00001   0.00231
           D5          -0.00080  -0.00001  -0.00001   0.00231
 ITU=  0  0
 Eigenvectors of the second derivative matrix:
                           1         2         3         4         5
     Eigenvalues --     0.02693   0.02751   0.04335   0.06651   0.07390
   1         R1         0.00429   0.00021   0.40947   0.34792  -0.14685
   2         R2         0.33285   0.64262   0.48802   0.00818   0.05130
   3         R3         0.38990  -0.60867   0.48806   0.00854   0.05239
   4         R4        -0.71052  -0.03335   0.50223  -0.01031  -0.01048
   5         R5        -0.00090   0.00157   0.01535  -0.00460   0.00013
   6         R6        -0.00078  -0.00163   0.01535  -0.00458   0.00021
   7         R7         0.00064   0.00001   0.01696   0.00000   0.00873
   8         R8        -0.00190  -0.00009  -0.06969  -0.49411   0.37526
   9         A1        -0.07602  -0.00357  -0.08896  -0.08278  -0.12266
  10         A2         0.03931  -0.06068  -0.09748   0.01362   0.06639
  11         A3         0.03361   0.06410  -0.09748   0.01357   0.06608
  12         A4         0.01569   0.00072   0.04395  -0.28992  -0.40920
  13         A5        -0.00878   0.02323   0.01704   0.05308   0.25332
  14         A6         0.02508   0.05145  -0.06870   0.13461  -0.15759
  15         A7        -0.00663  -0.02393   0.01704   0.05301   0.25256
  16         A8         0.03012  -0.04914  -0.06871   0.13436  -0.15869
  17         A9        -0.05592  -0.00235  -0.06851   0.21611   0.06115
  18         A10        0.20176   0.39569  -0.00250  -0.02352  -0.06111
  19         A11        0.39303  -0.20624  -0.00434  -0.04108  -0.10712
  20         D1        -0.15024  -0.00706  -0.01731  -0.13408  -0.25081
  21         D2        -0.00423  -0.00020  -0.23177   0.58700  -0.18507
  22         D3         0.02679   0.00118   0.01836  -0.24489  -0.48077
  23         D4         0.01499  -0.03334   0.00918  -0.12250  -0.24088
  24         D5        -0.01181  -0.03453  -0.00918   0.12238   0.23989
                           6         7         8         9        10
     Eigenvalues --     0.07947   0.10623   0.10768   0.11430   0.32130
   1         R1        -0.00010  -0.07728  -0.00898   0.31524   0.07325
   2         R2         0.09335   0.08660   0.21658   0.06595  -0.07806
   3         R3        -0.09381   0.12642  -0.19842   0.06396  -0.07810
   4         R4         0.00062  -0.26296  -0.02318  -0.04315   0.00846
   5         R5         0.01236   0.00831   0.02222   0.02180  -0.61953
   6         R6        -0.01239   0.01231  -0.02057   0.02157  -0.61963
   7         R7         0.00005  -0.03464  -0.00319   0.00125   0.23366
   8         R8         0.00048  -0.24793  -0.02697   0.73979   0.01932
   9         A1        -0.00017   0.02724   0.00241   0.01581  -0.24504
  10         A2        -0.12842  -0.01033   0.03568  -0.02811  -0.08903
  11         A3         0.12859  -0.00349  -0.03662  -0.02850  -0.08905
  12         A4        -0.00079   0.16949   0.01486   0.07463   0.07363
  13         A5        -0.44444  -0.08763   0.19388  -0.11340  -0.03240
  14         A6        -0.16797  -0.27998  -0.56129   0.04999  -0.03713
  15         A7         0.44531  -0.04965  -0.20484  -0.11544  -0.03238
  16         A8         0.16825  -0.37686   0.49913   0.05637  -0.03727
  17         A9        -0.00051   0.57182   0.05188   0.30059   0.05107
  18         A10       -0.12038  -0.19893  -0.44546  -0.06722   0.01339
  19         A11        0.07010  -0.43540   0.20731  -0.11093   0.02317
  20         D1        -0.00034   0.04688   0.00398   0.05469  -0.25067
  21         D2        -0.00007  -0.12901  -0.01436   0.42247  -0.04137
  22         D3        -0.00075   0.04616   0.00316   0.09714   0.06101
  23         D4         0.48819   0.03314  -0.09977   0.04814   0.03050
  24         D5         0.48894  -0.01302  -0.10293  -0.04900  -0.03051
                          11        12
     Eigenvalues --     0.33460   0.35920
   1         R1         0.08451   0.00001
   2         R2        -0.02839   0.03122
   3         R3        -0.02834  -0.03126
   4         R4        -0.08756   0.00004
   5         R5        -0.15256   0.68573
   6         R6        -0.15239  -0.68565
   7         R7        -0.89622  -0.00015
   8         R8         0.01808   0.00000
   9         A1        -0.07548   0.00002
  10         A2        -0.21745   0.14666
  11         A3        -0.21742  -0.14672
  12         A4        -0.04514   0.00000
  13         A5         0.03193  -0.02236
  14         A6         0.00948   0.06879
  15         A7         0.03191   0.02236
  16         A8         0.00964  -0.06895
  17         A9        -0.06845   0.00015
  18         A10       -0.01422  -0.05481
  19         A11       -0.02462   0.03161
  20         D1         0.13769   0.00006
  21         D2        -0.04327  -0.00000
  22         D3        -0.04255  -0.00003
  23         D4        -0.02127   0.00953
  24         D5         0.02128   0.00956
 Eigenvalue     1 is   2.69D-02 should be less than     0.000000 Eigenvector:
                          R4        A11       R3        R2        A10
   1                   -0.71052   0.39303   0.38990   0.33285   0.20176
                          D1        A1        A9        A2        A3
   1                   -0.15024  -0.07602  -0.05592   0.03931   0.03361
 RLam0= 2.69D-02.
 Iter=   1 RLamda= 0.00000000D+00 Sum=-2.09005668D-03.
 Iter=   2 RLamda=-2.09005668D-03 Sum=-2.03926455D-03.
 Iter=   3 RLamda=-2.03926455D-03 Sum=-2.04045961D-03.
 Iter=   4 RLamda=-2.04045961D-03 Sum=-2.04043147D-03.
 Iter=   5 RLamda=-2.04043147D-03 Sum=-2.04043213D-03.
 RFO step:  Lambda0=2.693371701D-02 Lambda=-2.04043147D-03.
 Linear search not attempted -- option 19 set.
 Maximum step size (   0.100) exceeded in Quadratic search.
    -- Step size scaled by   0.466
 Iteration  1 RMS(Cart)=  0.01923048 RMS(Int)=  0.00025108
 Iteration  2 RMS(Cart)=  0.00017556 RMS(Int)=  0.00005819
 Iteration  3 RMS(Cart)=  0.00000001 RMS(Int)=  0.00005819
 ITry= 1 IFail=0 DXMaxC= 5.12D-02 DCOld= 1.00D+10 DXMaxT= 1.00D-01 DXLimC= 3.00D+00 Rises=F
 ClnCor:  largest displacement from symmetrization is 5.13D-02 for atom     1.
 Variable       Old X    -DE/DX   Delta X   Delta X   Delta X     New X
                                 (Linear)    (Quad)   (Total)
    R1        3.86674  -0.00086   0.00000   0.01613   0.01551   3.88224
    R2        4.15725   0.00276   0.00000  -0.00067   0.01011   4.16736
    R3        4.15725   0.00276   0.00000  -0.00479   0.01011   4.16736
    R4        4.15725   0.00269   0.00000   0.07439   0.01011   4.16736
    R5        2.01720   0.00598   0.00000   0.00872  -0.00025   2.01695
    R6        2.01720   0.00598   0.00000   0.00871  -0.00025   2.01695
    R7        2.01720   0.00616   0.00000   0.00864  -0.00025   2.01695
    R8        3.94355  -0.01115   0.00000  -0.05327  -0.05361   3.88993
    A1        0.86160   0.00212   0.00000   0.00470  -0.00253   0.85908
    A2        0.86160   0.00226   0.00000  -0.00378  -0.00253   0.85908
    A3        0.86160   0.00226   0.00000  -0.00337  -0.00253   0.85908
    A4        2.07303   0.00002   0.00000   0.00046  -0.00069   2.07233
    A5        2.07303   0.00035   0.00000   0.00153  -0.00069   2.07233
    A6        1.68244  -0.00063   0.00000  -0.00481   0.00182   1.68426
    A7        2.07303   0.00035   0.00000   0.00138  -0.00069   2.07233
    A8        1.68244  -0.00063   0.00000  -0.00517   0.00182   1.68426
    A9        1.68244  -0.00064   0.00000   0.00108   0.00182   1.68426
   A10        3.14159   0.00003   0.00000  -0.01453   0.00000   3.14159
   A11        3.14159   0.00005   0.00000  -0.02831   0.00000   3.14159
    D1        1.16540   0.00049   0.00000   0.01078  -0.00076   1.16463
    D2       -2.76034  -0.00206   0.00000  -0.00970   0.00603  -2.75431
    D3        2.09440  -0.00023   0.00000  -0.00146   0.00000   2.09440
    D4       -2.09440  -0.00011   0.00000  -0.00085   0.00000  -2.09440
    D5        2.09440   0.00011   0.00000   0.00062   0.00000   2.09440
         Item               Value     Threshold  Converged?
 Maximum Force            0.011146     0.000450     NO 
 RMS     Force            0.003402     0.000300     NO 
 Maximum Displacement     0.044602     0.001800     NO 
 RMS     Displacement     0.009577     0.001200     NO 
 Predicted change in Energy=-4.934499D-04
 Lowest energy point so far.  Saving SCF results.
 Largest change from initial coordinates is atom    6       0.039 Angstoms.
 GradGradGradGradGradGradGradGradGradGradGradGradGradGradGradGradGradGrad

 Leave Link  103 at Wed Oct 21 14:36:51 2020, MaxMem=  2684354560 cpu:              20.8 elap:               3.1
 (Enter /udrive/faculty/rpeverati/g16/g16/l202.exe)
                          Input orientation:                          
 ---------------------------------------------------------------------
 Center     Atomic      Atomic             Coordinates (Angstroms)
 Number     Number       Type             X           Y           Z
 ---------------------------------------------------------------------
      1          9           0       -0.000000   -0.000000   -1.999338
      2          6           0       -0.000000   -0.000000    0.055057
      3          1           0       -0.530231    0.918387   -0.065783
      4          1           0       -0.530231   -0.918387   -0.065783
      5          1           0        1.060461   -0.000000   -0.065783
      6         17           0       -0.000000   -0.000000    2.113521
 ---------------------------------------------------------------------
                    Distance matrix (angstroms):
                    1          2          3          4          5
     1  F    0.000000
     2  C    2.054396   0.000000
     3  H    2.205270   1.067324   0.000000
     4  H    2.205270   1.067324   1.836773   0.000000
     5  H    2.205270   1.067324   1.836773   1.836773   0.000000
     6  Cl   4.112860   2.058464   2.423622   2.423622   2.423622
                    6
     6  Cl   0.000000
 Stoichiometry    CH3ClF(1-)
 Framework group  C3V[C3(FCCl),3SGV(H)]
 Deg. of freedom     4
 Full point group                 C3V     NOp   6
 RotChk:  IX=0 Diff= 0.00D+00
 Largest Abelian subgroup         CS      NOp   2
 Largest concise Abelian subgroup CS      NOp   2
                         Standard orientation:                         
 ---------------------------------------------------------------------
 Center     Atomic      Atomic             Coordinates (Angstroms)
 Number     Number       Type             X           Y           Z
 ---------------------------------------------------------------------
      1          9           0        0.000000    0.000000   -2.515590
      2          6           0        0.000000    0.000000   -0.461195
      3          1           0       -0.000000    1.060461   -0.582035
      4          1           0       -0.918387   -0.530231   -0.582035
      5          1           0        0.918387   -0.530231   -0.582035
      6         17           0        0.000000    0.000000    1.597270
 ---------------------------------------------------------------------
 Rotational constants (GHZ):         148.6349819           2.3537887           2.3537887
 Leave Link  202 at Wed Oct 21 14:36:53 2020, MaxMem=  2684354560 cpu:               4.0 elap:               1.7
 (Enter /udrive/faculty/rpeverati/g16/g16/l301.exe)
 Standard basis: VSTO-6G (5D, 7F)
 Ernie: Thresh=  0.10000D-02 Tol=  0.10000D-05 Strict=F.
 EHB=         0.000000000 Number of Hydrogen Bonds=     0
  NNHCO=     0 NNPyr=     0 NCTC=     0               EPep=         0.000000000
    EC=        32.317624002  ECS=         0.606457655   EG=         0.111250833
   EHC=         0.000130188  EAt=       -32.223220683  AtH=         0.597721653
 EPDDG=         0.000000000  ECC=        33.035462678 EAtT=        32.820942336
  EHyb=         0.000000000
 There are    15 symmetry adapted cartesian basis functions of A'  symmetry.
 There are     6 symmetry adapted cartesian basis functions of A"  symmetry.
 There are    14 symmetry adapted basis functions of A'  symmetry.
 There are     6 symmetry adapted basis functions of A"  symmetry.
    20 basis functions,   126 primitive gaussians,    21 cartesian basis functions
    11 alpha electrons       11 beta electrons
       nuclear repulsion energy        65.8564050138 Hartrees.
 IExCor=    0 DFT=F Ex=HF Corr=None ExCW=0 ScaHFX=  1.000000
 ScaDFX=  1.000000  1.000000  1.000000  1.000000 ScalE2=  1.000000  1.000000
 IRadAn=      5 IRanWt=     -1 IRanGd=            0 ICorTp=0 IEmpDi=251
 Integral buffers will be    131072 words long.
 Regular integral format.
 Two-electron integral symmetry is turned off.
 R6Disp:  PM7 Dispersion energy=       -0.0002614173 Hartrees.
 Nuclear repulsion after empirical dispersion term =       65.8561435964 Hartrees.
 Leave Link  301 at Wed Oct 21 14:36:56 2020, MaxMem=  2684354560 cpu:               5.3 elap:               1.7
 (Enter /udrive/faculty/rpeverati/g16/g16/l302.exe)
 Do NDO integrals.
 NPDir=0 NMtPBC=     1 NCelOv=     1 NCel=       1 NClECP=     1 NCelD=      1
         NCelK=      1 NCelE2=     1 NClLst=     1 CellRange=     0.0.
 One-electron integrals computed using PRISM.
 NBasis=    20 RedAO= T EigKep=  1.00D+00  NBF=    14     6
 NBsUse=    20 1.00D-06 EigRej= -1.00D+00 NBFU=    14     6
 Leave Link  302 at Wed Oct 21 14:36:58 2020, MaxMem=  2684354560 cpu:               5.4 elap:               1.3
 (Enter /udrive/faculty/rpeverati/g16/g16/l303.exe)
 DipDrv:  MaxL=1.
 Leave Link  303 at Wed Oct 21 14:37:00 2020, MaxMem=  2684354560 cpu:               4.6 elap:               1.7
 (Enter /udrive/faculty/rpeverati/g16/g16/l401.exe)
 Initial guess from the checkpoint file:  "MN_37_fch3clts_BH76_PM7_SE.chk"
 SCF N**3 symmetry information disabled.
 B after Tr=     0.000000    0.000000   -0.000000
         Rot=    1.000000    0.000000    0.000000    0.000000 Ang=   0.00 deg.
 Guess basis will be translated and rotated to current coordinates.
 JPrj=0 DoOrth=T DoCkMO=T.
 Initial guess orbital symmetries:
       Occupied  (A1) (A1) (A1) (E) (E) (A1) (E) (E) (E) (E) (A1)
       Virtual   (A1) (A1) (E) (E) (A1) (E) (E) (E) (E)
 The electronic state of the initial guess is 1-A1.
 Leave Link  401 at Wed Oct 21 14:37:02 2020, MaxMem=  2684354560 cpu:               6.6 elap:               1.5
 (Enter /udrive/faculty/rpeverati/g16/g16/l502.exe)
 Keep J ints in memory in canonical form, NReq=1849128.
 FoFCou: FMM=F IPFlag=           0 FMFlag=           0 FMFlg1=           0
         NFxFlg=           0 DoJE=F BraDBF=F KetDBF=F FulRan=T
         wScrn=  0.000000 ICntrl=       600 IOpCl=  2 I1Cent=           0 NGrid=           0
         NMat0=    1 NMatS0=     68 NMatT0=    0 NMatD0=    1 NMtDS0=    0 NMtDT0=    0
 Symmetry not used in FoFCou.
 Two-electron integral symmetry not used.
 Closed shell SCF:
 Using DIIS extrapolation, IDIIS=  1040.
 Overlap will be assumed to be unity.
 NGot=  2684354560 LenX=  2684291729 LenY=  2684290847
 Requested convergence on RMS density matrix=1.00D-08 within 120 cycles.
 Requested convergence on MAX density matrix=1.00D-06.
 Requested convergence on             energy=1.00D-06.
 No special actions if energy rises.

 Cycle   1  Pass 1  IDiag  1:
 E=-0.129951076879863    
 DIIS: error= 1.18D-03 at cycle   1 NSaved=   1.
 NSaved= 1 IEnMin= 1 EnMin=-0.129951076879863     IErMin= 1 ErrMin= 1.18D-03
 ErrMax= 1.18D-03  0.00D+00 EMaxC= 1.00D-01 BMatC= 2.13D-05 BMatP= 2.13D-05
 IDIUse=3 WtCom= 9.88D-01 WtEn= 1.18D-02
 Coeff-Com:  0.100D+01
 Coeff-En:   0.100D+01
 Coeff:      0.100D+01
 GapD=    2.000 DampG=2.000 DampE=1.000 DampFc=2.0000 IDamp=-1.
 RMSDP=6.02D-04 MaxDP=4.85D-03              OVMax= 0.00D+00

 Cycle   2  Pass 1  IDiag  3:
 E=-0.130048236638928     Delta-E=       -0.000097159759 Rises=F Damp=F
 DIIS: error= 5.42D-04 at cycle   2 NSaved=   2.
 NSaved= 2 IEnMin= 2 EnMin=-0.130048236638928     IErMin= 2 ErrMin= 5.42D-04
 ErrMax= 5.42D-04  0.00D+00 EMaxC= 1.00D-01 BMatC= 3.28D-06 BMatP= 2.13D-05
 IDIUse=3 WtCom= 9.95D-01 WtEn= 5.42D-03
 Coeff-Com: -0.499D+00 0.150D+01
 Coeff-En:   0.000D+00 0.100D+01
 Coeff:     -0.497D+00 0.150D+01
 Gap=     0.366 Goal=   None    Shift=    0.000
 RMSDP=4.13D-04 MaxDP=3.43D-03 DE=-9.72D-05 OVMax= 4.88D-03

 Cycle   3  Pass 1  IDiag  3:
 E=-0.130071898357215     Delta-E=       -0.000023661718 Rises=F Damp=F
 DIIS: error= 1.04D-04 at cycle   3 NSaved=   3.
 NSaved= 3 IEnMin= 3 EnMin=-0.130071898357215     IErMin= 3 ErrMin= 1.04D-04
 ErrMax= 1.04D-04  0.00D+00 EMaxC= 1.00D-01 BMatC= 1.75D-07 BMatP= 3.28D-06
 IDIUse=3 WtCom= 9.99D-01 WtEn= 1.04D-03
[...]
   9         A1        -0.05400  -0.08454   0.11638  -0.00052  -0.11512
  10         A2        -0.05738  -0.09629  -0.05324  -0.08992   0.05084
  11         A3        -0.05738  -0.09628  -0.05250   0.09041   0.05075
  12         A4        -0.02267   0.05000   0.13830  -0.00067  -0.52328
  13         A5        -0.03484   0.01487  -0.07125  -0.08367   0.26472
  14         A6         0.15792  -0.13671   0.01095  -0.00869  -0.00771
  15         A7        -0.03484   0.01488  -0.07060   0.08436   0.26445
  16         A8         0.15792  -0.13671   0.01088   0.00853  -0.00782
  17         A9         0.15838  -0.13616  -0.00358   0.00011  -0.01474
  18         A10       -0.00039  -0.00477  -0.18213   0.33330  -0.06438
  19         A11       -0.00068  -0.00833  -0.31932  -0.19099  -0.11169
  20         D1        -0.01311  -0.01344   0.22215  -0.00100  -0.21809
  21         D2         0.54062  -0.47035   0.00513   0.00001   0.02458
  22         D3         0.00814   0.02353   0.14132  -0.00069  -0.52814
  23         D4         0.00407   0.01177   0.07098   0.08505  -0.26421
  24         D5        -0.00407  -0.01176  -0.07034   0.08574   0.26392
                           6         7         8         9        10
     Eigenvalues --     0.03794   0.07449   0.07457   0.11659   0.21012
   1         R1         0.00000  -0.00008  -0.00004   0.22154  -0.01744
   2         R2        -0.12085   0.00764   0.18628  -0.02464   0.05665
   3         R3         0.12071   0.15820  -0.09960  -0.02464   0.05666
   4         R4         0.00015  -0.16727  -0.08742  -0.02783  -0.03142
   5         R5         0.03844   0.00364   0.07159  -0.05064   0.48324
   6         R6        -0.03844   0.06098  -0.03769  -0.05064   0.48326
   7         R7        -0.00000  -0.06419  -0.03368  -0.04937  -0.60539
   8         R8         0.00001  -0.00299  -0.00157   0.87750   0.02082
   9         A1        -0.00002   0.00408   0.00217  -0.01820   0.19484
  10         A2        -0.10934  -0.00383   0.00296  -0.02535  -0.02415
  11         A3         0.10936   0.00023  -0.00488  -0.02535  -0.02414
  12         A4        -0.00013   0.02925   0.01530  -0.00181  -0.05307
  13         A5        -0.48257  -0.02918   0.01987  -0.03037   0.02485
  14         A6         0.00340  -0.02573  -0.64393   0.10575   0.06417
  15         A7         0.48270  -0.00022  -0.03525  -0.03037   0.02484
  16         A8        -0.00336  -0.54416   0.34481   0.10575   0.06420
  17         A9        -0.00005   0.57065   0.29952   0.10967  -0.11100
  18         A10       -0.07169  -0.02240  -0.55964  -0.00063  -0.01288
  19         A11        0.04141  -0.55953   0.02291  -0.00108  -0.02230
  20         D1        -0.00004   0.00774   0.00411   0.00218   0.30122
  21         D2         0.00001  -0.00243  -0.00127   0.36462   0.02569
  22         D3        -0.00013  -0.02641  -0.01391   0.01890  -0.04083
  23         D4         0.48532  -0.02403   0.01375   0.00945  -0.02042
  24         D5         0.48545   0.00238   0.02766  -0.00945   0.02042
                          11        12
     Eigenvalues --     0.22927   0.23432
   1         R1        -0.08943   0.00000
   2         R2         0.08473   0.02018
   3         R3         0.08473  -0.02020
   4         R4         0.09545   0.00001
   5         R5         0.40860   0.67994
   6         R6         0.40855  -0.67995
   7         R7         0.69192  -0.00004
   8         R8         0.07833  -0.00000
   9         A1         0.16871  -0.00000
  10         A2         0.23014   0.15515
  11         A3         0.23012  -0.15517
  12         A4         0.00018  -0.00000
  13         A5        -0.00897   0.00423
  14         A6         0.01521   0.10775
  15         A7        -0.00897  -0.00423
  16         A8         0.01519  -0.10779
  17         A9         0.06080   0.00003
  18         A10        0.00557  -0.04474
  19         A11        0.00965   0.02582
  20         D1        -0.01487   0.00001
  21         D2         0.10346  -0.00000
  22         D3         0.00316  -0.00000
  23         D4         0.00158  -0.01482
  24         D5        -0.00158  -0.01482
 Eigenvalue     1 is  -2.24D-02 should be greater than     0.000000 Eigenvector:
                          R1        D2        R8        R4        R3
   1                    0.56845   0.54062  -0.41598   0.20419   0.20266
                          R2        A9        A8        A6        A3
   1                    0.20266   0.15838   0.15792   0.15792  -0.05738
 Angle between quadratic step and forces=  49.98 degrees.
 Linear search not attempted -- first point.
 Iteration  1 RMS(Cart)=  0.00000257 RMS(Int)=  0.00000000
 Iteration  2 RMS(Cart)=  0.00000000 RMS(Int)=  0.00000000
 ITry= 1 IFail=0 DXMaxC= 1.00D-05 DCOld= 1.00D+10 DXMaxT= 3.00D-01 DXLimC= 3.00D+00 Rises=F
 ClnCor:  largest displacement from symmetrization is 1.85D-07 for atom     4.
 Variable       Old X    -DE/DX   Delta X   Delta X   Delta X     New X
                                 (Linear)    (Quad)   (Total)
    R1        3.73592   0.00000   0.00000   0.00001   0.00001   3.73593
    R2        4.15662   0.00000   0.00000   0.00001   0.00001   4.15663
    R3        4.15662   0.00000   0.00000   0.00001   0.00001   4.15663
    R4        4.15662   0.00000   0.00000   0.00001   0.00001   4.15663
    R5        2.04540   0.00000   0.00000   0.00000   0.00000   2.04540
    R6        2.04540   0.00000   0.00000   0.00000   0.00000   2.04540
    R7        2.04540   0.00000   0.00000   0.00000   0.00000   2.04540
    R8        3.96390   0.00000   0.00000   0.00000   0.00000   3.96390
    A1        0.87897   0.00000   0.00000  -0.00000  -0.00000   0.87897
    A2        0.87897   0.00000   0.00000  -0.00000  -0.00000   0.87897
    A3        0.87897   0.00000   0.00000  -0.00000  -0.00000   0.87897
    A4        2.08888  -0.00000   0.00000   0.00000  -0.00000   2.08888
    A5        2.08888  -0.00000   0.00000  -0.00000  -0.00000   2.08888
    A6        1.62731   0.00000   0.00000   0.00000   0.00000   1.62731
    A7        2.08888  -0.00000   0.00000  -0.00000  -0.00000   2.08888
    A8        1.62731   0.00000   0.00000   0.00000   0.00000   1.62731
    A9        1.62731   0.00000   0.00000   0.00000   0.00000   1.62731
   A10        3.14159   0.00000   0.00000  -0.00000   0.00000   3.14159
   A11        3.14159   0.00000   0.00000  -0.00000   0.00000   3.14159
    D1        1.17073   0.00000   0.00000  -0.00000  -0.00000   1.17073
    D2       -2.94655   0.00000   0.00000   0.00000   0.00000  -2.94654
    D3        2.09440   0.00000   0.00000   0.00000   0.00000   2.09440
    D4       -2.09440   0.00000   0.00000   0.00000   0.00000  -2.09440
    D5        2.09440  -0.00000   0.00000  -0.00000   0.00000   2.09440
         Item               Value     Threshold  Converged?
 Maximum Force            0.000001     0.000450     YES
 RMS     Force            0.000000     0.000300     YES
 Maximum Displacement     0.000010     0.001800     YES
 RMS     Displacement     0.000003     0.001200     YES
 Predicted change in Energy=-1.417142D-11
 Optimization completed.
    -- Stationary point found.
                           ----------------------------
                           !   Optimized Parameters   !
                           ! (Angstroms and Degrees)  !
 --------------------------                            --------------------------
 ! Name  Definition              Value          Derivative Info.                !
 --------------------------------------------------------------------------------
 ! R1    R(1,2)                  1.977          -DE/DX =    0.0                 !
 ! R2    R(1,3)                  2.1996         -DE/DX =    0.0                 !
 ! R3    R(1,4)                  2.1996         -DE/DX =    0.0                 !
 ! R4    R(1,5)                  2.1996         -DE/DX =    0.0                 !
 ! R5    R(2,3)                  1.0824         -DE/DX =    0.0                 !
 ! R6    R(2,4)                  1.0824         -DE/DX =    0.0                 !
 ! R7    R(2,5)                  1.0824         -DE/DX =    0.0                 !
 ! R8    R(2,6)                  2.0976         -DE/DX =    0.0                 !
 ! A1    A(3,1,4)               50.3615         -DE/DX =    0.0                 !
 ! A2    A(3,1,5)               50.3615         -DE/DX =    0.0                 !
 ! A3    A(4,1,5)               50.3615         -DE/DX =    0.0                 !
 ! A4    A(3,2,4)              119.6839         -DE/DX =    0.0                 !
 ! A5    A(3,2,5)              119.6839         -DE/DX =    0.0                 !
 ! A6    A(3,2,6)               93.238          -DE/DX =    0.0                 !
 ! A7    A(4,2,5)              119.6839         -DE/DX =    0.0                 !
 ! A8    A(4,2,6)               93.238          -DE/DX =    0.0                 !
 ! A9    A(5,2,6)               93.238          -DE/DX =    0.0                 !
 ! A10   L(1,2,6,3,-1)         180.0            -DE/DX =    0.0                 !
 ! A11   L(1,2,6,3,-2)         180.0            -DE/DX =    0.0                 !
 ! D1    D(3,1,5,4)             67.078          -DE/DX =    0.0                 !
 ! D2    D(3,2,5,4)           -168.8247         -DE/DX =    0.0                 !
 ! D3    D(3,2,6,4)            120.0            -DE/DX =    0.0                 !
 ! D4    D(3,2,6,5)           -120.0            -DE/DX =    0.0                 !
 ! D5    D(4,2,6,5)            120.0            -DE/DX =    0.0                 !
 --------------------------------------------------------------------------------
 GradGradGradGradGradGradGradGradGradGradGradGradGradGradGradGradGradGrad

 Leave Link  103 at Wed Oct 21 14:41:06 2020, MaxMem=  2684354560 cpu:               6.6 elap:               1.8
 (Enter /udrive/faculty/rpeverati/g16/g16/l9999.exe)

 ----------------------------------------------------------------------

 Electric dipole moment (input orientation):
 (Debye = 10**-18 statcoulomb cm , SI units = C m)
                  (au)            (Debye)         (10**-30 SI)
   Tot        0.118455D+01      0.301083D+01      0.100431D+02
   x          0.799594D-04      0.203237D-03      0.677924D-03
   y         -0.138494D-03     -0.352016D-03     -0.117420D-02
   z          0.118455D+01      0.301083D+01      0.100431D+02

 Dipole polarizability, Alpha (input orientation).
 (esu units = cm**3 , SI units = C**2 m**2 J**-1)
 Alpha(0;0):
               (au)            (10**-24 esu)      (10**-40 SI)
   iso        0.269705D+02      0.399662D+01      0.444684D+01
   aniso      0.560883D+02      0.831143D+01      0.924771D+01
   xx         0.823425D+01      0.122019D+01      0.135764D+01
   yx        -0.696866D-01     -0.103265D-01     -0.114898D-01
   yy         0.831472D+01      0.123211D+01      0.137091D+01
   zx         0.415459D-03      0.615647D-04      0.684999D-04
   zy        -0.719596D-03     -0.106633D-03     -0.118645D-03
   zz         0.643626D+02      0.953755D+01      0.106120D+02

 First dipole hyperpolarizability, Beta (input orientation).
 ||, _|_  parallel and perpendicular components, (z) with respect to z axis,
 vector components x,y,z.  Values do not include the 1/n! factor of 1/2.
 (esu units = statvolt**-1 cm**4 , SI units = C**3 m**3 J**-2)
 Beta(0;0,0):
               (au)            (10**-30 esu)      (10**-50 SI)
   || (z)     0.173245D+03      0.149670D+01      0.555486D+00
   _|_(z)     0.577483D+02      0.498901D+00      0.185162D+00
   x         -0.141703D+00     -0.122421D-02     -0.454352D-03
   y          0.245437D+00      0.212039D-02      0.786960D-03
   z          0.866225D+03      0.748351D+01      0.277743D+01
   ||         0.173245D+03      0.149670D+01      0.555486D+00
   xxx        0.102481D+02      0.885357D-01      0.328592D-01
   xxy        0.197627D-01      0.170734D-03      0.633664D-04
   yxy       -0.102938D+02     -0.889300D-01     -0.330055D-01
   yyy        0.592880D-01      0.512202D-03      0.190099D-03
   xxz       -0.175977D+01     -0.152031D-01     -0.564246D-02
   yxz        0.148534D+00      0.128322D-02      0.476254D-03
   yyz       -0.193128D+01     -0.166848D-01     -0.619239D-02
   zxz       -0.159446D-02     -0.137749D-04     -0.511241D-05
   zyz        0.276168D-02      0.238588D-04      0.885495D-05
   zzz        0.292433D+03      0.252639D+01      0.937645D+00

 ----------------------------------------------------------------------

 Dipole orientation:
     9          0.00025145         -0.00043553         -3.72510589
     6         -0.00000073          0.00000126          0.01081312
     1         -1.02106031          1.76852834         -0.10499549
     1         -1.02106033         -1.76855283         -0.10458194
     1          2.04214184         -0.00001224         -0.10458194
    17         -0.00026830          0.00046471          3.97470966

 Electric dipole moment (dipole orientation):
 (Debye = 10**-18 statcoulomb cm , SI units = C m)
                  (au)            (Debye)         (10**-30 SI)
   Tot        0.118455D+01      0.301083D+01      0.100431D+02
   x          0.000000D+00      0.000000D+00      0.000000D+00
   y          0.000000D+00      0.000000D+00      0.000000D+00
   z          0.118455D+01      0.301083D+01      0.100431D+02

 Dipole polarizability, Alpha (dipole orientation).
 (esu units = cm**3 , SI units = C**2 m**2 J**-1)
 Alpha(0;0):
               (au)            (10**-24 esu)      (10**-40 SI)
   iso        0.269705D+02      0.399662D+01      0.444684D+01
   aniso      0.560883D+02      0.831143D+01      0.924771D+01
   xx         0.823425D+01      0.122019D+01      0.135764D+01
   yx        -0.696870D-01     -0.103265D-01     -0.114898D-01
   yy         0.831472D+01      0.123211D+01      0.137091D+01
   zx        -0.336516D-02     -0.498665D-03     -0.554839D-03
   zy         0.582862D-02      0.863712D-03      0.961010D-03
   zz         0.643626D+02      0.953755D+01      0.106120D+02

 First dipole hyperpolarizability, Beta (dipole orientation).
 ||, _|_  parallel and perpendicular components, (z) with respect to z axis,
 vector components x,y,z.  Values do not include the 1/n! factor of 1/2.
 (esu units = statvolt**-1 cm**4 , SI units = C**3 m**3 J**-2)
 Beta(0;0,0):
               (au)            (10**-30 esu)      (10**-50 SI)
   || (z)     0.173245D+03      0.149670D+01      0.555486D+00
   _|_(z)     0.577483D+02      0.498901D+00      0.185162D+00
   x         -0.200175D+00     -0.172936D-02     -0.641833D-03
   y          0.346713D+00      0.299533D-02      0.111169D-02
   z          0.866225D+03      0.748351D+01      0.277743D+01
   ||         0.173245D+03      0.149670D+01      0.555486D+00
   xxx        0.102485D+02      0.885388D-01      0.328603D-01
   xxy        0.195369D-01      0.168783D-03      0.626423D-04
   yxy       -0.102936D+02     -0.889286D-01     -0.330050D-01
   yyy        0.586105D-01      0.506349D-03      0.187926D-03
   xxz       -0.175908D+01     -0.151971D-01     -0.564025D-02
   yxz        0.149736D+00      0.129360D-02      0.480108D-03
   yyz       -0.193198D+01     -0.166908D-01     -0.619463D-02
   zxz       -0.216066D-01     -0.186664D-03     -0.692785D-04
   zyz        0.374237D-01      0.323311D-03      0.119994D-03
   zzz        0.292433D+03      0.252639D+01      0.937645D+00

 ----------------------------------------------------------------------

 Test job not archived.
 1\1\GINC-NODE55\Freq\RPM7\ZDO\C1H3Cl1F1(1-)\RPEVERATI\21-Oct-2020\0\\#
 P Freq PM7 5D 7F Integral=UltraFineGrid SCF=(NoSymm,XQC,MaxCyc=120) IO
 p(1/33=1) Geom=Check Guess=Read\\TS search on BH76.\\-1,1\F,0.,0.,-1.9
 712411646\C,0.,0.,0.0057220554\H,-0.5403255933,0.9358713803,-0.0554153
 272\H,-0.5403255933,-0.9358713803,-0.0554153272\H,1.0806511867,0.,-0.0
 554153272\Cl,0.,0.,2.1033257932\\Version=ES64L-G16RevA.03\State=1-A1\H
 F=-0.1299968\RMSD=9.314e-10\RMSF=4.171e-07\ZeroPoint=0.033999\Thermal=
 0.0383123\Dipole=0.00008,-0.0001385,1.1845535\DipoleDeriv=-0.785259,0.
 0004859,0.,0.0004859,-0.78582,0.,-0.0000005,0.0000008,-2.3849968,-0.00
 88661,-0.0012628,0.,-0.0012628,-0.0074079,0.,0.0002987,-0.0005173,4.20
 95782,0.1462053,-0.0289803,0.0198601,-0.0289803,0.1796689,-0.0343986,0
 .0180217,-0.0312145,-0.1987158,0.1462622,0.0286232,0.0198601,0.0286644
 ,0.1797681,0.0343986,0.0180107,0.0312805,-0.1987158,0.1961979,-0.00016
 6,-0.0397201,-0.0002072,0.1298324,0.,-0.036095,0.0000425,-0.1987158,-0
 .6943922,0.0018237,0.,0.0018237,-0.6964981,0.,-0.0001729,0.0002994,-2.
 2284352\Polar=8.2342489,-0.0696866,8.3147161,0.0004155,-0.0007196,64.3
 62607\HyperPolar=10.2481143,0.0197627,-10.2937543,0.059288,-1.7597714,
 0.148534,-1.9312837,-0.0015945,0.0027617,292.4326784\PG=C03V [C3(F1C1C
 l1),3SGV(H1)]\NImag=1\\0.01063128,0.,0.01063128,0.,0.,0.02064797,-0.00
 898714,0.,0.,0.41792120,0.,-0.00898714,0.,0.,0.41792120,0.,0.,0.082928
 11,0.,0.,-0.07375577,-0.00001718,0.00198177,0.00316240,-0.08680637,0.0
 7880689,-0.00610397,0.09280684,0.00198177,-0.00230552,-0.00547744,0.07
 880689,-0.17780473,0.01057239,-0.09545101,0.20302418,0.00522688,-0.009
 05322,-0.02277858,-0.00518993,0.00898923,-0.01259108,0.00544548,-0.009
 43185,0.05081514,-0.00001718,-0.00198177,0.00316240,-0.08680638,-0.078
 80689,-0.00610397,0.00813670,0.00834142,0.00072503,0.09280684,-0.00198
 177,-0.00230552,0.00547744,-0.07880689,-0.17780473,-0.01057239,-0.0083
 4142,-0.02209097,-0.00069886,0.09545101,0.20302418,0.00522688,0.009053
 22,-0.02277858,-0.00518993,-0.00898923,-0.01259108,0.00072503,0.000698
 86,0.00592499,0.00544548,0.00943185,0.05081514,-0.00344970,0.,-0.00632
 480,-0.22330391,0.,0.01220795,-0.01453405,0.00474755,0.00024271,-0.014
 53405,-0.00474755,0.00024271,0.25813285,0.,0.00112700,0.,0.,-0.0413072
 0,0.,0.02143039,0.00057978,-0.00097733,-0.02143039,0.00057978,0.000977
 33,0.,0.03769817,-0.01045376,0.,-0.02277858,0.01037987,0.,-0.01259108,
 -0.00096775,-0.00027847,0.00592499,-0.00096775,0.00027847,0.00592499,-
 0.01089096,0.,0.05081514,0.00184003,0.,0.,-0.01201776,0.,0.,0.00041416
 ,0.00157330,-0.00645021,0.00041416,-0.00157330,-0.00645021,-0.00231087
 ,0.,0.01290043,0.01166006,0.,0.00184003,0.,0.,-0.01201776,0.,0.0015733
 0,-0.00140253,0.01117210,-0.00157330,-0.00140253,-0.01117210,0.,0.0013
 2250,0.,0.,0.01166006,0.,0.,-0.03524031,0.,0.,0.02860099,-0.00226126,0
 .00391661,-0.02729545,-0.00226126,-0.00391661,-0.02729545,0.00452251,0
 .,-0.02729545,0.,0.,0.08852554\\0.,0.,0.00000100,0.,0.,-0.00000056,0.0
 0000032,-0.00000056,0.00000010,0.00000032,0.00000056,0.00000010,-0.000
 00064,0.,0.00000010,0.,0.,-0.00000074\\\@


 A ROPE OVER THE TOP OF A FENCE HAS THE SAME LENGTH ON EACH SIDE.
 WEIGHS 1/3 POUND PER FOOT.  ON ONE END HANGS A MONKEY HOLDING A
 BANANA, AND ON THE OTHER END A WEIGHT EQUAL TO THE WEIGHT
 OF THE MONKEY.  THE BANANA WEIGHS TWO OUNCES PER INCH.
 THE ROPE IS AS LONG AS THE AGE OF THE MONKEY, 
 AND THE WEIGHT OF THE MONKEY (IN OUNCES) IS AS MUCH
 AS THE AGE OF THE MONKEY'S MOTHER.  THE COMBINED AGES OF MONKEY
 AND MOTHER ARE THIRTY YEARS.  HALF THE WEIGHT OF THE MONKEY,
  PLUS THE WEIGHT OF THE BANANA, IS ONE FOURTH AS MUCH AS THE WEIGHT
 OF THE WEIGHT AND THE ROPE.
 THE MONKEY'S MOTHER IS HALF AS OLD AS THE MONKEY WILL BE
 WHEN IT IS 3 TIMES AS OLD AS ITS MOTHER WAS WHEN
 SHE WAS HALF AS OLD AS THE MONKEY WILL BE WHEN IT IS
 AS OLD AS ITS MOTHER WILL BE WHEN SHE IS 4 TIMES AS
 OLD AS THE MONKEY WAS WHEN IT WAS TWICE AS OLD AS 
 ITS MOTHER WAS WHEN SHE WAS ONE THIRD AS OLD AS THE
 MONKEY WAS WHEN IT WAS AS OLD AS ITS MOTHER WAS WHEN 
 SHE WAS 3 TIMES AS OLD AS THE MONKEY WAS WHEN IT WAS AS OLD AS ITS
 MOTHER WAS WHEN SHE WAS 3 TIMES AS OLD AS THE MONKEY 
 WAS WHEN IT WAS ONE FOURTH WAS OLD AS IT IS NOW.

 HOW LONG IS THE BANANA?
 Job cpu time:       0 days  0 hours  2 minutes 54.1 seconds.
 Elapsed time:       0 days  0 hours  0 minutes 41.0 seconds.
 File lengths (MBytes):  RWF=      5 Int=      0 D2E=      0 Chk=      2 Scr=      1
 Normal termination of Gaussian 16 at Wed Oct 21 14:41:10 2020.
