 Entering Gaussian System, Link 0=g16
 Input=MN_44_H2S_BH76_PM7_SE.in
 Output=MN_44_H2S_BH76_PM7_SE.log
 Initial command:
 /udrive/faculty/rpeverati/g16/g16/l1.exe "/udrive/scratch-directories/gaussian09/rpeverati/Gau-1908.inp" -scrdir="/udrive/scratch-directories/gaussian09/rpeverati/"
 Entering Link 1 = /udrive/faculty/rpeverati/g16/g16/l1.exe PID=      1932.
  
 Copyright (c) 1988,1990,1992,1993,1995,1998,2003,2009,2016,
            Gaussian, Inc.  All Rights Reserved.
  
 This is part of the Gaussian(R) 16 program.  It is based on
 the Gaussian(R) 09 system (copyright 2009, Gaussian, Inc.),
 the Gaussian(R) 03 system (copyright 2003, Gaussian, Inc.),
 the Gaussian(R) 98 system (copyright 1998, Gaussian, Inc.),
 the Gaussian(R) 94 system (copyright 1995, Gaussian, Inc.),
 the Gaussian 92(TM) system (copyright 1992, Gaussian, Inc.),
 the Gaussian 90(TM) system (copyright 1990, Gaussian, Inc.),
 the Gaussian 88(TM) system (copyright 1988, Gaussian, Inc.),
 the Gaussian 86(TM) system (copyright 1986, Carnegie Mellon
 University), and the Gaussian 82(TM) system (copyright 1983,
 Carnegie Mellon University). Gaussian is a federally registered
 trademark of Gaussian, Inc.
  
 This software contains proprietary and confidential information,
 including trade secrets, belonging to Gaussian, Inc.
  
 This software is provided under written license and may be
 used, copied, transmitted, or stored only in accord with that
 written license.
  
 The following legend is applicable only to US Government
 contracts under FAR:
  
                    RESTRICTED RIGHTS LEGEND
  
 Use, reproduction and disclosure by the US Government is
 subject to restrictions as set forth in subparagraphs (a)
 and (c) of the Commercial Computer Software - Restricted
 Rights clause in FAR 52.227-19.
  
 Gaussian, Inc.
 340 Quinnipiac St., Bldg. 40, Wallingford CT 06492
  
  
 ---------------------------------------------------------------
 Warning -- This program may not be used in any manner that
 competes with the business of Gaussian, Inc. or will provide
 assistance to any competitor of Gaussian, Inc.  The licensee
 of this program is prohibited from giving any competitor of
 Gaussian, Inc. access to this program.  By using this program,
 the user acknowledges that Gaussian, Inc. is engaged in the
 business of creating and licensing software in the field of
 computational chemistry and represents and warrants to the
 licensee that it is not a competitor of Gaussian, Inc. and that
 it will not use this program in any manner prohibited above.
 ---------------------------------------------------------------
  

 Cite this work as:
 Gaussian 16, Revision A.03,
 M. J. Frisch, G. W. Trucks, H. B. Schlegel, G. E. Scuseria, 
 M. A. Robb, J. R. Cheeseman, G. Scalmani, V. Barone, 
 G. A. Petersson, H. Nakatsuji, X. Li, M. Caricato, A. V. Marenich, 
 J. Bloino, B. G. Janesko, R. Gomperts, B. Mennucci, H. P. Hratchian, 
 J. V. Ortiz, A. F. Izmaylov, J. L. Sonnenberg, D. Williams-Young, 
 F. Ding, F. Lipparini, F. Egidi, J. Goings, B. Peng, A. Petrone, 
 T. Henderson, D. Ranasinghe, V. G. Zakrzewski, J. Gao, N. Rega, 
 G. Zheng, W. Liang, M. Hada, M. Ehara, K. Toyota, R. Fukuda, 
 J. Hasegawa, M. Ishida, T. Nakajima, Y. Honda, O. Kitao, H. Nakai, 
 T. Vreven, K. Throssell, J. A. Montgomery, Jr., J. E. Peralta, 
 F. Ogliaro, M. J. Bearpark, J. J. Heyd, E. N. Brothers, K. N. Kudin, 
 V. N. Staroverov, T. A. Keith, R. Kobayashi, J. Normand, 
 K. Raghavachari, A. P. Rendell, J. C. Burant, S. S. Iyengar, 
 J. Tomasi, M. Cossi, J. M. Millam, M. Klene, C. Adamo, R. Cammi, 
 J. W. Ochterski, R. L. Martin, K. Morokuma, O. Farkas, 
 J. B. Foresman, and D. J. Fox, Gaussian, Inc., Wallingford CT, 2016.
 
 ******************************************
 Gaussian 16:  ES64L-G16RevA.03 25-Dec-2016
                21-Oct-2020 
 ******************************************
 %NoSave
 %nproc=12
 Will use up to   12 processors via shared memory.
 %mem=20GB
 %chk=MN_44_H2S_BH76_PM7_SE
 ----------------------------------------------------------------------
 #P Opt(MaxCyc=150) PM7 5D 7F Integral=UltraFineGrid SCF=(NoSymm,XQC,Ma
 xCyc=120) IOp(1/33=1)
 ----------------------------------------------------------------------
 1/6=150,18=20,19=15,26=1,33=1,38=1/1,3;
 2/9=110,12=2,17=6,18=5,40=1/2;
 3/5=2,8=11,25=1,41=4200000,71=1,75=-5/1,2,3;
 4/9=2,35=1/1;
 5/5=2,7=120,8=3,13=1,35=1,38=5/2,8;
 6/7=2,8=2,9=2,10=2,28=1/1;
 7//1,2,3,16;
 1/6=150,18=20,19=15,26=1,33=1/3(2);
 2/9=110/2;
 99//99;
 2/9=110/2;
 3/5=2,8=11,25=1,41=4200000,71=1,75=-5,135=20/1,2,3;
 4/5=5,9=2,16=3,35=1/1;
 5/5=2,7=120,8=3,13=1,35=1,38=5/2,8;
 7//1,2,3,16;
 1/6=150,18=20,19=15,26=1,33=1/3(-5);
 2/9=110/2;
 6/7=2,8=2,9=2,10=2,19=2,28=1/1;
 99/9=1/99;
 Leave Link    1 at Wed Oct 21 14:36:16 2020, MaxMem=  2684354560 cpu:               6.9 elap:               0.7
 (Enter /udrive/faculty/rpeverati/g16/g16/l101.exe)
 ONIOM data not found on unit 2.
 ------------------
 TS search on BH76.
 ------------------
 TstMul:  ICh=     0
 TstMul:  Mul=     1
 TstMul:  ICh=     0
 TstMul:  Mul=     1
 Symbolic Z-matrix:
 Charge =  0 Multiplicity = 1
 S                     0.        0.        0.10252 
 H                     0.        0.96625  -0.82016 
 H                     0.       -0.96625  -0.82016 
 
 RdStrC is calling ZToCFu for IStruc=1 NZ=     3.
 PrtBox:  NBox=     1 Levels=  1 BoxLen=    8.00 SMaxX=        3.65
          Shift=            0.000000            1.825950            1.549870
 Box      1 Number                   0 centers from      1 to      3:
 After GenITR:
 ITRead=  0  0  0
 MicOpt= -1 -1 -1
 ITRead=  0  0  0
 MicOpt= -1 -1 -1
 NAtoms=      3 NQM=        3 NQMF=       0 NMMI=      0 NMMIF=      0
                NMic=       0 NMicF=      0.
                    Isotopes and Nuclear Properties:
 (Nuclear quadrupole moments (NQMom) in fm**2, nuclear magnetic moments (NMagM)
  in nuclear magnetons)

  Atom         1           2           3
 IAtWgt=          32           1           1
 AtmWgt=  31.9720718   1.0078250   1.0078250
 NucSpn=           0           1           1
 AtZEff=   0.0000000   0.0000000   0.0000000
 NQMom=    0.0000000   0.0000000   0.0000000
 NMagM=    0.0000000   2.7928460   2.7928460
 AtZNuc=  16.0000000   1.0000000   1.0000000
 No MM parameters found.
 Leave Link  101 at Wed Oct 21 14:36:17 2020, MaxMem=  2684354560 cpu:               8.9 elap:               1.0
 (Enter /udrive/faculty/rpeverati/g16/g16/l103.exe)

 GradGradGradGradGradGradGradGradGradGradGradGradGradGradGradGradGradGrad
 Berny optimization.
 Optmz: redundant internal coordinate code flag= 1
 Initialization pass.
                           ----------------------------
                           !    Initial Parameters    !
                           ! (Angstroms and Degrees)  !
 --------------------------                            --------------------------
 ! Name  Definition              Value          Derivative Info.                !
 --------------------------------------------------------------------------------
 ! R1    R(1,2)                  1.336          estimate D2E/DX2                !
 ! R2    R(1,3)                  1.336          estimate D2E/DX2                !
 ! A1    A(2,1,3)               92.6431         estimate D2E/DX2                !
 --------------------------------------------------------------------------------
 Maximum allowed force set to 1.00D+20.
 Trust Radius=3.00D-01 FncErr=1.00D-07 GrdErr=1.00D-07 EigMax=2.50D+02 EigMin=1.00D-04
 Number of steps in this run=    100 maximum allowed number of steps=    100.
 GradGradGradGradGradGradGradGradGradGradGradGradGradGradGradGradGradGrad

 Leave Link  103 at Wed Oct 21 14:36:18 2020, MaxMem=  2684354560 cpu:               1.8 elap:               0.9
 (Enter /udrive/faculty/rpeverati/g16/g16/l202.exe)
                          Input orientation:                          
 ---------------------------------------------------------------------
 Center     Atomic      Atomic             Coordinates (Angstroms)
 Number     Number       Type             X           Y           Z
 ---------------------------------------------------------------------
      1         16           0        0.000000    0.000000    0.102519
      2          1           0        0.000000    0.966251   -0.820156
      3          1           0        0.000000   -0.966251   -0.820156
 ---------------------------------------------------------------------
                    Distance matrix (angstroms):
                    1          2          3
     1  S    0.000000
     2  H    1.336028   0.000000
     3  H    1.336028   1.932502   0.000000
 Stoichiometry    H2S
 Framework group  C2V[C2(S),SGV(H2)]
 Deg. of freedom     2
 Full point group                 C2V     NOp   4
 Largest Abelian subgroup         C2V     NOp   4
 Largest concise Abelian subgroup C2      NOp   2
                         Standard orientation:                         
 ---------------------------------------------------------------------
 Center     Atomic      Atomic             Coordinates (Angstroms)
 Number     Number       Type             X           Y           Z
 ---------------------------------------------------------------------
      1         16           0        0.000000   -0.000000    0.102519
      2          1           0        0.000000    0.966251   -0.820156
      3          1           0       -0.000000   -0.966251   -0.820156
 ---------------------------------------------------------------------
 Rotational constants (GHZ):         313.0803827         268.5480684         144.5547099
 Leave Link  202 at Wed Oct 21 14:36:19 2020, MaxMem=  2684354560 cpu:               2.2 elap:               0.8
 (Enter /udrive/faculty/rpeverati/g16/g16/l301.exe)
 Standard basis: VSTO-6G (5D, 7F)
 Ernie: Thresh=  0.10000D-02 Tol=  0.10000D-05 Strict=F.
 EHB=         0.000000000 Number of Hydrogen Bonds=     0
  NNHCO=     0 NNPyr=     0 NCTC=     0               EPep=         0.000000000
    EC=         3.607396043  ECS=         0.255890531   EG=         0.051447683
   EHC=         0.000082116  EAt=        -7.214037370  AtH=         0.271874780
 EPDDG=         0.000000000  ECC=         3.914816374 EAtT=         7.485912149
  EHyb=         0.000000000
 There are     6 symmetry adapted cartesian basis functions of A1  symmetry.
 There are     1 symmetry adapted cartesian basis functions of A2  symmetry.
 There are     2 symmetry adapted cartesian basis functions of B1  symmetry.
 There are     3 symmetry adapted cartesian basis functions of B2  symmetry.
 There are     5 symmetry adapted basis functions of A1  symmetry.
 There are     1 symmetry adapted basis functions of A2  symmetry.
 There are     2 symmetry adapted basis functions of B1  symmetry.
 There are     3 symmetry adapted basis functions of B2  symmetry.
    11 basis functions,    72 primitive gaussians,    12 cartesian basis functions
     4 alpha electrons        4 beta electrons
       nuclear repulsion energy        11.4007285228 Hartrees.
 IExCor=    0 DFT=F Ex=HF Corr=None ExCW=0 ScaHFX=  1.000000
 ScaDFX=  1.000000  1.000000  1.000000  1.000000 ScalE2=  1.000000  1.000000
 IRadAn=      5 IRanWt=     -1 IRanGd=            0 ICorTp=0 IEmpDi=251
 Integral buffers will be    131072 words long.
 Regular integral format.
 Two-electron integral symmetry is turned off.
 R6Disp:  PM7 Dispersion energy=       -0.0000094572 Hartrees.
 Nuclear repulsion after empirical dispersion term =       11.4007190655 Hartrees.
 Leave Link  301 at Wed Oct 21 14:36:21 2020, MaxMem=  2684354560 cpu:               3.3 elap:               0.9
 (Enter /udrive/faculty/rpeverati/g16/g16/l302.exe)
 Do NDO integrals.
 NPDir=0 NMtPBC=     1 NCelOv=     1 NCel=       1 NClECP=     1 NCelD=      1
         NCelK=      1 NCelE2=     1 NClLst=     1 CellRange=     0.0.
 One-electron integrals computed using PRISM.
 NBasis=    11 RedAO= T EigKep=  1.00D+00  NBF=     5     1     2     3
 NBsUse=    11 1.00D-06 EigRej= -1.00D+00 NBFU=     5     1     2     3
 Leave Link  302 at Wed Oct 21 14:36:22 2020, MaxMem=  2684354560 cpu:               3.9 elap:               1.0
 (Enter /udrive/faculty/rpeverati/g16/g16/l303.exe)
 DipDrv:  MaxL=1.
 Leave Link  303 at Wed Oct 21 14:36:23 2020, MaxMem=  2684354560 cpu:               3.7 elap:               0.9
 (Enter /udrive/faculty/rpeverati/g16/g16/l401.exe)
 SCF N**3 symmetry information disabled.
 Nonelectrostatic core Hamiltonian diagonalized for initial guess.
 JPrj=0 DoOrth=F DoCkMO=F.
 Initial guess orbital symmetries:
       Occupied  (A1) (B2) (A1) (B1)
       Virtual   (A1) (B2) (A1) (A2) (B1) (A1) (B2)
 The electronic state of the initial guess is 1-A1.
 Leave Link  401 at Wed Oct 21 14:36:24 2020, MaxMem=  2684354560 cpu:               2.2 elap:               0.8
 (Enter /udrive/faculty/rpeverati/g16/g16/l502.exe)
 Keep J ints in memory in canonical form, NReq=1847790.
 FoFCou: FMM=F IPFlag=           0 FMFlag=           0 FMFlg1=           0
         NFxFlg=           0 DoJE=F BraDBF=F KetDBF=F FulRan=T
         wScrn=  0.000000 ICntrl=       600 IOpCl=  2 I1Cent=           0 NGrid=           0
         NMat0=    1 NMatS0=     47 NMatT0=    0 NMatD0=    1 NMtDS0=    0 NMtDT0=    0
 Symmetry not used in FoFCou.
 Two-electron integral symmetry not used.
 Closed shell SCF:
 Using DIIS extrapolation, IDIIS=  1040.
 Overlap will be assumed to be unity.
 NGot=  2684354560 LenX=  2684293073 LenY=  2684292191
 Requested convergence on RMS density matrix=1.00D-08 within 120 cycles.
 Requested convergence on MAX density matrix=1.00D-06.
 Requested convergence on             energy=1.00D-06.
 No special actions if energy rises.

 Cycle   1  Pass 1  IDiag  1:
 E= 0.146438595991404    
 DIIS: error= 3.77D-02 at cycle   1 NSaved=   1.
 NSaved= 1 IEnMin= 1 EnMin= 0.146438595991404     IErMin= 1 ErrMin= 3.77D-02
 ErrMax= 3.77D-02  0.00D+00 EMaxC= 1.00D-01 BMatC= 2.37D-02 BMatP= 2.37D-02
 IDIUse=3 WtCom= 6.23D-01 WtEn= 3.77D-01
 Coeff-Com:  0.100D+01
 Coeff-En:   0.100D+01
 Coeff:      0.100D+01
 GapD=    2.000 DampG=2.000 DampE=0.500 DampFc=1.0000 IDamp=-1.
 RMSDP=3.47D-02 MaxDP=1.89D-01              OVMax= 0.00D+00

 Cycle   2  Pass 1  IDiag  1:
 E= 0.286752994396746E-01 Delta-E=       -0.117763296552 Rises=F Damp=F
 DIIS: error= 1.72D-02 at cycle   2 NSaved=   2.
 NSaved= 2 IEnMin= 2 EnMin= 0.286752994396746E-01 IErMin= 2 ErrMin= 1.72D-02
 ErrMax= 1.72D-02  0.00D+00 EMaxC= 1.00D-01 BMatC= 5.70D-03 BMatP= 2.37D-02
 IDIUse=3 WtCom= 8.28D-01 WtEn= 1.72D-01
 Coeff-Com: -0.605D+00 0.160D+01
 Coeff-En:   0.000D+00 0.100D+01
 Coeff:     -0.501D+00 0.150D+01
 RMSDP=2.09D-02 MaxDP=1.05D-01 DE=-1.18D-01 OVMax= 0.00D+00

 Cycle   3  Pass 1  IDiag  3:
 E=-0.152602723676765E-02 Delta-E=       -0.030201326676 Rises=F Damp=F
 DIIS: error= 3.75D-03 at cycle   3 NSaved=   3.
 NSaved= 3 IEnMin= 3 EnMin=-0.152602723676765E-02 IErMin= 3 ErrMin= 3.75D-03
 ErrMax= 3.75D-03  0.00D+00 EMaxC= 1.00D-01 BMatC= 4.45D-04 BMatP= 5.70D-03
 IDIUse=3 WtCom= 9.63D-01 WtEn= 3.75D-02
 Coeff-Com:  0.282D-01-0.382D+00 0.135D+01
 Coeff-En:   0.000D+00 0.000D+00 0.100D+01
 Coeff:      0.271D-01-0.367D+00 0.134D+01
 Gap=     0.312 Goal=   None    Shift=    0.000
 RMSDP=8.13D-03 MaxDP=3.26D-02 DE=-3.02D-02 OVMax= 3.65D-02

 Cycle   4  Pass 1  IDiag  3:
 E=-0.471226522932255E-02 Delta-E=       -0.003186237993 Rises=F Damp=F
 DIIS: error= 2.08D-03 at cycle   4 NSaved=   4.
 NSaved= 4 IEnMin= 4 EnMin=-0.471226522932255E-02 IErMin= 4 ErrMin= 2.08D-03
 ErrMax= 2.08D-03  0.00D+00 EMaxC= 1.00D-01 BMatC= 3.19D-05 BMatP= 4.45D-04
 IDIUse=3 WtCom= 9.79D-01 WtEn= 2.08D-02
 Coeff-Com: -0.185D-01 0.208D+00-0.874D+00 0.168D+01
 Coeff-En:   0.000D+00 0.000D+00 0.000D+00 0.100D+01
 Coeff:     -0.182D-01 0.203D+00-0.856D+00 0.167D+01
 Gap=     0.315 Goal=   None    Shift=    0.000
 RMSDP=3.37D-03 MaxDP=2.09D-02 DE=-3.19D-03 OVMax= 2.09D-02

 Cycle   5  Pass 1  IDiag  3:
 E=-0.509470194720585E-02 Delta-E=       -0.000382436718 Rises=F Damp=F
 DIIS: error= 9.20D-04 at cycle   5 NSaved=   5.
 NSaved= 5 IEnMin= 5 EnMin=-0.509470194720585E-02 IErMin= 5 ErrMin= 9.20D-04
 ErrMax= 9.20D-04  0.00D+00 EMaxC= 1.00D-01 BMatC= 5.10D-06 BMatP= 3.19D-05
 IDIUse=3 WtCom= 9.91D-01 WtEn= 9.20D-03
 Coeff-Com:  0.262D-01-0.277D+00 0.114D+01-0.236D+01 0.247D+01
 Coeff-En:   0.000D+00 0.000D+00 0.000D+00 0.000D+00 0.100D+01
 Coeff:      0.260D-01-0.274D+00 0.113D+01-0.234D+01 0.246D+01
 Gap=     0.314 Goal=   None    Shift=    0.000
 RMSDP=2.09D-03 MaxDP=1.44D-02 DE=-3.82D-04 OVMax= 1.45D-02

 Cycle   6  Pass 1  IDiag  3:
 E=-0.518219290072075E-02 Delta-E=       -0.000087490954 Rises=F Damp=F
 DIIS: error= 2.20D-04 at cycle   6 NSaved=   6.
 NSaved= 6 IEnMin= 6 EnMin=-0.518219290072075E-02 IErMin= 6 ErrMin= 2.20D-04
 ErrMax= 2.20D-04  0.00D+00 EMaxC= 1.00D-01 BMatC= 4.82D-07 BMatP= 5.10D-06
 IDIUse=3 WtCom= 9.98D-01 WtEn= 2.20D-03
 Coeff-Com: -0.538D-02 0.544D-01-0.240D+00 0.602D+00-0.972D+00 0.156D+01
 Coeff-En:   0.000D+00 0.000D+00 0.000D+00 0.000D+00 0.000D+00 0.100D+01
 Coeff:     -0.537D-02 0.543D-01-0.239D+00 0.601D+00-0.970D+00 0.156D+01
 Gap=     0.314 Goal=   None    Shift=    0.000
 RMSDP=5.94D-04 MaxDP=3.89D-03 DE=-8.75D-05 OVMax= 3.91D-03

 Cycle   7  Pass 1  IDiag  3:
 E=-0.518927712166928E-02 Delta-E=       -0.000007084221 Rises=F Damp=F
 DIIS: error= 7.28D-05 at cycle   7 NSaved=   7.
 NSaved= 7 IEnMin= 7 EnMin=-0.518927712166928E-02 IErMin= 7 ErrMin= 7.28D-05
 ErrMax= 7.28D-05  0.00D+00 EMaxC= 1.00D-01 BMatC= 6.61D-08 BMatP= 4.82D-07
 IDIUse=1 WtCom= 1.00D+00 WtEn= 0.00D+00
 Coeff-Com:  0.208D-02-0.193D-01 0.906D-01-0.269D+00 0.543D+00-0.117D+01
 Coeff-Com:  0.182D+01
 Coeff:      0.208D-02-0.193D-01 0.906D-01-0.269D+00 0.543D+00-0.117D+01
 Coeff:      0.182D+01
 Gap=     0.314 Goal=   None    Shift=    0.000
 RMSDP=1.74D-04 MaxDP=9.56D-04 DE=-7.08D-06 OVMax= 9.60D-04

 Cycle   8  Pass 1  IDiag  3:
 E=-0.519018111569025E-02 Delta-E=       -0.000000903994 Rises=F Damp=F
 DIIS: error= 3.46D-05 at cycle   8 NSaved=   8.
 NSaved= 8 IEnMin= 8 EnMin=-0.519018111569025E-02 IErMin= 8 ErrMin= 3.46D-05
 ErrMax= 3.46D-05  0.00D+00 EMaxC= 1.00D-01 BMatC= 1.20D-08 BMatP= 6.61D-08
 IDIUse=1 WtCom= 1.00D+00 WtEn= 0.00D+00
 Coeff-Com: -0.105D-02 0.692D-02-0.386D-01 0.166D+00-0.446D+00 0.112D+01
 Coeff-Com: -0.214D+01 0.233D+01
 Coeff:     -0.105D-02 0.692D-02-0.386D-01 0.166D+00-0.446D+00 0.112D+01
 Coeff:     -0.214D+01 0.233D+01
 Gap=     0.314 Goal=   None    Shift=    0.000
 RMSDP=1.08D-04 MaxDP=5.88D-04 DE=-9.04D-07 OVMax= 5.91D-04

 Cycle   9  Pass 1  IDiag  3:
 E=-0.519036716804777E-02 Delta-E=       -0.000000186052 Rises=F Damp=F
 DIIS: error= 3.98D-06 at cycle   9 NSaved=   9.
 NSaved= 9 IEnMin= 9 EnMin=-0.519036716804777E-02 IErMin= 9 ErrMin= 3.98D-06
 ErrMax= 3.98D-06  0.00D+00 EMaxC= 1.00D-01 BMatC= 3.44D-10 BMatP= 1.20D-08
 IDIUse=1 WtCom= 1.00D+00 WtEn= 0.00D+00
 Coeff-Com:  0.263D-03-0.147D-02 0.128D-01-0.757D-01 0.232D+00-0.627D+00
 Coeff-Com:  0.129D+01-0.158D+01 0.175D+01
 Coeff:      0.263D-03-0.147D-02 0.128D-01-0.757D-01 0.232D+00-0.627D+00
 Coeff:      0.129D+01-0.158D+01 0.175D+01
 Gap=     0.314 Goal=   None    Shift=    0.000
 RMSDP=1.44D-05 MaxDP=8.21D-05 DE=-1.86D-07 OVMax= 8.26D-05

 Cycle  10  Pass 1  IDiag  3:
 E=-0.519037047202886E-02 Delta-E=       -0.000000003304 Rises=F Damp=F
 DIIS: error= 1.44D-06 at cycle  10 NSaved=  10.
 NSaved=10 IEnMin=10 EnMin=-0.519037047202886E-02 IErMin=10 ErrMin= 1.44D-06
 ErrMax= 1.44D-06  0.00D+00 EMaxC= 1.00D-01 BMatC= 1.54D-11 BMatP= 3.44D-10
 IDIUse=1 WtCom= 1.00D+00 WtEn= 0.00D+00
 Coeff-Com: -0.255D-03 0.147D-02-0.152D-01 0.951D-01-0.296D+00 0.814D+00
 Coeff-Com: -0.167D+01 0.206D+01-0.244D+01 0.245D+01
 Coeff:     -0.255D-03 0.147D-02-0.152D-01 0.951D-01-0.296D+00 0.814D+00
 Coeff:     -0.167D+01 0.206D+01-0.244D+01 0.245D+01
 Gap=     0.314 Goal=   None    Shift=    0.000
 RMSDP=5.55D-06 MaxDP=2.51D-05 DE=-3.30D-09 OVMax= 2.75D-05

 Cycle  11  Pass 1  IDiag  3:
 E=-0.519037054598392E-02 Delta-E=       -0.000000000074 Rises=F Damp=F
 DIIS: error= 7.14D-07 at cycle  11 NSaved=  11.
 NSaved=11 IEnMin=11 EnMin=-0.519037054598392E-02 IErMin=11 ErrMin= 7.14D-07
 ErrMax= 7.14D-07  0.00D+00 EMaxC= 1.00D-01 BMatC= 8.70D-12 BMatP= 1.54D-11
 IDIUse=1 WtCom= 1.00D+00 WtEn= 0.00D+00
 Coeff-Com:  0.215D-04-0.231D-03 0.252D-02-0.148D-01 0.445D-01-0.127D+00
 Coeff-Com:  0.258D+00-0.314D+00 0.364D+00-0.335D+00 0.112D+01
 Coeff:      0.215D-04-0.231D-03 0.252D-02-0.148D-01 0.445D-01-0.127D+00
 Coeff:      0.258D+00-0.314D+00 0.364D+00-0.335D+00 0.112D+01
 Gap=     0.314 Goal=   None    Shift=    0.000
 RMSDP=3.31D-06 MaxDP=2.08D-05 DE=-7.40D-11 OVMax= 2.09D-05

 Cycle  12  Pass 1  IDiag  3:
 E=-0.519037066143468E-02 Delta-E=       -0.000000000115 Rises=F Damp=F
 DIIS: error= 9.76D-08 at cycle  12 NSaved=  12.
 NSaved=12 IEnMin=12 EnMin=-0.519037066143468E-02 IErMin=12 ErrMin= 9.76D-08
 ErrMax= 9.76D-08  0.00D+00 EMaxC= 1.00D-01 BMatC= 1.33D-13 BMatP= 8.70D-12
 IDIUse=1 WtCom= 1.00D+00 WtEn= 0.00D+00
 Coeff-Com: -0.118D-05 0.310D-04-0.388D-03 0.223D-02-0.659D-02 0.196D-01
 Coeff-Com: -0.390D-01 0.458D-01-0.448D-01 0.153D-01-0.254D+00 0.126D+01
 Coeff:     -0.118D-05 0.310D-04-0.388D-03 0.223D-02-0.659D-02 0.196D-01
 Coeff:     -0.390D-01 0.458D-01-0.448D-01 0.153D-01-0.254D+00 0.126D+01
 Gap=     0.314 Goal=   None    Shift=    0.000
 RMSDP=4.28D-07 MaxDP=2.75D-06 DE=-1.15D-10 OVMax= 2.76D-06

 Cycle  13  Pass 1  IDiag  3:
 E=-0.519037066326078E-02 Delta-E=       -0.000000000002 Rises=F Damp=F
 DIIS: error= 1.15D-08 at cycle  13 NSaved=  13.
 NSaved=13 IEnMin=13 EnMin=-0.519037066326078E-02 IErMin=13 ErrMin= 1.15D-08
 ErrMax= 1.15D-08  0.00D+00 EMaxC= 1.00D-01 BMatC= 2.46D-15 BMatP= 1.33D-13
 IDIUse=1 WtCom= 1.00D+00 WtEn= 0.00D+00
 Coeff-Com:  0.214D-07 0.101D-06-0.141D-05 0.211D-04-0.790D-04 0.114D-03
 Coeff-Com: -0.442D-03 0.850D-03-0.247D-02 0.828D-02-0.339D-02-0.126D+00
 Coeff-Com:  0.112D+01
 Coeff:      0.214D-07 0.101D-06-0.141D-05 0.211D-04-0.790D-04 0.114D-03
 Coeff:     -0.442D-03 0.850D-03-0.247D-02 0.828D-02-0.339D-02-0.126D+00
 Coeff:      0.112D+01
 Gap=     0.314 Goal=   None    Shift=    0.000
 RMSDP=4.83D-08 MaxDP=2.87D-07 DE=-1.83D-12 OVMax= 2.89D-07

 Cycle  14  Pass 1  IDiag  3:
 E=-0.519037066329275E-02 Delta-E=       -0.000000000000 Rises=F Damp=F
 DIIS: error= 7.52D-10 at cycle  14 NSaved=  14.
 NSaved=14 IEnMin=14 EnMin=-0.519037066329275E-02 IErMin=14 ErrMin= 7.52D-10
 ErrMax= 7.52D-10  0.00D+00 EMaxC= 1.00D-01 BMatC= 7.32D-18 BMatP= 2.46D-15
 IDIUse=1 WtCom= 1.00D+00 WtEn= 0.00D+00
 Coeff-Com: -0.200D-09 0.127D-08-0.764D-08 0.485D-07-0.749D-06 0.298D-05
 Coeff-Com:  0.533D-05-0.399D-04 0.158D-03-0.229D-03-0.804D-03 0.556D-02
 Coeff-Com:  0.541D-01 0.941D+00
 Coeff:     -0.200D-09 0.127D-08-0.764D-08 0.485D-07-0.749D-06 0.298D-05
 Coeff:      0.533D-05-0.399D-04 0.158D-03-0.229D-03-0.804D-03 0.556D-02
 Coeff:      0.541D-01 0.941D+00
 Gap=     0.314 Goal=   None    Shift=    0.000
 RMSDP=1.99D-09 MaxDP=1.42D-08 DE=-3.20D-14 OVMax= 1.43D-08

 Cycle  15  Pass 2  IDiag  1:
 SCF Done:  E(RPM7) = -0.519037066329E-02 A.U. after   15 cycles
            NFock= 14  Conv=0.20D-08     -V/T= 0.9996
 KE=-1.155558018940D+01 PE=-6.664792169459D+00 EE= 6.814462922669D+00
 Leave Link  502 at Wed Oct 21 14:36:26 2020, MaxMem=  2684354560 cpu:              10.3 elap:               1.5
 (Enter /udrive/faculty/rpeverati/g16/g16/l508.exe)
 QCSCF skips out because SCF is already converged.
 Leave Link  508 at Wed Oct 21 14:36:27 2020, MaxMem=  2684354560 cpu:               0.8 elap:               0.7
 (Enter /udrive/faculty/rpeverati/g16/g16/l601.exe)
 Copying SCF densities to generalized density rwf, IOpCl= 0 IROHF=0.

 **********************************************************************

            Population analysis using the SCF density.

 **********************************************************************

 Orbital symmetries:
       Occupied  (A1) (B2) (A1) (B1)
       Virtual   (B2) (A1) (A1) (A2) (B1) (A1) (B2)
 The electronic state is 1-A1.
 Alpha  occ. eigenvalues --   -0.99510  -0.52365  -0.43259  -0.34437
 Alpha virt. eigenvalues --   -0.03092  -0.00938  -0.00527   0.00044   0.00145
 Alpha virt. eigenvalues --    0.10373   0.12497
          Condensed to atoms (all electrons):
               1          2          3
     1  S    6.324231   0.000000   0.000000
     2  H    0.000000   0.837885   0.000000
     3  H    0.000000   0.000000   0.837885
 Mulliken charges:
               1
     1  S   -0.324231
     2  H    0.162115
     3  H    0.162115
 Sum of Mulliken charges =   0.00000
 Mulliken charges with hydrogens summed into heavy atoms:
               1
     1  S    0.000000
 Charge=              0.0000 electrons
 Dipole moment (field-independent basis, Debye):
    X=             -0.0000    Y=              0.0000    Z=             -1.6865  Tot=              1.6865
 N-N= 1.140071906553D+01 E-N=-6.664792168880D+00  KE=-1.155558018940D+01
 Leave Link  601 at Wed Oct 21 14:36:28 2020, MaxMem=  2684354560 cpu:               3.2 elap:               0.9
 (Enter /udrive/faculty/rpeverati/g16/g16/l701.exe)
 ... and contract with generalized density number  0.
 Compute integral first derivatives.
 R6Disp: Adding PM7 dispersion energy 1st derivatives to the gradient.
 Leave Link  701 at Wed Oct 21 14:36:30 2020, MaxMem=  2684354560 cpu:               4.2 elap:               0.9
 (Enter /udrive/faculty/rpeverati/g16/g16/l702.exe)
 L702 exits ... SP integral derivatives will be done elsewhere.
 Leave Link  702 at Wed Oct 21 14:36:31 2020, MaxMem=  2684354560 cpu:               2.4 elap:               0.8
 (Enter /udrive/faculty/rpeverati/g16/g16/l703.exe)
 Integral derivatives from FoFJK, PRISM(SPDF).
 Compute integral first derivatives, UseDBF=F ICtDFT=           0.
 Calling FoFJK, ICntrl=      2127 FMM=F ISym2X=1 I1Cent= 0 IOpClX= 0 NMat=1 NMatS=1 NMatT=0.
 FoFJK:  IHMeth=43 ICntrl=    2127 DoSepK=F KAlg= 0 I1Cent=           0 FoldK=F
 IRaf=         0 NMat=       1 IRICut=       1 DoRegI=T DoRafI=F ISym2E= 1 IDoP0=3 IntGTp=3.
 FoFCou: FMM=F IPFlag=           0 FMFlag=      100000 FMFlg1=         800
         NFxFlg=           0 DoJE=F BraDBF=F KetDBF=F FulRan=T
         wScrn=  0.000000 ICntrl=      2127 IOpCl=  0 I1Cent=           0 NGrid=           0
         NMat0=    1 NMatS0=      1 NMatT0=    0 NMatD0=    1 NMtDS0=    0 NMtDT0=    0
 Petite list used in FoFCou.
 Leave Link  703 at Wed Oct 21 14:36:32 2020, MaxMem=  2684354560 cpu:               3.6 elap:               0.9
 (Enter /udrive/faculty/rpeverati/g16/g16/l716.exe)
 Dipole        =-8.30964072D-16 4.44089210D-15-6.63527118D-01
 ***** Axes restored to original set *****
 -------------------------------------------------------------------
 Center     Atomic                   Forces (Hartrees/Bohr)
 Number     Number              X              Y              Z
 -------------------------------------------------------------------
      1       16          -0.000000000    0.000000000   -0.003528226
      2        1           0.000000000    0.004304721    0.001764113
      3        1           0.000000000   -0.004304721    0.001764113
 -------------------------------------------------------------------
 Cartesian Forces:  Max     0.004304721 RMS     0.002488503
 Leave Link  716 at Wed Oct 21 14:36:33 2020, MaxMem=  2684354560 cpu:               2.6 elap:               0.8
 (Enter /udrive/faculty/rpeverati/g16/g16/l103.exe)

 GradGradGradGradGradGradGradGradGradGradGradGradGradGradGradGradGradGrad
 Berny optimization.
 Optmz: redundant internal coordinate code flag= 1
 FormGI is forming the generalized inverse of G from B-inverse, IUseBI=4.
 Internal  Forces:  Max     0.010726906 RMS     0.006383530
 Search for a local minimum.
 Step number   1 out of a maximum of  100
 All quantities printed in internal units (Hartrees-Bohrs-Radians)
 RMS Force = .63835D-02 SwitMx=.10000D-02 MixMth= 1
 Mixed Optimization -- RFO/linear search
 Second derivative matrix not updated -- first step.
 The second derivative matrix:
                          R1        R2        A1
           R1           0.26743
           R2           0.00000   0.26743
           A1           0.00000   0.00000   0.16000
 ITU=  0
 Eigenvectors of the second derivative matrix:
                           1         2         3
     Eigenvalues --     0.16000   0.26743   0.26743
   1         R1         0.00000   0.70711  -0.70711
   2         R2         0.00000   0.70711   0.70711
   3         A1         1.00000  -0.00000  -0.00000
 Iter=   1 RLamda= 0.00000000D+00 Sum=-7.46021237D-04.
 Iter=   2 RLamda=-7.46021237D-04 Sum=-7.42608885D-04.
 Iter=   3 RLamda=-7.42608885D-04 Sum=-7.42624422D-04.
 Iter=   4 RLamda=-7.42624422D-04 Sum=-7.42624351D-04.
 RFO step:  Lambda=-7.42624422D-04 EMin= 1.60000000D-01
 Linear search not attempted -- first point.
 Iteration  1 RMS(Cart)=  0.05791422 RMS(Int)=  0.00114505
 Iteration  2 RMS(Cart)=  0.00084017 RMS(Int)=  0.00000012
 Iteration  3 RMS(Cart)=  0.00000017 RMS(Int)=  0.00000000
 ITry= 1 IFail=0 DXMaxC= 6.24D-02 DCOld= 1.00D+10 DXMaxT= 3.00D-01 DXLimC= 3.00D+00 Rises=F
 ClnCor:  largest displacement from symmetrization is 3.74D-14 for atom     3.
 Variable       Old X    -DE/DX   Delta X   Delta X   Delta X     New X
                                 (Linear)    (Quad)   (Total)
    R1        2.52473   0.00189   0.00000   0.00707   0.00707   2.53179
    R2        2.52473   0.00189   0.00000   0.00707   0.00707   2.53179
    A1        1.61693   0.01073   0.00000   0.06673   0.06673   1.68366
         Item               Value     Threshold  Converged?
 Maximum Force            0.010727     0.000450     NO 
 RMS     Force            0.006384     0.000300     NO 
 Maximum Displacement     0.062422     0.001800     NO 
 RMS     Displacement     0.057656     0.001200     NO 
 Predicted change in Energy=-3.730028D-04
 Lowest energy point so far.  Saving SCF results.
 Largest change from initial coordinates is atom    2       0.035 Angstoms.
 GradGradGradGradGradGradGradGradGradGradGradGradGradGradGradGradGradGrad

 Leave Link  103 at Wed Oct 21 14:36:35 2020, MaxMem=  2684354560 cpu:               4.3 elap:               1.0
 (Enter /udrive/faculty/rpeverati/g16/g16/l202.exe)
                          Input orientation:                          
 ---------------------------------------------------------------------
 Center     Atomic      Atomic             Coordinates (Angstroms)
 Number     Number       Type             X           Y           Z
 ---------------------------------------------------------------------
      1         16           0        0.000000    0.000000    0.082347
      2          1           0        0.000000    0.999283   -0.810070
      3          1           0       -0.000000   -0.999283   -0.810070
 ---------------------------------------------------------------------
                    Distance matrix (angstroms):
                    1          2          3
     1  S    0.000000
     2  H    1.339767   0.000000
     3  H    1.339767   1.998567   0.000000
 Stoichiometry    H2S
 Framework group  C2V[C2(S),SGV(H2)]
 Deg. of freedom     2
 Full point group                 C2V     NOp   4
 RotChk:  IX=0 Diff= 4.81D-16
 Largest Abelian subgroup         C2V     NOp   4
 Largest concise Abelian subgroup C2      NOp   2
                         Standard orientation:                         
 ---------------------------------------------------------------------
 Center     Atomic      Atomic             Coordinates (Angstroms)
 Number     Number       Type             X           Y           Z
 ---------------------------------------------------------------------
      1         16           0        0.000000   -0.000000    0.099158
      2          1           0       -0.000000    0.999283   -0.793260
      3          1           0       -0.000000   -0.999283   -0.793260
 ---------------------------------------------------------------------
 Rotational constants (GHZ):         334.6702812         251.0873504         143.4577539
 Leave Link  202 at Wed Oct 21 14:36:36 2020, MaxMem=  2684354560 cpu:               2.1 elap:               0.7
 (Enter /udrive/faculty/rpeverati/g16/g16/l301.exe)
 Standard basis: VSTO-6G (5D, 7F)
 Ernie: Thresh=  0.10000D-02 Tol=  0.10000D-05 Strict=F.
 EHB=         0.000000000 Number of Hydrogen Bonds=     0
  NNHCO=     0 NNPyr=     0 NCTC=     0               EPep=         0.000000000
    EC=         3.596356177  ECS=         0.253307795   EG=         0.050753813
   EHC=         0.000079408  EAt=        -7.214037370  AtH=         0.271874780
 EPDDG=         0.000000000  ECC=         3.900497193 EAtT=         7.485912149
  EHyb=         0.000000000
 There are     6 symmetry adapted cartesian basis functions of A1  symmetry.
 There are     1 symmetry adapted cartesian basis functions of A2  symmetry.
 There are     2 symmetry adapted cartesian basis functions of B1  symmetry.
 There are     3 symmetry adapted cartesian basis functions of B2  symmetry.
 There are     5 symmetry adapted basis functions of A1  symmetry.
 There are     1 symmetry adapted basis functions of A2  symmetry.
 There are     2 symmetry adapted basis functions of B1  symmetry.
 There are     3 symmetry adapted basis functions of B2  symmetry.
    11 basis functions,    72 primitive gaussians,    12 cartesian basis functions
     4 alpha electrons        4 beta electrons
       nuclear repulsion energy        11.3864093418 Hartrees.
 IExCor=    0 DFT=F Ex=HF Corr=None ExCW=0 ScaHFX=  1.000000
 ScaDFX=  1.000000  1.000000  1.000000  1.000000 ScalE2=  1.000000  1.000000
 IRadAn=      5 IRanWt=     -1 IRanGd=            0 ICorTp=0 IEmpDi=251
 Integral buffers will be    131072 words long.
 Regular integral format.
 Two-electron integral symmetry is turned off.
 R6Disp:  PM7 Dispersion energy=       -0.0000095191 Hartrees.
 Nuclear repulsion after empirical dispersion term =       11.3863998227 Hartrees.
 Leave Link  301 at Wed Oct 21 14:36:37 2020, MaxMem=  2684354560 cpu:               5.0 elap:               1.1
 (Enter /udrive/faculty/rpeverati/g16/g16/l302.exe)
 Do NDO integrals.
 NPDir=0 NMtPBC=     1 NCelOv=     1 NCel=       1 NClECP=     1 NCelD=      1
         NCelK=      1 NCelE2=     1 NClLst=     1 CellRange=     0.0.
 One-electron integrals computed using PRISM.
 NBasis=    11 RedAO= T EigKep=  1.00D+00  NBF=     5     1     2     3
 NBsUse=    11 1.00D-06 EigRej= -1.00D+00 NBFU=     5     1     2     3
 Leave Link  302 at Wed Oct 21 14:36:38 2020, MaxMem=  2684354560 cpu:               3.9 elap:               1.0
 (Enter /udrive/faculty/rpeverati/g16/g16/l303.exe)
 DipDrv:  MaxL=1.
 Leave Link  303 at Wed Oct 21 14:36:40 2020, MaxMem=  2684354560 cpu:               3.2 elap:               1.0
 (Enter /udrive/faculty/rpeverati/g16/g16/l401.exe)
 Initial guess from the checkpoint file:  "MN_44_H2S_BH76_PM7_SE.chk"
 SCF N**3 symmetry information disabled.
 B after Tr=    -0.000000   -0.000000   -0.000000
         Rot=    1.000000    0.000000    0.000000   -0.000000 Ang=   0.00 deg.
 Guess basis will be translated and rotated to current coordinates.
 JPrj=0 DoOrth=T DoCkMO=T.
 Initial guess orbital symmetries:
       Occupied  (A1) (B2) (A1) (B1)
       Virtual   (B2) (A1) (A1) (A2) (B1) (A1) (B2)
 The electronic state of the initial guess is 1-A1.
 Leave Link  401 at Wed Oct 21 14:36:41 2020, MaxMem=  2684354560 cpu:               3.3 elap:               0.9
 (Enter /udrive/faculty/rpeverati/g16/g16/l502.exe)
 Keep J ints in memory in canonical form, NReq=1847790.
 FoFCou: FMM=F IPFlag=           0 FMFlag=           0 FMFlg1=           0
         NFxFlg=           0 DoJE=F BraDBF=F KetDBF=F FulRan=T
         wScrn=  0.000000 ICntrl=       600 IOpCl=  2 I1Cent=           0 NGrid=           0
         NMat0=    1 NMatS0=     47 NMatT0=    0 NMatD0=    1 NMtDS0=    0 NMtDT0=    0
 Symmetry not used in FoFCou.
 Two-electron integral symmetry not used.
 Closed shell SCF:
 Using DIIS extrapolation, IDIIS=  1040.
 Overlap will be assumed to be unity.
 NGot=  2684354560 LenX=  2684293073 LenY=  2684292191
 Requested convergence on RMS density matrix=1.00D-08 within 120 cycles.
 Requested convergence on MAX density matrix=1.00D-06.
 Requested convergence on             energy=1.00D-06.
 No special actions if energy rises.

 Cycle   1  Pass 1  IDiag  1:
 E=-0.543968702788611E-02
 DIIS: error= 1.18D-03 at cycle   1 NSaved=   1.
 NSaved= 1 IEnMin= 1 EnMin=-0.543968702788611E-02 IErMin= 1 ErrMin= 1.18D-03
 ErrMax= 1.18D-03  0.00D+00 EMaxC= 1.00D-01 BMatC= 2.59D-05 BMatP= 2.59D-05
 IDIUse=3 WtCom= 9.88D-01 WtEn= 1.18D-02
 Coeff-Com:  0.100D+01
 Coeff-En:   0.100D+01
 Coeff:      0.100D+01
 GapD=    2.000 DampG=2.000 DampE=1.000 DampFc=2.0000 IDamp=-1.
 RMSDP=1.15D-03 MaxDP=5.83D-03              OVMax= 0.00D+00

 Cycle   2  Pass 1  IDiag  3:
 E=-0.556237186785502E-02 Delta-E=       -0.000122684840 Rises=F Damp=F
 DIIS: error= 4.22D-04 at cycle   2 NSaved=   2.
 NSaved= 2 IEnMin= 2 EnMin=-0.556237186785502E-02 IErMin= 2 ErrMin= 4.22D-04
 ErrMax= 4.22D-04  0.00D+00 EMaxC= 1.00D-01 BMatC= 4.26D-06 BMatP= 2.59D-05
 IDIUse=3 WtCom= 9.96D-01 WtEn= 4.22D-03
 Coeff-Com: -0.595D+00 0.160D+01
 Coeff-En:   0.000D+00 0.100D+01
 Coeff:     -0.593D+00 0.159D+01
 Gap=     0.313 Goal=   None    Shift=    0.000
 RMSDP=7.82D-04 MaxDP=2.98D-03 DE=-1.23D-04 OVMax= 3.83D-03

 Cycle   3  Pass 1  IDiag  3:
 E=-0.559084252155806E-02 Delta-E=       -0.000028470654 Rises=F Damp=F
 DIIS: error= 1.49D-04 at cycle   3 NSaved=   3.
 NSaved= 3 IEnMin= 3 EnMin=-0.559084252155806E-02 IErMin= 3 ErrMin= 1.49D-04
 ErrMax= 1.49D-04  0.00D+00 EMaxC= 1.00D-01 BMatC= 2.83D-07 BMatP= 4.26D-06
 IDIUse=3 WtCom= 9.99D-01 WtEn= 1.49D-03
 Coeff-Com:  0.393D+00-0.111D+01 0.172D+01
 Coeff-En:   0.000D+00 0.000D+00 0.100D+01
 Coeff:      0.392D+00-0.111D+01 0.172D+01
 Gap=     0.313 Goal=   None    Shift=    0.000
 RMSDP=2.93D-04 MaxDP=1.25D-03 DE=-2.85D-05 OVMax= 1.78D-03

 Cycle   4  Pass 1  IDiag  3:
 E=-0.559427246713184E-02 Delta-E=       -0.000003429946 Rises=F Damp=F
 DIIS: error= 5.87D-05 at cycle   4 NSaved=   4.
 NSaved= 4 IEnMin= 4 EnMin=-0.559427246713184E-02 IErMin= 4 ErrMin= 5.87D-05
 ErrMax= 5.87D-05  0.00D+00 EMaxC= 1.00D-01 BMatC= 5.61D-08 BMatP= 2.83D-07
 IDIUse=1 WtCom= 1.00D+00 WtEn= 0.00D+00
 Coeff-Com: -0.124D+00 0.355D+00-0.110D+01 0.187D+01
 Coeff:     -0.124D+00 0.355D+00-0.110D+01 0.187D+01
 Gap=     0.314 Goal=   None    Shift=    0.000
 RMSDP=2.08D-04 MaxDP=7.77D-04 DE=-3.43D-06 OVMax= 1.17D-03

 Cycle   5  Pass 1  IDiag  3:
 E=-0.559514113965776E-02 Delta-E=       -0.000000868673 Rises=F Damp=F
 DIIS: error= 1.68D-05 at cycle   5 NSaved=   5.
 NSaved= 5 IEnMin= 5 EnMin=-0.559514113965776E-02 IErMin= 5 ErrMin= 1.68D-05
 ErrMax= 1.68D-05  0.00D+00 EMaxC= 1.00D-01 BMatC= 3.38D-09 BMatP= 5.61D-08
 IDIUse=1 WtCom= 1.00D+00 WtEn= 0.00D+00
 Coeff-Com:  0.763D-01-0.217D+00 0.750D+00-0.144D+01 0.184D+01
 Coeff:      0.763D-01-0.217D+00 0.750D+00-0.144D+01 0.184D+01
 Gap=     0.314 Goal=   None    Shift=    0.000
 RMSDP=4.36D-05 MaxDP=2.17D-04 DE=-8.69D-07 OVMax= 2.27D-04

 Cycle   6  Pass 1  IDiag  3:
 E=-0.559518720484142E-02 Delta-E=       -0.000000046065 Rises=F Damp=F
 DIIS: error= 7.72D-06 at cycle   6 NSaved=   6.
 NSaved= 6 IEnMin= 6 EnMin=-0.559518720484142E-02 IErMin= 6 ErrMin= 7.72D-06
 ErrMax= 7.72D-06  0.00D+00 EMaxC= 1.00D-01 BMatC= 4.84D-10 BMatP= 3.38D-09
 IDIUse=1 WtCom= 1.00D+00 WtEn= 0.00D+00
 Coeff-Com: -0.851D-01 0.242D+00-0.885D+00 0.176D+01-0.250D+01 0.246D+01
 Coeff:     -0.851D-01 0.242D+00-0.885D+00 0.176D+01-0.250D+01 0.246D+01
 Gap=     0.314 Goal=   None    Shift=    0.000
 RMSDP=2.11D-05 MaxDP=1.29D-04 DE=-4.61D-08 OVMax= 1.29D-04

 Cycle   7  Pass 1  IDiag  3:
 E=-0.559519596002112E-02 Delta-E=       -0.000000008755 Rises=F Damp=F
 DIIS: error= 2.60D-06 at cycle   7 NSaved=   7.
 NSaved= 7 IEnMin= 7 EnMin=-0.559519596002112E-02 IErMin= 7 ErrMin= 2.60D-06
 ErrMax= 2.60D-06  0.00D+00 EMaxC= 1.00D-01 BMatC= 4.08D-11 BMatP= 4.84D-10
 IDIUse=1 WtCom= 1.00D+00 WtEn= 0.00D+00
 Coeff-Com:  0.467D-01-0.134D+00 0.520D+00-0.106D+01 0.151D+01-0.172D+01
 Coeff-Com:  0.184D+01
 Coeff:      0.467D-01-0.134D+00 0.520D+00-0.106D+01 0.151D+01-0.172D+01
 Coeff:      0.184D+01
 Gap=     0.314 Goal=   None    Shift=    0.000
 RMSDP=6.94D-06 MaxDP=4.70D-05 DE=-8.76D-09 OVMax= 4.72D-05

 Cycle   8  Pass 1  IDiag  3:
 E=-0.559519668465747E-02 Delta-E=       -0.000000000725 Rises=F Damp=F
 DIIS: error= 5.95D-07 at cycle   8 NSaved=   8.
 NSaved= 8 IEnMin= 8 EnMin=-0.559519668465747E-02 IErMin= 8 ErrMin= 5.95D-07
 ErrMax= 5.95D-07  0.00D+00 EMaxC= 1.00D-01 BMatC= 3.38D-12 BMatP= 4.08D-11
 IDIUse=1 WtCom= 1.00D+00 WtEn= 0.00D+00
 Coeff-Com: -0.345D-01 0.998D-01-0.411D+00 0.852D+00-0.123D+01 0.150D+01
 Coeff-Com: -0.195D+01 0.218D+01
 Coeff:     -0.345D-01 0.998D-01-0.411D+00 0.852D+00-0.123D+01 0.150D+01
 Coeff:     -0.195D+01 0.218D+01
 Gap=     0.314 Goal=   None    Shift=    0.000
 RMSDP=1.61D-06 MaxDP=1.09D-05 DE=-7.25D-10 OVMax= 1.10D-05

 Cycle   9  Pass 1  IDiag  3:
 E=-0.559519672518682E-02 Delta-E=       -0.000000000041 Rises=F Damp=F
 DIIS: error= 2.07D-07 at cycle   9 NSaved=   9.
 NSaved= 9 IEnMin= 9 EnMin=-0.559519672518682E-02 IErMin= 9 ErrMin= 2.07D-07
 ErrMax= 2.07D-07  0.00D+00 EMaxC= 1.00D-01 BMatC= 4.27D-13 BMatP= 3.38D-12
 IDIUse=1 WtCom= 1.00D+00 WtEn= 0.00D+00
 Coeff-Com:  0.243D-03-0.142D-02 0.241D-01-0.614D-01 0.976D-01-0.183D+00
 Coeff-Com:  0.449D+00-0.739D+00 0.141D+01
 Coeff:      0.243D-03-0.142D-02 0.241D-01-0.614D-01 0.976D-01-0.183D+00
 Coeff:      0.449D+00-0.739D+00 0.141D+01
 Gap=     0.314 Goal=   None    Shift=    0.000
 RMSDP=2.53D-07 MaxDP=1.25D-06 DE=-4.05D-11 OVMax= 1.82D-06

 Cycle  10  Pass 1  IDiag  3:
 E=-0.559519672780162E-02 Delta-E=       -0.000000000003 Rises=F Damp=F
 DIIS: error= 2.18D-08 at cycle  10 NSaved=  10.
 NSaved=10 IEnMin=10 EnMin=-0.559519672780162E-02 IErMin=10 ErrMin= 2.18D-08
 ErrMax= 2.18D-08  0.00D+00 EMaxC= 1.00D-01 BMatC= 9.37D-15 BMatP= 4.27D-13
 IDIUse=1 WtCom= 1.00D+00 WtEn= 0.00D+00
 Coeff-Com: -0.121D-02 0.417D-02-0.344D-01 0.819D-01-0.127D+00 0.214D+00
 Coeff-Com: -0.476D+00 0.730D+00-0.132D+01 0.193D+01
 Coeff:     -0.121D-02 0.417D-02-0.344D-01 0.819D-01-0.127D+00 0.214D+00
 Coeff:     -0.476D+00 0.730D+00-0.132D+01 0.193D+01
 Gap=     0.314 Goal=   None    Shift=    0.000
 RMSDP=7.23D-08 MaxDP=4.62D-07 DE=-2.61D-12 OVMax= 4.65D-07

 Cycle  11  Pass 1  IDiag  3:
 E=-0.559519672788511E-02 Delta-E=       -0.000000000000 Rises=F Damp=F
 DIIS: error= 1.14D-08 at cycle  11 NSaved=  11.
 NSaved=11 IEnMin=11 EnMin=-0.559519672788511E-02 IErMin=11 ErrMin= 1.14D-08
 ErrMax= 1.14D-08  0.00D+00 EMaxC= 1.00D-01 BMatC= 1.61D-15 BMatP= 9.37D-15
 IDIUse=1 WtCom= 1.00D+00 WtEn= 0.00D+00
 Coeff-Com:  0.200D-03-0.117D-02 0.200D-01-0.509D-01 0.810D-01-0.151D+00
 Coeff-Com:  0.369D+00-0.575D+00 0.105D+01-0.171D+01 0.197D+01
 Coeff:      0.200D-03-0.117D-02 0.200D-01-0.509D-01 0.810D-01-0.151D+00
 Coeff:      0.369D+00-0.575D+00 0.105D+01-0.171D+01 0.197D+01
 Gap=     0.314 Goal=   None    Shift=    0.000
 RMSDP=2.70D-08 MaxDP=1.28D-07 DE=-8.35D-14 OVMax= 1.40D-07

 Cycle  12  Pass 1  IDiag  3:
 E=-0.559519672789044E-02 Delta-E=       -0.000000000000 Rises=F Damp=F
 DIIS: error= 5.23D-09 at cycle  12 NSaved=  12.
 NSaved=12 IEnMin=12 EnMin=-0.559519672789044E-02 IErMin=12 ErrMin= 5.23D-09
 ErrMax= 5.23D-09  0.00D+00 EMaxC= 1.00D-01 BMatC= 4.05D-16 BMatP= 1.61D-15
 IDIUse=1 WtCom= 1.00D+00 WtEn= 0.00D+00
 Coeff-Com:  0.585D-06-0.256D-05 0.128D-04-0.407D-04 0.482D-04-0.144D-03
 Coeff-Com:  0.591D-03-0.270D-02 0.115D-01-0.462D-02 0.198D+00 0.797D+00
 Coeff:      0.585D-06-0.256D-05 0.128D-04-0.407D-04 0.482D-04-0.144D-03
 Coeff:      0.591D-03-0.270D-02 0.115D-01-0.462D-02 0.198D+00 0.797D+00
 Gap=     0.314 Goal=   None    Shift=    0.000
 RMSDP=1.00D-08 MaxDP=5.39D-08 DE=-5.33D-15 OVMax= 5.42D-08

 Cycle  13  Pass 1  IDiag  3:
 E=-0.559519672790110E-02 Delta-E=       -0.000000000000 Rises=F Damp=F
 DIIS: error= 4.68D-12 at cycle  13 NSaved=  13.
 NSaved=13 IEnMin=13 EnMin=-0.559519672790110E-02 IErMin=13 ErrMin= 4.68D-12
 ErrMax= 4.68D-12  0.00D+00 EMaxC= 1.00D-01 BMatC= 2.49D-22 BMatP= 4.05D-16
 IDIUse=1 WtCom= 1.00D+00 WtEn= 0.00D+00
 Large coefficients: NSaved= 13 BigCof=    0.00 CofMax=   10.00 Det=-3.91D-26
 Inversion failed.  Reducing to 12 matrices.
 Large coefficients: NSaved= 12 BigCof=    0.00 CofMax=   10.00 Det=-1.47D-23
 Inversion failed.  Reducing to 11 matrices.
 Large coefficients: NSaved= 11 BigCof=    0.00 CofMax=   10.00 Det=-4.17D-23
 Inversion failed.  Reducing to 10 matrices.
 Coeff-Com: -0.117D-06-0.386D-07-0.349D-06 0.259D-05-0.208D-04 0.714D-04
 Coeff-Com:  0.726D-04 0.202D-02 0.712D-02 0.991D+00
 Coeff:     -0.117D-06-0.386D-07-0.349D-06 0.259D-05-0.208D-04 0.714D-04
 Coeff:      0.726D-04 0.202D-02 0.712D-02 0.991D+00
 Gap=     0.314 Goal=   None    Shift=    0.000
 RMSDP=6.85D-12 MaxDP=2.86D-11 DE=-1.07D-14 OVMax= 3.67D-11

 Cycle  14  Pass 2  IDiag  1:
 SCF Done:  E(RPM7) = -0.559519672790E-02 A.U. after   14 cycles
            NFock= 13  Conv=0.69D-11     -V/T= 0.9995
 KE=-1.155846871257D+01 PE=-6.636109711222D+00 EE= 6.802583404369D+00
 Leave Link  502 at Wed Oct 21 14:36:43 2020, MaxMem=  2684354560 cpu:              10.3 elap:               1.5
 (Enter /udrive/faculty/rpeverati/g16/g16/l508.exe)
 QCSCF skips out because SCF is already converged.
 Leave Link  508 at Wed Oct 21 14:36:44 2020, MaxMem=  2684354560 cpu:               0.6 elap:               0.7
 (Enter /udrive/faculty/rpeverati/g16/g16/l701.exe)
 ... and contract with generalized density number  0.
 Compute integral first derivatives.
 R6Disp: Adding PM7 dispersion energy 1st derivatives to the gradient.
 Leave Link  701 at Wed Oct 21 14:36:46 2020, MaxMem=  2684354560 cpu:               4.2 elap:               1.1
 (Enter /udrive/faculty/rpeverati/g16/g16/l702.exe)
 L702 exits ... SP integral derivatives will be done elsewhere.
 Leave Link  702 at Wed Oct 21 14:36:47 2020, MaxMem=  2684354560 cpu:               2.5 elap:               1.0
 (Enter /udrive/faculty/rpeverati/g16/g16/l703.exe)
 Integral derivatives from FoFJK, PRISM(SPDF).
 Compute integral first derivatives, UseDBF=F ICtDFT=           0.
 Calling FoFJK, ICntrl=      2127 FMM=F ISym2X=1 I1Cent= 0 IOpClX= 0 NMat=1 NMatS=1 NMatT=0.
 FoFJK:  IHMeth=43 ICntrl=    2127 DoSepK=F KAlg= 0 I1Cent=           0 FoldK=F
 IRaf=         0 NMat=       1 IRICut=       1 DoRegI=T DoRafI=F ISym2E= 1 IDoP0=3 IntGTp=3.
 FoFCou: FMM=F IPFlag=           0 FMFlag=      100000 FMFlg1=         800
         NFxFlg=           0 DoJE=F BraDBF=F KetDBF=F FulRan=T
         wScrn=  0.000000 ICntrl=      2127 IOpCl=  0 I1Cent=           0 NGrid=           0
         NMat0=    1 NMatS0=      1 NMatT0=    0 NMatD0=    1 NMtDS0=    0 NMtDT0=    0
 Petite list used in FoFCou.
 Leave Link  703 at Wed Oct 21 14:36:48 2020, MaxMem=  2684354560 cpu:               3.7 elap:               1.0
 (Enter /udrive/faculty/rpeverati/g16/g16/l716.exe)
 Dipole        = 4.55987850D-16 4.66293670D-15-6.69154141D-01
 ***** Axes restored to original set *****
 -------------------------------------------------------------------
 Center     Atomic                   Forces (Hartrees/Bohr)
 Number     Number              X              Y              Z
 -------------------------------------------------------------------
      1       16          -0.000000000   -0.000000000   -0.001067166
      2        1          -0.000000000    0.000056580    0.000533583
      3        1           0.000000000   -0.000056580    0.000533583
 -------------------------------------------------------------------
 Cartesian Forces:  Max     0.001067166 RMS     0.000436485
 Leave Link  716 at Wed Oct 21 14:36:49 2020, MaxMem=  2684354560 cpu:               2.1 elap:               0.9
 (Enter /udrive/faculty/rpeverati/g16/g16/l103.exe)

 GradGradGradGradGradGradGradGradGradGradGradGradGradGradGradGradGradGrad
 Berny optimization.
 Optmz: redundant internal coordinate code flag= 1
 Using GEDIIS/GDIIS optimizer.
 Red2BG:  D1=  4.46D-01 OD1=  2.37D-02 B2RMS=  0.00D+00 IAprox=0
 FormGI is forming the generalized inverse of G from B-inverse, IUseBI=4.
 Internal  Forces:  Max     0.001103022 RMS     0.000686262
 Search for a local minimum.
 Step number   2 out of a maximum of  100
 All quantities printed in internal units (Hartrees-Bohrs-Radians)
 RMS Force = .68626D-03 SwitMx=.10000D-02 MixMth= 2
 Mixed Optimization -- En-DIIS/RFO-DIIS
 Update second derivatives using D2CorX and points    1    2
 DE= -4.05D-04 DEPred=-3.73D-04 R= 1.09D+00
 TightC=F SS=  1.41D+00  RLast= 6.75D-02 DXNew= 5.0454D-01 2.0243D-01
 Trust test= 1.09D+00 RLast= 6.75D-02 DXMaxT set to 3.00D-01
 The second derivative matrix:
                          R1        R2        A1
           R1           0.26984
           R2           0.00241   0.26984
           A1           0.00426   0.00426   0.14331
 ITU=  1  0
 Use linear search instead of GDIIS.
 Eigenvectors of the second derivative matrix:
                           1         2         3
     Eigenvalues --     0.14303   0.26743   0.27253
   1         R1         0.03295   0.70711  -0.70634
   2         R2         0.03295  -0.70711  -0.70634
   3         A1        -0.99891  -0.00000  -0.04659
 Iter=   1 RLamda= 0.00000000D+00 Sum=-2.27376530D-06.
 Iter=   2 RLamda=-2.27376530D-06 Sum=-2.27374514D-06.
 RFO step:  Lambda=-2.27376530D-06 EMin= 1.43030152D-01
 Quartic linear search produced a step of  0.10383.
 Iteration  1 RMS(Cart)=  0.00604829 RMS(Int)=  0.00001608
 Iteration  2 RMS(Cart)=  0.00001522 RMS(Int)=  0.00000000
 Iteration  3 RMS(Cart)=  0.00000000 RMS(Int)=  0.00000000
 ITry= 1 IFail=0 DXMaxC= 5.65D-03 DCOld= 1.00D+10 DXMaxT= 3.00D-01 DXLimC= 3.00D+00 Rises=F
 ClnCor:  largest displacement from symmetrization is 1.73D-15 for atom     3.
 Variable       Old X    -DE/DX   Delta X   Delta X   Delta X     New X
                                 (Linear)    (Quad)   (Total)
    R1        2.53179  -0.00031   0.00073  -0.00200  -0.00127   2.53052
    R2        2.53179  -0.00031   0.00073  -0.00200  -0.00127   2.53052
    A1        1.68366   0.00110   0.00693   0.00092   0.00785   1.69151
         Item               Value     Threshold  Converged?
 Maximum Force            0.001103     0.000450     NO 
 RMS     Force            0.000686     0.000300     NO 
 Maximum Displacement     0.005653     0.001800     NO 
 RMS     Displacement     0.006040     0.001200     NO 
 Predicted change in Energy=-4.684589D-06
 Lowest energy point so far.  Saving SCF results.
 Largest change from initial coordinates is atom    2       0.046 Angstoms.
 GradGradGradGradGradGradGradGradGradGradGradGradGradGradGradGradGradGrad

 Leave Link  103 at Wed Oct 21 14:36:51 2020, MaxMem=  2684354560 cpu:               5.7 elap:               1.2
 (Enter /udrive/faculty/rpeverati/g16/g16/l202.exe)
                          Input orientation:                          
 ---------------------------------------------------------------------
 Center     Atomic      Atomic             Coordinates (Angstroms)
 Number     Number       Type             X           Y           Z
 ---------------------------------------------------------------------
      1         16           0        0.000000   -0.000000    0.079432
      2          1           0        0.000000    1.002275   -0.808612
      3          1           0       -0.000000   -1.002275   -0.808612
 ---------------------------------------------------------------------
                    Distance matrix (angstroms):
                    1          2          3
     1  S    0.000000
     2  H    1.339096   0.000000
     3  H    1.339096   2.004549   0.000000
 Stoichiometry    H2S
 Framework group  C2V[C2(S),SGV(H2)]
 Deg. of freedom     2
 Full point group                 C2V     NOp   4
 RotChk:  IX=0 Diff= 1.13D-15
 Largest Abelian subgroup         C2V     NOp   4
 Largest concise Abelian subgroup C2      NOp   2
                         Standard orientation:                         
 ---------------------------------------------------------------------
 Center     Atomic      Atomic             Coordinates (Angstroms)
 Number     Number       Type             X           Y           Z
 ---------------------------------------------------------------------
      1         16           0        0.000000    0.000000    0.098672
      2          1           0        0.000000    1.002275   -0.789373
      3          1           0       -0.000000   -1.002275   -0.789373
 ---------------------------------------------------------------------
 Rotational constants (GHZ):         337.9746575         249.5908080         143.5676070
 Leave Link  202 at Wed Oct 21 14:36:52 2020, MaxMem=  2684354560 cpu:               2.3 elap:               0.7
 (Enter /udrive/faculty/rpeverati/g16/g16/l301.exe)
 Standard basis: VSTO-6G (5D, 7F)
 Ernie: Thresh=  0.10000D-02 Tol=  0.10000D-05 Strict=F.
 EHB=         0.000000000 Number of Hydrogen Bonds=     0
  NNHCO=     0 NNPyr=     0 NCTC=     0               EPep=         0.000000000
    EC=         3.596642211  ECS=         0.253734919   EG=         0.050780619
   EHC=         0.000079887  EAt=        -7.214037370  AtH=         0.271874780
 EPDDG=         0.000000000  ECC=         3.901237636 EAtT=         7.485912149
  EHyb=         0.000000000
 There are     6 symmetry adapted cartesian basis functions of A1  symmetry.
 There are     1 symmetry adapted cartesian basis functions of A2  symmetry.
 There are     2 symmetry adapted cartesian basis functions of B1  symmetry.
 There are     3 symmetry adapted cartesian basis functions of B2  symmetry.
 There are     5 symmetry adapted basis functions of A1  symmetry.
 There are     1 symmetry adapted basis functions of A2  symmetry.
 There are     2 symmetry adapted basis functions of B1  symmetry.
 There are     3 symmetry adapted basis functions of B2  symmetry.
    11 basis functions,    72 primitive gaussians,    12 cartesian basis functions
     4 alpha electrons        4 beta electrons
       nuclear repulsion energy        11.3871497847 Hartrees.
 IExCor=    0 DFT=F Ex=HF Corr=None ExCW=0 ScaHFX=  1.000000
 ScaDFX=  1.000000  1.000000  1.000000  1.000000 ScalE2=  1.000000  1.000000
 IRadAn=      5 IRanWt=     -1 IRanGd=            0 ICorTp=0 IEmpDi=251
 Integral buffers will be    131072 words long.
 Regular integral format.
 Two-electron integral symmetry is turned off.
 R6Disp:  PM7 Dispersion energy=       -0.0000095318 Hartrees.
 Nuclear repulsion after empirical dispersion term =       11.3871402530 Hartrees.
 Leave Link  301 at Wed Oct 21 14:36:53 2020, MaxMem=  2684354560 cpu:               5.1 elap:               1.1
 (Enter /udrive/faculty/rpeverati/g16/g16/l302.exe)
 Do NDO integrals.
 NPDir=0 NMtPBC=     1 NCelOv=     1 NCel=       1 NClECP=     1 NCelD=      1
         NCelK=      1 NCelE2=     1 NClLst=     1 CellRange=     0.0.
 One-electron integrals computed using PRISM.
 NBasis=    11 RedAO= T EigKep=  1.00D+00  NBF=     5     1     2     3
 NBsUse=    11 1.00D-06 EigRej= -1.00D+00 NBFU=     5     1     2     3
 Leave Link  302 at Wed Oct 21 14:36:55 2020, MaxMem=  2684354560 cpu:               4.1 elap:               1.0
 (Enter /udrive/faculty/rpeverati/g16/g16/l303.exe)
 DipDrv:  MaxL=1.
 Leave Link  303 at Wed Oct 21 14:36:56 2020, MaxMem=  2684354560 cpu:               3.0 elap:               0.9
 (Enter /udrive/faculty/rpeverati/g16/g16/l401.exe)
 Initial guess from the checkpoint file:  "MN_44_H2S_BH76_PM7_SE.chk"
 SCF N**3 symmetry information disabled.
 B after Tr=    -0.000000    0.000000   -0.000000
         Rot=    1.000000    0.000000    0.000000   -0.000000 Ang=   0.00 deg.
 Guess basis will be translated and rotated to current coordinates.
 JPrj=0 DoOrth=T DoCkMO=T.
 Initial guess orbital symmetries:
       Occupied  (A1) (B2) (A1) (B1)
       Virtual   (B2) (A1) (A1) (A2) (B1) (A1) (B2)
 The electronic state of the initial guess is 1-A1.
 Leave Link  401 at Wed Oct 21 14:36:57 2020, MaxMem=  2684354560 cpu:               3.1 elap:               0.9
 (Enter /udrive/faculty/rpeverati/g16/g16/l502.exe)
 Keep J ints in memory in canonical form, NReq=1847790.
 FoFCou: FMM=F IPFlag=           0 FMFlag=           0 FMFlg1=           0
         NFxFlg=           0 DoJE=F BraDBF=F KetDBF=F FulRan=T
         wScrn=  0.000000 ICntrl=       600 IOpCl=  2 I1Cent=           0 NGrid=           0
         NMat0=    1 NMatS0=     47 NMatT0=    0 NMatD0=    1 NMtDS0=    0 NMtDT0=    0
 Symmetry not used in FoFCou.
 Two-electron integral symmetry not used.
 Closed shell SCF:
 Using DIIS extrapolation, IDIIS=  1040.
 Overlap will be assumed to be unity.
 NGot=  2684354560 LenX=  2684293073 LenY=  2684292191
 Requested convergence on RMS density matrix=1.00D-08 within 120 cycles.
 Requested convergence on MAX density matrix=1.00D-06.
 Requested convergence on             energy=1.00D-06.
 No special actions if energy rises.

 Cycle   1  Pass 1  IDiag  1:
 E=-0.559783084487897E-02
 DIIS: error= 1.14D-04 at cycle   1 NSaved=   1.
 NSaved= 1 IEnMin= 1 EnMin=-0.559783084487897E-02 IErMin= 1 ErrMin= 1.14D-04
 ErrMax= 1.14D-04  0.00D+00 EMaxC= 1.00D-01 BMatC= 3.54D-07 BMatP= 3.54D-07
 IDIUse=3 WtCom= 9.99D-01 WtEn= 1.14D-03
 Coeff-Com:  0.100D+01
 Coeff-En:   0.100D+01
 Coeff:      0.100D+01
 RMSDP=1.37D-04 MaxDP=6.59D-04              OVMax= 0.00D+00

 Cycle   2  Pass 1  IDiag  3:
 E=-0.559953989193041E-02 Delta-E=       -0.000001709047 Rises=F Damp=F
 DIIS: error= 4.99D-05 at cycle   2 NSaved=   2.
 NSaved= 2 IEnMin= 2 EnMin=-0.559953989193041E-02 IErMin= 2 ErrMin= 4.99D-05
 ErrMax= 4.99D-05  0.00D+00 EMaxC= 1.00D-01 BMatC= 5.88D-08 BMatP= 3.54D-07
 IDIUse=1 WtCom= 1.00D+00 WtEn= 0.00D+00
 Coeff-Com: -0.510D+00 0.151D+01
 Coeff:     -0.510D+00 0.151D+01
 Gap=     0.313 Goal=   None    Shift=    0.000
 RMSDP=8.95D-05 MaxDP=3.68D-04 DE=-1.71D-06 OVMax= 4.42D-04

 Cycle   3  Pass 1  IDiag  3:
 E=-0.559995255813028E-02 Delta-E=       -0.000000412666 Rises=F Damp=F
 DIIS: error= 2.17D-05 at cycle   3 NSaved=   3.
 NSaved= 3 IEnMin= 3 EnMin=-0.559995255813028E-02 IErMin= 3 ErrMin= 2.17D-05
 ErrMax= 2.17D-05  0.00D+00 EMaxC= 1.00D-01 BMatC= 5.37D-09 BMatP= 5.88D-08
 IDIUse=1 WtCom= 1.00D+00 WtEn= 0.00D+00
 Coeff-Com:  0.134D+00-0.544D+00 0.141D+01
 Coeff:      0.134D+00-0.544D+00 0.141D+01
 Gap=     0.314 Goal=   None    Shift=    0.000
 RMSDP=3.50D-05 MaxDP=1.63D-04 DE=-4.13D-07 OVMax= 2.23D-04

 Cycle   4  Pass 1  IDiag  3:
 E=-0.560001058713588E-02 Delta-E=       -0.000000058029 Rises=F Damp=F
 DIIS: error= 9.55D-06 at cycle   4 NSaved=   4.
 NSaved= 4 IEnMin= 4 EnMin=-0.560001058713588E-02 IErMin= 4 ErrMin= 9.55D-06
 ErrMax= 9.55D-06  0.00D+00 EMaxC= 1.00D-01 BMatC= 1.36D-09 BMatP= 5.37D-09
 IDIUse=1 WtCom= 1.00D+00 WtEn= 0.00D+00
 Coeff-Com: -0.105D+00 0.469D+00-0.177D+01 0.240D+01
 Coeff:     -0.105D+00 0.469D+00-0.177D+01 0.240D+01
 Gap=     0.314 Goal=   None    Shift=    0.000
 RMSDP=3.28D-05 MaxDP=1.33D-04 DE=-5.80D-08 OVMax= 2.09D-04

 Cycle   5  Pass 1  IDiag  3:
 E=-0.560003075743865E-02 Delta-E=       -0.000000020170 Rises=F Damp=F
 DIIS: error= 1.98D-06 at cycle   5 NSaved=   5.
 NSaved= 5 IEnMin= 5 EnMin=-0.560003075743865E-02 IErMin= 5 ErrMin= 1.98D-06
 ErrMax= 1.98D-06  0.00D+00 EMaxC= 1.00D-01 BMatC= 4.09D-11 BMatP= 1.36D-09
 IDIUse=1 WtCom= 1.00D+00 WtEn= 0.00D+00
 Coeff-Com:  0.794D-01-0.353D+00 0.133D+01-0.189D+01 0.183D+01
 Coeff:      0.794D-01-0.353D+00 0.133D+01-0.189D+01 0.183D+01
 Gap=     0.314 Goal=   None    Shift=    0.000
 RMSDP=4.50D-06 MaxDP=2.19D-05 DE=-2.02D-08 OVMax= 2.49D-05

 Cycle   6  Pass 1  IDiag  3:
 E=-0.560003127195330E-02 Delta-E=       -0.000000000515 Rises=F Damp=F
 DIIS: error= 8.20D-07 at cycle   6 NSaved=   6.
 NSaved= 6 IEnMin= 6 EnMin=-0.560003127195330E-02 IErMin= 6 ErrMin= 8.20D-07
 ErrMax= 8.20D-07  0.00D+00 EMaxC= 1.00D-01 BMatC= 5.32D-12 BMatP= 4.09D-11
 IDIUse=1 WtCom= 1.00D+00 WtEn= 0.00D+00
 Coeff-Com: -0.124D+00 0.551D+00-0.208D+01 0.296D+01-0.308D+01 0.277D+01
 Coeff:     -0.124D+00 0.551D+00-0.208D+01 0.296D+01-0.308D+01 0.277D+01
 Gap=     0.314 Goal=   None    Shift=    0.000
 RMSDP=2.42D-06 MaxDP=1.46D-05 DE=-5.15D-10 OVMax= 1.46D-05

 Cycle   7  Pass 1  IDiag  3:
 E=-0.560003137249154E-02 Delta-E=       -0.000000000101 Rises=F Damp=F
 DIIS: error= 2.44D-07 at cycle   7 NSaved=   7.
 NSaved= 7 IEnMin= 7 EnMin=-0.560003137249154E-02 IErMin= 7 ErrMin= 2.44D-07
 ErrMax= 2.44D-07  0.00D+00 EMaxC= 1.00D-01 BMatC= 3.50D-13 BMatP= 5.32D-12
 IDIUse=1 WtCom= 1.00D+00 WtEn= 0.00D+00
 Coeff-Com:  0.114D+00-0.510D+00 0.193D+01-0.275D+01 0.285D+01-0.270D+01
 Coeff-Com:  0.206D+01
 Coeff:      0.114D+00-0.510D+00 0.193D+01-0.275D+01 0.285D+01-0.270D+01
 Coeff:      0.206D+01
 Gap=     0.314 Goal=   None    Shift=    0.000
 RMSDP=5.93D-07 MaxDP=4.25D-06 DE=-1.01D-10 OVMax= 4.27D-06

 Cycle   8  Pass 1  IDiag  3:
 E=-0.560003137831266E-02 Delta-E=       -0.000000000006 Rises=F Damp=F
 DIIS: error= 4.96D-08 at cycle   8 NSaved=   8.
 NSaved= 8 IEnMin= 8 EnMin=-0.560003137831266E-02 IErMin= 8 ErrMin= 4.96D-08
 ErrMax= 4.96D-08  0.00D+00 EMaxC= 1.00D-01 BMatC= 3.06D-14 BMatP= 3.50D-13
 IDIUse=1 WtCom= 1.00D+00 WtEn= 0.00D+00
 Coeff-Com: -0.116D+00 0.520D+00-0.198D+01 0.281D+01-0.292D+01 0.278D+01
 Coeff-Com: -0.230D+01 0.220D+01
 Coeff:     -0.116D+00 0.520D+00-0.198D+01 0.281D+01-0.292D+01 0.278D+01
 Coeff:     -0.230D+01 0.220D+01
 Gap=     0.314 Goal=   None    Shift=    0.000
 RMSDP=1.44D-07 MaxDP=9.75D-07 DE=-5.82D-12 OVMax= 9.80D-07

 Cycle   9  Pass 1  IDiag  3:
 E=-0.560003137867682E-02 Delta-E=       -0.000000000000 Rises=F Damp=F
 DIIS: error= 1.14D-08 at cycle   9 NSaved=   9.
 NSaved= 9 IEnMin= 9 EnMin=-0.560003137867682E-02 IErMin= 9 ErrMin= 1.14D-08
 ErrMax= 1.14D-08  0.00D+00 EMaxC= 1.00D-01 BMatC= 1.28D-15 BMatP= 3.06D-14
 IDIUse=1 WtCom= 1.00D+00 WtEn= 0.00D+00
 Coeff-Com:  0.514D-01-0.230D+00 0.876D+00-0.125D+01 0.130D+01-0.124D+01
 Coeff-Com:  0.108D+01-0.116D+01 0.158D+01
 Coeff:      0.514D-01-0.230D+00 0.876D+00-0.125D+01 0.130D+01-0.124D+01
 Coeff:      0.108D+01-0.116D+01 0.158D+01
 Gap=     0.314 Goal=   None    Shift=    0.000
 RMSDP=1.66D-08 MaxDP=7.04D-08 DE=-3.64D-13 OVMax= 1.17D-07

 Cycle  10  Pass 1  IDiag  3:
 E=-0.560003137869280E-02 Delta-E=       -0.000000000000 Rises=F Damp=F
 DIIS: error= 2.90D-09 at cycle  10 NSaved=  10.
 NSaved=10 IEnMin=10 EnMin=-0.560003137869280E-02 IErMin=10 ErrMin= 2.90D-09
 ErrMax= 2.90D-09  0.00D+00 EMaxC= 1.00D-01 BMatC= 1.23D-16 BMatP= 1.28D-15
 IDIUse=1 WtCom= 1.00D+00 WtEn= 0.00D+00
 Coeff-Com:  0.162D-02-0.697D-02 0.255D-01-0.358D-01 0.372D-01-0.316D-01
 Coeff-Com: -0.675D-02 0.679D-01-0.516D+00 0.147D+01
 Coeff:      0.162D-02-0.697D-02 0.255D-01-0.358D-01 0.372D-01-0.316D-01
 Coeff:     -0.675D-02 0.679D-01-0.516D+00 0.147D+01
 Gap=     0.314 Goal=   None    Shift=    0.000
 RMSDP=6.96D-09 MaxDP=4.35D-08 DE=-1.60D-14 OVMax= 4.37D-08

 Cycle  11  Pass 2  IDiag  1:
 SCF Done:  E(RPM7) = -0.560003137869E-02 A.U. after   11 cycles
            NFock= 10  Conv=0.70D-08     -V/T= 0.9995
 KE=-1.155921159283D+01 PE=-6.635965996553D+00 EE= 6.802437305026D+00
 Leave Link  502 at Wed Oct 21 14:36:59 2020, MaxMem=  2684354560 cpu:               9.0 elap:               1.5
 (Enter /udrive/faculty/rpeverati/g16/g16/l508.exe)
 QCSCF skips out because SCF is already converged.
 Leave Link  508 at Wed Oct 21 14:37:00 2020, MaxMem=  2684354560 cpu:               0.6 elap:               0.7
 (Enter /udrive/faculty/rpeverati/g16/g16/l701.exe)
 ... and contract with generalized density number  0.
 Compute integral first derivatives.
 R6Disp: Adding PM7 dispersion energy 1st derivatives to the gradient.
 Leave Link  701 at Wed Oct 21 14:37:01 2020, MaxMem=  2684354560 cpu:               4.2 elap:               1.0
 (Enter /udrive/faculty/rpeverati/g16/g16/l702.exe)
 L702 exits ... SP integral derivatives will be done elsewhere.
 Leave Link  702 at Wed Oct 21 14:37:03 2020, MaxMem=  2684354560 cpu:               2.4 elap:               0.8
 (Enter /udrive/faculty/rpeverati/g16/g16/l703.exe)
 Integral derivatives from FoFJK, PRISM(SPDF).
 Compute integral first derivatives, UseDBF=F ICtDFT=           0.
 Calling FoFJK, ICntrl=      2127 FMM=F ISym2X=1 I1Cent= 0 IOpClX= 0 NMat=1 NMatS=1 NMatT=0.
 FoFJK:  IHMeth=43 ICntrl=    2127 DoSepK=F KAlg= 0 I1Cent=           0 FoldK=F
 IRaf=         0 NMat=       1 IRICut=       1 DoRegI=T DoRafI=F ISym2E= 1 IDoP0=3 IntGTp=3.
 FoFCou: FMM=F IPFlag=           0 FMFlag=      100000 FMFlg1=         800
         NFxFlg=           0 DoJE=F BraDBF=F KetDBF=F FulRan=T
         wScrn=  0.000000 ICntrl=      2127 IOpCl=  0 I1Cent=           0 NGrid=           0
         NMat0=    1 NMatS0=      1 NMatT0=    0 NMatD0=    1 NMtDS0=    0 NMtDT0=    0
 Petite list used in FoFCou.
 Leave Link  703 at Wed Oct 21 14:37:04 2020, MaxMem=  2684354560 cpu:               3.7 elap:               1.0
 (Enter /udrive/faculty/rpeverati/g16/g16/l716.exe)
 Dipole        = 9.76118417D-16-3.33066907D-15-6.69084857D-01
 ***** Axes restored to original set *****
 -------------------------------------------------------------------
 Center     Atomic                   Forces (Hartrees/Bohr)
 Number     Number              X              Y              Z
 -------------------------------------------------------------------
      1       16           0.000000000   -0.000000000   -0.000080368
      2        1          -0.000000000   -0.000039549    0.000040184
      3        1           0.000000000    0.000039549    0.000040184
 -------------------------------------------------------------------
 Cartesian Forces:  Max     0.000080368 RMS     0.000037737
 Leave Link  716 at Wed Oct 21 14:37:05 2020, MaxMem=  2684354560 cpu:               2.1 elap:               0.8
 (Enter /udrive/faculty/rpeverati/g16/g16/l103.exe)

 GradGradGradGradGradGradGradGradGradGradGradGradGradGradGradGradGradGrad
 Berny optimization.
 Optmz: redundant internal coordinate code flag= 1
 Using GEDIIS/GDIIS optimizer.
 Red2BG:  D1=  4.47D-01 OD1=  3.48D-03 B2RMS=  0.00D+00 IAprox=0
 FormGI is forming the generalized inverse of G from B-inverse, IUseBI=4.
 Internal  Forces:  Max     0.000056250 RMS     0.000046271
 Search for a local minimum.
 Step number   3 out of a maximum of  100
 All quantities printed in internal units (Hartrees-Bohrs-Radians)
 RMS Force = .46271D-04 SwitMx=.10000D-02 MixMth= 2
 Mixed Optimization -- En-DIIS/RFO-DIIS
 Swapping is turned off.
 Update second derivatives using D2CorX and points    1    2    3
 DE= -4.83D-06 DEPred=-4.68D-06 R= 1.03D+00
 TightC=F SS=  1.41D+00  RLast= 8.05D-03 DXNew= 5.0454D-01 2.4151D-02
 Trust test= 1.03D+00 RLast= 8.05D-03 DXMaxT set to 3.00D-01
 The second derivative matrix:
                          R1        R2        A1
           R1           0.26730
           R2          -0.00013   0.26730
           A1           0.01046   0.01046   0.14270
 ITU=  1  1  0
 Eigenvectors of the second derivative matrix:
                           1         2         3
     Eigenvalues --     0.14096   0.26743   0.26890
   1         R1         0.08233   0.70711  -0.70230
   2         R2         0.08233  -0.70711  -0.70230
   3         A1        -0.99320   0.00000  -0.11643
 DoSqrt=T IScMMF=    -3 MM Scaling Factor =       0.00000
 En-DIIS/RFO-DIIS/Sim-DIIS IScMMF=       -3 using points:     3    2
 Iter=   1 RLamda= 0.00000000D+00 Sum=-2.50963245D-08.
 Iter=   2 RLamda=-2.50963245D-08 Sum=-2.50963219D-08.
 RFO step:  Lambda=-2.50963245D-08.
 NNeg= 0 NGDIIS= 2 SimSw=  2.50D-03 Rises=F DC= -4.83D-06 SmlDif=  1.00D-05
 NRisDI= 0 DoIntr=F SqrtH=F CThrHd= 10.0 CDAdj=  3.0
 RMS Error=  0.1843130770D-03 NUsed= 2 OKEnD=F EnDIS=F
 Total RFO-DIIS matrix:
                 1             2             3 
      1   0.000000D+00 -0.100000D+01 -0.100000D+01
      2  -0.100000D+01  0.101914D-06  0.142859D-05
      3  -0.100000D+01  0.142859D-05  0.675637D-04
 InvSVX:  RCond= 1.62D-05 Info=           0 Equed=N FErr=  1.04D-15 BErr=  5.44D-17
 DidBck=F Rises=F RFO-DIIS coefs:    1.02047   -0.02047
 Iteration  1 RMS(Cart)=  0.00012799 RMS(Int)=  0.00000001
 Iteration  2 RMS(Cart)=  0.00000001 RMS(Int)=  0.00000000
 ITry= 1 IFail=0 DXMaxC= 1.58D-04 DCOld= 1.00D+10 DXMaxT= 3.00D-01 DXLimC= 3.00D+00 Rises=F
 ClnCor:  largest displacement from symmetrization is 1.88D-15 for atom     3.
 Variable       Old X    -DE/DX   Delta X   Delta X   Delta X     New X
                                 (Linear)    (Quad)   (Total)
    R1        2.53052  -0.00006  -0.00003  -0.00019  -0.00021   2.53031
    R2        2.53052  -0.00006  -0.00003  -0.00019  -0.00021   2.53031
    A1        1.69151   0.00001   0.00016  -0.00006   0.00010   1.69161
         Item               Value     Threshold  Converged?
 Maximum Force            0.000056     0.000450     YES
 RMS     Force            0.000046     0.000300     YES
 Maximum Displacement     0.000158     0.001800     YES
 RMS     Displacement     0.000128     0.001200     YES
 Predicted change in Energy=-1.254816D-08
 Optimization completed.
    -- Stationary point found.
                           ----------------------------
                           !   Optimized Parameters   !
                           ! (Angstroms and Degrees)  !
 --------------------------                            --------------------------
 ! Name  Definition              Value          Derivative Info.                !
 --------------------------------------------------------------------------------
 ! R1    R(1,2)                  1.3391         -DE/DX =   -0.0001              !
 ! R2    R(1,3)                  1.3391         -DE/DX =   -0.0001              !
 ! A1    A(2,1,3)               96.9163         -DE/DX =    0.0                 !
 --------------------------------------------------------------------------------
 Lowest energy point so far.  Saving SCF results.
 Largest change from initial coordinates is atom    2       0.047 Angstoms.
 GradGradGradGradGradGradGradGradGradGradGradGradGradGradGradGradGradGrad

 Leave Link  103 at Wed Oct 21 14:37:06 2020, MaxMem=  2684354560 cpu:               5.3 elap:               1.1
 (Enter /udrive/faculty/rpeverati/g16/g16/l202.exe)
                          Input orientation:                          
 ---------------------------------------------------------------------
 Center     Atomic      Atomic             Coordinates (Angstroms)
 Number     Number       Type             X           Y           Z
 ---------------------------------------------------------------------
      1         16           0        0.000000   -0.000000    0.079432
      2          1           0        0.000000    1.002275   -0.808612
      3          1           0       -0.000000   -1.002275   -0.808612
 ---------------------------------------------------------------------
                    Distance matrix (angstroms):
                    1          2          3
     1  S    0.000000
     2  H    1.339096   0.000000
     3  H    1.339096   2.004549   0.000000
 Stoichiometry    H2S
 Framework group  C2V[C2(S),SGV(H2)]
 Deg. of freedom     2
 Full point group                 C2V     NOp   4
 RotChk:  IX=0 Diff= 6.91D-16
 Largest Abelian subgroup         C2V     NOp   4
 Largest concise Abelian subgroup C2      NOp   2
                         Standard orientation:                         
 ---------------------------------------------------------------------
 Center     Atomic      Atomic             Coordinates (Angstroms)
 Number     Number       Type             X           Y           Z
 ---------------------------------------------------------------------
      1         16           0        0.000000   -0.000000    0.098672
      2          1           0       -0.000000    1.002275   -0.789373
      3          1           0       -0.000000   -1.002275   -0.789373
 ---------------------------------------------------------------------
 Rotational constants (GHZ):         337.9746575         249.5908080         143.5676070
 Leave Link  202 at Wed Oct 21 14:37:08 2020, MaxMem=  2684354560 cpu:               2.2 elap:               0.7
 (Enter /udrive/faculty/rpeverati/g16/g16/l601.exe)
 Copying SCF densities to generalized density rwf, IOpCl= 0 IROHF=0.

 **********************************************************************

            Population analysis using the SCF density.

 **********************************************************************

 Orbital symmetries:
       Occupied  (A1) (B2) (A1) (B1)
       Virtual   (B2) (A1) (A1) (A2) (B1) (A1) (B2)
 The electronic state is 1-A1.
 Alpha  occ. eigenvalues --   -0.99330  -0.53068  -0.42693  -0.34424
 Alpha virt. eigenvalues --   -0.03070  -0.01281  -0.00558  -0.00111   0.00030
 Alpha virt. eigenvalues --    0.10068   0.12681
          Condensed to atoms (all electrons):
               1          2          3
     1  S    6.330968   0.000000   0.000000
     2  H    0.000000   0.834516   0.000000
     3  H    0.000000   0.000000   0.834516
 Mulliken charges:
               1
     1  S   -0.330968
     2  H    0.165484
     3  H    0.165484
 Sum of Mulliken charges =   0.00000
 Mulliken charges with hydrogens summed into heavy atoms:
               1
     1  S    0.000000
 Charge=              0.0000 electrons
 Dipole moment (field-independent basis, Debye):
    X=              0.0000    Y=             -0.0000    Z=             -1.7006  Tot=              1.7006
 N-N= 1.138714025298D+01 E-N=-6.635966013719D+00  KE=-1.155921159283D+01
 Leave Link  601 at Wed Oct 21 14:37:09 2020, MaxMem=  2684354560 cpu:               2.6 elap:               0.8
 (Enter /udrive/faculty/rpeverati/g16/g16/l9999.exe)

 Test job not archived.
 1\1\GINC-NODE39\FOpt\RPM7\ZDO\H2S1\RPEVERATI\21-Oct-2020\0\\#P Opt(Max
 Cyc=150) PM7 5D 7F Integral=UltraFineGrid SCF=(NoSymm,XQC,MaxCyc=120) 
 IOp(1/33=1)\\TS search on BH76.\\0,1\S,0.,0.,0.0794319316\H,0.,1.00227
 46288,-0.8086123052\H,0.,-1.0022746288,-0.8086123052\\Version=ES64L-G1
 6RevA.03\State=1-A1\HF=-0.0056\RMSD=6.961e-09\RMSF=3.774e-05\Dipole=0.
 ,0.,-0.6690849\PG=C02V [C2(S1),SGV(H2)]\\@


 LIVE PURE, SPEAK TRUE, RIGHT WRONG, FOLLOW THE KING...
 ELSE, WHEREFORE BORN......
           IDYLLS OF THE KING, TENNYSON
 Job cpu time:       0 days  0 hours  2 minutes 47.6 seconds.
 Elapsed time:       0 days  0 hours  0 minutes 40.8 seconds.
 File lengths (MBytes):  RWF=      5 Int=      0 D2E=      0 Chk=      2 Scr=      1
 Normal termination of Gaussian 16 at Wed Oct 21 14:37:11 2020.
