 Entering Gaussian System, Link 0=g16
 Input=MN_84_RKT08_BH76_PM7_SE.in
 Output=MN_84_RKT08_BH76_PM7_SE.log
 Initial command:
 /udrive/faculty/rpeverati/g16/g16/l1.exe "/udrive/scratch-directories/gaussian09/rpeverati/Gau-8443.inp" -scrdir="/udrive/scratch-directories/gaussian09/rpeverati/"
 Entering Link 1 = /udrive/faculty/rpeverati/g16/g16/l1.exe PID=      8444.
  
 Copyright (c) 1988,1990,1992,1993,1995,1998,2003,2009,2016,
            Gaussian, Inc.  All Rights Reserved.
  
 This is part of the Gaussian(R) 16 program.  It is based on
 the Gaussian(R) 09 system (copyright 2009, Gaussian, Inc.),
 the Gaussian(R) 03 system (copyright 2003, Gaussian, Inc.),
 the Gaussian(R) 98 system (copyright 1998, Gaussian, Inc.),
 the Gaussian(R) 94 system (copyright 1995, Gaussian, Inc.),
 the Gaussian 92(TM) system (copyright 1992, Gaussian, Inc.),
 the Gaussian 90(TM) system (copyright 1990, Gaussian, Inc.),
 the Gaussian 88(TM) system (copyright 1988, Gaussian, Inc.),
 the Gaussian 86(TM) system (copyright 1986, Carnegie Mellon
 University), and the Gaussian 82(TM) system (copyright 1983,
 Carnegie Mellon University). Gaussian is a federally registered
 trademark of Gaussian, Inc.
  
 This software contains proprietary and confidential information,
 including trade secrets, belonging to Gaussian, Inc.
  
 This software is provided under written license and may be
 used, copied, transmitted, or stored only in accord with that
 written license.
  
 The following legend is applicable only to US Government
 contracts under FAR:
  
                    RESTRICTED RIGHTS LEGEND
  
 Use, reproduction and disclosure by the US Government is
 subject to restrictions as set forth in subparagraphs (a)
 and (c) of the Commercial Computer Software - Restricted
 Rights clause in FAR 52.227-19.
  
 Gaussian, Inc.
 340 Quinnipiac St., Bldg. 40, Wallingford CT 06492
  
  
 ---------------------------------------------------------------
 Warning -- This program may not be used in any manner that
 competes with the business of Gaussian, Inc. or will provide
 assistance to any competitor of Gaussian, Inc.  The licensee
 of this program is prohibited from giving any competitor of
 Gaussian, Inc. access to this program.  By using this program,
 the user acknowledges that Gaussian, Inc. is engaged in the
 business of creating and licensing software in the field of
 computational chemistry and represents and warrants to the
 licensee that it is not a competitor of Gaussian, Inc. and that
 it will not use this program in any manner prohibited above.
 ---------------------------------------------------------------
  

 Cite this work as:
 Gaussian 16, Revision A.03,
 M. J. Frisch, G. W. Trucks, H. B. Schlegel, G. E. Scuseria, 
 M. A. Robb, J. R. Cheeseman, G. Scalmani, V. Barone, 
 G. A. Petersson, H. Nakatsuji, X. Li, M. Caricato, A. V. Marenich, 
 J. Bloino, B. G. Janesko, R. Gomperts, B. Mennucci, H. P. Hratchian, 
 J. V. Ortiz, A. F. Izmaylov, J. L. Sonnenberg, D. Williams-Young, 
 F. Ding, F. Lipparini, F. Egidi, J. Goings, B. Peng, A. Petrone, 
 T. Henderson, D. Ranasinghe, V. G. Zakrzewski, J. Gao, N. Rega, 
 G. Zheng, W. Liang, M. Hada, M. Ehara, K. Toyota, R. Fukuda, 
 J. Hasegawa, M. Ishida, T. Nakajima, Y. Honda, O. Kitao, H. Nakai, 
 T. Vreven, K. Throssell, J. A. Montgomery, Jr., J. E. Peralta, 
 F. Ogliaro, M. J. Bearpark, J. J. Heyd, E. N. Brothers, K. N. Kudin, 
 V. N. Staroverov, T. A. Keith, R. Kobayashi, J. Normand, 
 K. Raghavachari, A. P. Rendell, J. C. Burant, S. S. Iyengar, 
 J. Tomasi, M. Cossi, J. M. Millam, M. Klene, C. Adamo, R. Cammi, 
 J. W. Ochterski, R. L. Martin, K. Morokuma, O. Farkas, 
 J. B. Foresman, and D. J. Fox, Gaussian, Inc., Wallingford CT, 2016.
 
 ******************************************
 Gaussian 16:  ES64L-G16RevA.03 25-Dec-2016
                21-Oct-2020 
 ******************************************
 %NoSave
 %nproc=12
 Will use up to   12 processors via shared memory.
 %mem=20GB
 %chk=MN_84_RKT08_BH76_PM7_SE
 ----------------------------------------------------------------------
 #P Opt(TS,MaxCyc=50,NoEigenTest,MaxStep=10,AddRedundant) PM7 5D 7F Int
 egral=UltraFineGrid SCF=(NoSymm,XQC,MaxCyc=120) IOp(1/33=1)
 ----------------------------------------------------------------------
 1/5=1,6=50,8=10,11=1,18=120,26=1,33=1,38=1/1,3;
 2/9=110,12=2,17=6,18=5,40=1/2;
 3/5=2,8=11,25=1,41=4200000,71=1,75=-5/1,2,3;
 4/9=2,35=1/1;
 5/5=2,7=120,8=3,13=1,35=1,38=5/2,8;
 6/7=2,8=2,9=2,10=2,28=1/1;
 7//1,2,3,16;
 1/5=1,6=50,8=10,11=1,18=20,26=1,33=1/3(2);
 2/9=110/2;
 99//99;
 2/9=110/2;
 3/5=2,8=11,25=1,41=4200000,71=1,75=-5,135=20/1,2,3;
 4/5=5,9=2,16=3,35=1/1;
 5/5=2,7=120,8=3,13=1,35=1,38=5/2,8;
 7//1,2,3,16;
 1/5=1,6=50,8=10,11=1,18=20,26=1,33=1/3(-5);
 2/9=110/2;
 6/7=2,8=2,9=2,10=2,19=2,28=1/1;
 99/9=1/99;
 Leave Link    1 at Wed Oct 21 14:40:03 2020, MaxMem=  2684354560 cpu:               8.5 elap:               0.9
 (Enter /udrive/faculty/rpeverati/g16/g16/l101.exe)
 ONIOM data not found on unit 2.
 ------------------
 TS search on BH76.
 ------------------
 TstMul:  ICh=     0
 TstMul:  Mul=     2
 TstMul:  ICh=     0
 TstMul:  Mul=     2
 Symbolic Z-matrix:
 Charge =  0 Multiplicity = 2
 C                    -1.80062   0.16806   0.21737 
 H                    -2.15165  -0.76439  -0.20442 
 H                    -2.00034   1.06077  -0.36035 
 H                    -1.87514   0.26606   1.29228 
 H                    -0.42003   0.03937   0.05086 
 Cl                    1.01476  -0.09471  -0.12251 
 
 RdStrC is calling ZToCFu for IStruc=1 NZ=     6.
 PrtBox:  NBox=     1 Levels=  1 BoxLen=    8.00 SMaxX=        5.98
          Shift=            4.066020            1.444480            0.680954
 Box      1 Number                   0 centers from      1 to      6:
 After GenITR:
 ITRead=  0  0  0  0  0  0
 MicOpt= -1 -1 -1 -1 -1 -1
 Add virtual bond connecting atoms H5         and C1         Dist= 2.64D+00.
 The following ModRedundant input section has been read:
 
 ITRead=  0  0  0  0  0  0
 MicOpt= -1 -1 -1 -1 -1 -1
 NAtoms=      6 NQM=        6 NQMF=       0 NMMI=      0 NMMIF=      0
                NMic=       0 NMicF=      0.
                    Isotopes and Nuclear Properties:
 (Nuclear quadrupole moments (NQMom) in fm**2, nuclear magnetic moments (NMagM)
  in nuclear magnetons)

  Atom         1           2           3           4           5           6
 IAtWgt=          12           1           1           1           1          35
 AtmWgt=  12.0000000   1.0078250   1.0078250   1.0078250   1.0078250  34.9688527
 NucSpn=           0           1           1           1           1           3
 AtZEff=   0.0000000   0.0000000   0.0000000   0.0000000   0.0000000   0.0000000
 NQMom=    0.0000000   0.0000000   0.0000000   0.0000000   0.0000000  -8.1650000
 NMagM=    0.0000000   2.7928460   2.7928460   2.7928460   2.7928460   0.8218740
 AtZNuc=   6.0000000   1.0000000   1.0000000   1.0000000   1.0000000  17.0000000
 No MM parameters found.
 Leave Link  101 at Wed Oct 21 14:40:05 2020, MaxMem=  2684354560 cpu:              14.1 elap:               1.4
 (Enter /udrive/faculty/rpeverati/g16/g16/l103.exe)

 GradGradGradGradGradGradGradGradGradGradGradGradGradGradGradGradGradGrad
 Berny optimization.
 Optmz: redundant internal coordinate code flag= 1
 Initialization pass.
                           ----------------------------
                           !    Initial Parameters    !
                           ! (Angstroms and Degrees)  !
 --------------------------                            --------------------------
 ! Name  Definition              Value          Derivative Info.                !
 --------------------------------------------------------------------------------
 ! R1    R(1,2)                  1.0819         estimate D2E/DX2                !
 ! R2    R(1,3)                  1.0819         estimate D2E/DX2                !
 ! R3    R(1,4)                  1.0819         estimate D2E/DX2                !
 ! R4    R(1,5)                  1.3965         estimate D2E/DX2                !
 ! R5    R(5,6)                  1.4514         estimate D2E/DX2                !
 ! A1    A(2,1,3)              116.2983         estimate D2E/DX2                !
 ! A2    A(2,1,4)              116.298          estimate D2E/DX2                !
 ! A3    A(2,1,5)              101.235          estimate D2E/DX2                !
 ! A4    A(3,1,4)              116.2983         estimate D2E/DX2                !
 ! A5    A(3,1,5)              101.2363         estimate D2E/DX2                !
 ! A6    A(4,1,5)              101.2387         estimate D2E/DX2                !
 ! A7    L(1,5,6,2,-1)         179.983          estimate D2E/DX2                !
 ! A8    L(1,5,6,2,-2)         179.9906         estimate D2E/DX2                !
 ! D1    D(2,1,4,3)           -142.6998         estimate D2E/DX2                !
 ! D2    D(2,1,5,3)            119.9994         estimate D2E/DX2                !
 ! D3    D(2,1,5,4)           -119.9999         estimate D2E/DX2                !
 ! D4    D(3,1,5,4)            120.0007         estimate D2E/DX2                !
 --------------------------------------------------------------------------------
 Maximum allowed force set to 1.00D+20.
 Trust Radius=1.00D-01 FncErr=1.00D-07 GrdErr=1.00D-07 EigMax=2.50D+02 EigMin=1.00D-04
 Number of steps in this run=     50 maximum allowed number of steps=    100.
 Search for a saddle point of order  1.
 GradGradGradGradGradGradGradGradGradGradGradGradGradGradGradGradGradGrad

 Leave Link  103 at Wed Oct 21 14:40:06 2020, MaxMem=  2684354560 cpu:               2.0 elap:               1.0
 (Enter /udrive/faculty/rpeverati/g16/g16/l202.exe)
                          Input orientation:                          
 ---------------------------------------------------------------------
 Center     Atomic      Atomic             Coordinates (Angstroms)
 Number     Number       Type             X           Y           Z
 ---------------------------------------------------------------------
      1          6           0       -1.800621    0.168058    0.217373
      2          1           0       -2.151645   -0.764386   -0.204420
      3          1           0       -2.000343    1.060773   -0.360345
      4          1           0       -1.875139    0.266062    1.292282
      5          1           0       -0.420026    0.039365    0.050855
      6         17           0        1.014761   -0.094715   -0.122506
 ---------------------------------------------------------------------
                    Distance matrix (angstroms):
                    1          2          3          4          5
     1  C    0.000000
     2  H    1.081933   0.000000
     3  H    1.081937   1.838045   0.000000
     4  H    1.081937   1.838042   1.838048   0.000000
     5  H    1.396543   1.926054   1.926074   1.926107   0.000000
     6  Cl   2.847971   3.237483   3.237680   3.237794   1.451428
                    6
     6  Cl   0.000000
 This structure is nearly, but not quite of a higher symmetry.
 Consider Symm=Loose if the higher symmetry is desired.
 Stoichiometry    CH4Cl(2)
 Framework group  C1[X(CH4Cl)]
 Deg. of freedom    12
 Full point group                 C1      NOp   1
 Largest Abelian subgroup         C1      NOp   1
 Largest concise Abelian subgroup C1      NOp   1
                         Standard orientation:                         
 ---------------------------------------------------------------------
 Center     Atomic      Atomic             Coordinates (Angstroms)
 Number     Number       Type             X           Y           Z
 ---------------------------------------------------------------------
      1          6           0        1.123581    0.795539    1.192653
      2          1           0        0.451257    0.990690    2.017563
      3          1           0        1.453376    1.657976    0.628715
      4          1           0        1.856169    0.014241    1.345872
      5          1           0        0.262287    0.185511    0.278120
      6         17           0       -0.633210   -0.448332   -0.672129
 ---------------------------------------------------------------------
 Rotational constants (GHZ):         148.4293786           5.6191147           5.6191139
 Leave Link  202 at Wed Oct 21 14:40:08 2020, MaxMem=  2684354560 cpu:               2.4 elap:               1.0
 (Enter /udrive/faculty/rpeverati/g16/g16/l301.exe)
 Standard basis: VSTO-6G (5D, 7F)
 Ernie: Thresh=  0.10000D-02 Tol=  0.10000D-05 Strict=F.
 EHB=         0.000000000 Number of Hydrogen Bonds=     0
  NNHCO=     0 NNPyr=     0 NCTC=     0               EPep=         0.000000000
    EC=        16.871627595  ECS=         0.645595871   EG=         0.132428563
   EHC=         0.000126832  EAt=       -15.626271301  AtH=         0.650648344
 EPDDG=         0.000000000  ECC=        17.649778860 EAtT=        16.276919645
  EHyb=         0.000000000
 There are    18 symmetry adapted cartesian basis functions of A   symmetry.
 There are    17 symmetry adapted basis functions of A   symmetry.
    17 basis functions,   108 primitive gaussians,    18 cartesian basis functions
     8 alpha electrons        7 beta electrons
       nuclear repulsion energy        33.9266985053 Hartrees.
 IExCor=    0 DFT=F Ex=HF Corr=None ExCW=0 ScaHFX=  1.000000
 ScaDFX=  1.000000  1.000000  1.000000  1.000000 ScalE2=  1.000000  1.000000
 IRadAn=      5 IRanWt=     -1 IRanGd=            0 ICorTp=0 IEmpDi=251
 Integral buffers will be    131072 words long.
 Regular integral format.
 Two-electron integral symmetry is turned off.
 R6Disp:  PM7 Dispersion energy=       -0.0001320208 Hartrees.
 Nuclear repulsion after empirical dispersion term =       33.9265664845 Hartrees.
 Leave Link  301 at Wed Oct 21 14:40:09 2020, MaxMem=  2684354560 cpu:               3.8 elap:               1.1
 (Enter /udrive/faculty/rpeverati/g16/g16/l302.exe)
 Do NDO integrals.
 NPDir=0 NMtPBC=     1 NCelOv=     1 NCel=       1 NClECP=     1 NCelD=      1
         NCelK=      1 NCelE2=     1 NClLst=     1 CellRange=     0.0.
 One-electron integrals computed using PRISM.
 NBasis=    17 RedAO= F EigKep=  0.00D+00  NBF=    17
 NBsUse=    17 1.00D-04 EigRej=  0.00D+00 NBFU=    17
 Leave Link  302 at Wed Oct 21 14:40:10 2020, MaxMem=  2684354560 cpu:               3.3 elap:               0.8
 (Enter /udrive/faculty/rpeverati/g16/g16/l303.exe)
 DipDrv:  MaxL=1.
 Leave Link  303 at Wed Oct 21 14:40:12 2020, MaxMem=  2684354560 cpu:               3.6 elap:               1.0
 (Enter /udrive/faculty/rpeverati/g16/g16/l401.exe)
 SCF N**3 symmetry information disabled.
 Nonelectrostatic core Hamiltonian diagonalized for initial guess.
 JPrj=0 DoOrth=F DoCkMO=F.
 Initial guess <Sx>= 0.0000 <Sy>= 0.0000 <Sz>= 0.5000 <S**2>= 0.7500 S= 0.5000
 Leave Link  401 at Wed Oct 21 14:40:14 2020, MaxMem=  2684354560 cpu:               2.0 elap:               1.0
 (Enter /udrive/faculty/rpeverati/g16/g16/l502.exe)
 Keep J ints in memory in canonical form, NReq=1848537.
 FoFCou: FMM=F IPFlag=           0 FMFlag=           0 FMFlg1=           0
         NFxFlg=           0 DoJE=F BraDBF=F KetDBF=F FulRan=T
         wScrn=  0.000000 ICntrl=       600 IOpCl=  2 I1Cent=           0 NGrid=           0
         NMat0=    1 NMatS0=     59 NMatT0=    0 NMatD0=    1 NMtDS0=    0 NMtDT0=    0
 Symmetry not used in FoFCou.
 Two-electron integral symmetry not used.
 UHF open shell SCF:
 Using DIIS extrapolation, IDIIS=  1040.
 Overlap will be assumed to be unity.
 NGot=  2684354560 LenX=  2684292320 LenY=  2684291438
 Requested convergence on RMS density matrix=1.00D-08 within 120 cycles.
 Requested convergence on MAX density matrix=1.00D-06.
 Requested convergence on             energy=1.00D-06.
 No special actions if energy rises.

 Cycle   1  Pass 1  IDiag  1:
 E= 0.551554522270060    
 DIIS: error= 6.02D-02 at cycle   1 NSaved=   1.
 NSaved= 1 IEnMin= 1 EnMin= 0.551554522270060     IErMin= 1 ErrMin= 6.02D-02
 ErrMax= 6.02D-02  0.00D+00 EMaxC= 1.00D-01 BMatC= 2.63D-01 BMatP= 2.63D-01
 IDIUse=3 WtCom= 3.98D-01 WtEn= 6.02D-01
 Coeff-Com:  0.100D+01
 Coeff-En:   0.100D+01
 Coeff:      0.100D+01
 GapD=    2.000 DampG=2.000 DampE=0.500 DampFc=1.0000 IDamp=-1.
 RMSDP=6.88D-02 MaxDP=5.88D-01              OVMax= 0.00D+00

 Cycle   2  Pass 1  IDiag  1:
 E= 0.115411595907325     Delta-E=       -0.436142926363 Rises=F Damp=F
 DIIS: error= 2.48D-02 at cycle   2 NSaved=   2.
 NSaved= 2 IEnMin= 2 EnMin= 0.115411595907325     IErMin= 2 ErrMin= 2.48D-02
 ErrMax= 2.48D-02  0.00D+00 EMaxC= 1.00D-01 BMatC= 7.60D-02 BMatP= 2.63D-01
 IDIUse=3 WtCom= 7.52D-01 WtEn= 2.48D-01
 Coeff-Com:  0.139D+00 0.861D+00
 Coeff-En:   0.000D+00 0.100D+01
 Coeff:      0.104D+00 0.896D+00
 RMSDP=1.40D-02 MaxDP=9.65D-02 DE=-4.36D-01 OVMax= 0.00D+00

 Cycle   3  Pass 1  IDiag  1:
 E= 0.542018216172337E-01 Delta-E=       -0.061209774290 Rises=F Damp=F
 DIIS: error= 1.51D-02 at cycle   3 NSaved=   3.
 NSaved= 3 IEnMin= 3 EnMin= 0.542018216172337E-01 IErMin= 3 ErrMin= 1.51D-02
 ErrMax= 1.51D-02  0.00D+00 EMaxC= 1.00D-01 BMatC= 1.68D-02 BMatP= 7.60D-02
 IDIUse=3 WtCom= 8.49D-01 WtEn= 1.51D-01
 Coeff-Com: -0.681D-01-0.478D+00 0.155D+01
 Coeff-En:   0.000D+00 0.000D+00 0.100D+01
 Coeff:     -0.578D-01-0.406D+00 0.146D+01
 RMSDP=1.20D-02 MaxDP=8.51D-02 DE=-6.12D-02 OVMax= 0.00D+00

 Cycle   4  Pass 1  IDiag  3:
 E= 0.300700160788594E-01 Delta-E=       -0.024131805538 Rises=F Damp=F
 DIIS: error= 5.76D-03 at cycle   4 NSaved=   4.
 NSaved= 4 IEnMin= 4 EnMin= 0.300700160788594E-01 IErMin= 4 ErrMin= 5.76D-03
 ErrMax= 5.76D-03  0.00D+00 EMaxC= 1.00D-01 BMatC= 2.41D-03 BMatP= 1.68D-02
 IDIUse=3 WtCom= 9.42D-01 WtEn= 5.76D-02
 Coeff-Com:  0.893D-02 0.336D+00-0.118D+01 0.184D+01
 Coeff-En:   0.000D+00 0.000D+00 0.000D+00 0.100D+01
 Coeff:      0.842D-02 0.316D+00-0.111D+01 0.179D+01
 Gap=     0.491 Goal=   None    Shift=    0.000
 Gap=     0.318 Goal=   None    Shift=    0.000
 RMSDP=5.70D-03 MaxDP=3.76D-02 DE=-2.41D-02 OVMax= 4.78D-02

 Cycle   5  Pass 1  IDiag  3:
 E= 0.264434262580480E-01 Delta-E=       -0.003626589821 Rises=F Damp=F
 DIIS: error= 9.91D-04 at cycle   5 NSaved=   5.
 NSaved= 5 IEnMin= 5 EnMin= 0.264434262580480E-01 IErMin= 5 ErrMin= 9.91D-04
 ErrMax= 9.91D-04  0.00D+00 EMaxC= 1.00D-01 BMatC= 6.50D-05 BMatP= 2.41D-03
 IDIUse=3 WtCom= 9.90D-01 WtEn= 9.91D-03
 Coeff-Com:  0.156D-02-0.827D-01 0.279D+00-0.562D+00 0.136D+01
 Coeff-En:   0.000D+00 0.000D+00 0.000D+00 0.000D+00 0.100D+01
 Coeff:      0.155D-02-0.819D-01 0.277D+00-0.557D+00 0.136D+01
 Gap=     0.496 Goal=   None    Shift=    0.000
 Gap=     0.319 Goal=   None    Shift=    0.000
 RMSDP=8.29D-04 MaxDP=5.04D-03 DE=-3.63D-03 OVMax= 7.02D-03

 Cycle   6  Pass 1  IDiag  3:
 E= 0.263544240837987E-01 Delta-E=       -0.000089002174 Rises=F Damp=F
 DIIS: error= 2.25D-04 at cycle   6 NSaved=   6.
 NSaved= 6 IEnMin= 6 EnMin= 0.263544240837987E-01 IErMin= 6 ErrMin= 2.25D-04
 ErrMax= 2.25D-04  0.00D+00 EMaxC= 1.00D-01 BMatC= 4.94D-06 BMatP= 6.50D-05
 IDIUse=3 WtCom= 9.98D-01 WtEn= 2.25D-03
 Coeff-Com: -0.943D-04 0.493D-01-0.169D+00 0.338D+00-0.925D+00 0.171D+01
 Coeff-En:   0.000D+00 0.000D+00 0.000D+00 0.000D+00 0.000D+00 0.100D+01
 Coeff:     -0.941D-04 0.491D-01-0.168D+00 0.337D+00-0.923D+00 0.171D+01
 Gap=     0.496 Goal=   None    Shift=    0.000
 Gap=     0.319 Goal=   None    Shift=    0.000
 RMSDP=2.39D-04 MaxDP=1.60D-03 DE=-8.90D-05 OVMax= 1.88D-03

 Cycle   7  Pass 1  IDiag  3:
 E= 0.263468614562328E-01 Delta-E=       -0.000007562628 Rises=F Damp=F
 DIIS: error= 6.79D-05 at cycle   7 NSaved=   7.
 NSaved= 7 IEnMin= 7 EnMin= 0.263468614562328E-01 IErMin= 7 ErrMin= 6.79D-05
 ErrMax= 6.79D-05  0.00D+00 EMaxC= 1.00D-01 BMatC= 3.44D-07 BMatP= 4.94D-06
 IDIUse=1 WtCom= 1.00D+00 WtEn= 0.00D+00
 Coeff-Com: -0.218D-03-0.618D-02 0.224D-01-0.424D-01 0.119D+00-0.495D+00
 Coeff-Com:  0.140D+01
 Coeff:     -0.218D-03-0.618D-02 0.224D-01-0.424D-01 0.119D+00-0.495D+00
 Coeff:      0.140D+01
 Gap=     0.496 Goal=   None    Shift=    0.000
 Gap=     0.319 Goal=   None    Shift=    0.000
 RMSDP=7.41D-05 MaxDP=3.90D-04 DE=-7.56D-06 OVMax= 5.30D-04

 Cycle   8  Pass 1  IDiag  3:
 E= 0.263462809587978E-01 Delta-E=       -0.000000580497 Rises=F Damp=F
 DIIS: error= 1.57D-05 at cycle   8 NSaved=   8.
 NSaved= 8 IEnMin= 8 EnMin= 0.263462809587978E-01 IErMin= 8 ErrMin= 1.57D-05
 ErrMax= 1.57D-05  0.00D+00 EMaxC= 1.00D-01 BMatC= 1.89D-08 BMatP= 3.44D-07
 IDIUse=1 WtCom= 1.00D+00 WtEn= 0.00D+00
 Coeff-Com: -0.224D-04 0.452D-03-0.131D-02 0.226D-02-0.120D-01 0.125D+00
 Coeff-Com: -0.567D+00 0.145D+01
 Coeff:     -0.224D-04 0.452D-03-0.131D-02 0.226D-02-0.120D-01 0.125D+00
 Coeff:     -0.567D+00 0.145D+01
 Gap=     0.496 Goal=   None    Shift=    0.000
 Gap=     0.319 Goal=   None    Shift=    0.000
 RMSDP=1.73D-05 MaxDP=8.50D-05 DE=-5.80D-07 OVMax= 1.78D-04

 Cycle   9  Pass 1  IDiag  3:
 E= 0.263462474011789E-01 Delta-E=       -0.000000033558 Rises=F Damp=F
 DIIS: error= 4.03D-06 at cycle   9 NSaved=   9.
 NSaved= 9 IEnMin= 9 EnMin= 0.263462474011789E-01 IErMin= 9 ErrMin= 4.03D-06
 ErrMax= 4.03D-06  0.00D+00 EMaxC= 1.00D-01 BMatC= 2.12D-09 BMatP= 1.89D-08
 IDIUse=1 WtCom= 1.00D+00 WtEn= 0.00D+00
 Coeff-Com: -0.502D-05 0.115D-03-0.464D-03 0.133D-02-0.739D-03-0.615D-01
 Coeff-Com:  0.336D+00-0.102D+01 0.175D+01
 Coeff:     -0.502D-05 0.115D-03-0.464D-03 0.133D-02-0.739D-03-0.615D-01
 Coeff:      0.336D+00-0.102D+01 0.175D+01
 Gap=     0.496 Goal=   None    Shift=    0.000
 Gap=     0.319 Goal=   None    Shift=    0.000
 RMSDP=7.16D-06 MaxDP=4.06D-05 DE=-3.36D-08 OVMax= 7.88D-05

 Cycle  10  Pass 1  IDiag  3:
 E= 0.263462424080672E-01 Delta-E=       -0.000000004993 Rises=F Damp=F
 DIIS: error= 1.90D-06 at cycle  10 NSaved=  10.
 NSaved=10 IEnMin=10 EnMin= 0.263462424080672E-01 IErMin=10 ErrMin= 1.90D-06
 ErrMax= 1.90D-06  0.00D+00 EMaxC= 1.00D-01 BMatC= 3.06D-10 BMatP= 2.12D-09
 IDIUse=1 WtCom= 1.00D+00 WtEn= 0.00D+00
 Coeff-Com: -0.409D-06-0.414D-05 0.791D-04-0.351D-03-0.132D-03 0.237D-01
 Coeff-Com: -0.130D+00 0.429D+00-0.107D+01 0.175D+01
 Coeff:     -0.409D-06-0.414D-05 0.791D-04-0.351D-03-0.132D-03 0.237D-01
 Coeff:     -0.130D+00 0.429D+00-0.107D+01 0.175D+01
 Gap=     0.496 Goal=   None    Shift=    0.000
 Gap=     0.319 Goal=   None    Shift=    0.000
 RMSDP=3.34D-06 MaxDP=2.44D-05 DE=-4.99D-09 OVMax= 3.70D-05

 Cycle  11  Pass 1  IDiag  3:
 E= 0.263462415922362E-01 Delta-E=       -0.000000000816 Rises=F Damp=F
 DIIS: error= 7.90D-07 at cycle  11 NSaved=  11.
 NSaved=11 IEnMin=11 EnMin= 0.263462415922362E-01 IErMin=11 ErrMin= 7.90D-07
 ErrMax= 7.90D-07  0.00D+00 EMaxC= 1.00D-01 BMatC= 3.30D-11 BMatP= 3.06D-10
 IDIUse=1 WtCom= 1.00D+00 WtEn= 0.00D+00
 Coeff-Com: -0.275D-06 0.318D-05-0.218D-04 0.963D-04-0.838D-04-0.520D-02
 Coeff-Com:  0.292D-01-0.966D-01 0.314D+00-0.848D+00 0.161D+01
 Coeff:     -0.275D-06 0.318D-05-0.218D-04 0.963D-04-0.838D-04-0.520D-02
 Coeff:      0.292D-01-0.966D-01 0.314D+00-0.848D+00 0.161D+01
 Gap=     0.496 Goal=   None    Shift=    0.000
 Gap=     0.319 Goal=   None    Shift=    0.000
 RMSDP=1.07D-06 MaxDP=9.55D-06 DE=-8.16D-10 OVMax= 9.88D-06

 Cycle  12  Pass 1  IDiag  3:
 E= 0.263462415101117E-01 Delta-E=       -0.000000000082 Rises=F Damp=F
 DIIS: error= 2.39D-07 at cycle  12 NSaved=  12.
 NSaved=12 IEnMin=12 EnMin= 0.263462415101117E-01 IErMin=12 ErrMin= 2.39D-07
 ErrMax= 2.39D-07  0.00D+00 EMaxC= 1.00D-01 BMatC= 3.38D-12 BMatP= 3.30D-11
 IDIUse=1 WtCom= 1.00D+00 WtEn= 0.00D+00
 Coeff-Com: -0.213D-06-0.886D-05 0.325D-04-0.689D-04 0.180D-03 0.117D-03
 Coeff-Com: -0.259D-02 0.139D-01-0.820D-01 0.314D+00-0.921D+00 0.168D+01
 Coeff:     -0.213D-06-0.886D-05 0.325D-04-0.689D-04 0.180D-03 0.117D-03
 Coeff:     -0.259D-02 0.139D-01-0.820D-01 0.314D+00-0.921D+00 0.168D+01
 Gap=     0.496 Goal=   None    Shift=    0.000
 Gap=     0.319 Goal=   None    Shift=    0.000
 RMSDP=3.55D-07 MaxDP=3.59D-06 DE=-8.21D-11 OVMax= 4.08D-06

 Cycle  13  Pass 1  IDiag  3:
 E= 0.263462415016633E-01 Delta-E=       -0.000000000008 Rises=F Damp=F
 DIIS: error= 1.07D-07 at cycle  13 NSaved=  13.
 NSaved=13 IEnMin=13 EnMin= 0.263462415016633E-01 IErMin=13 ErrMin= 1.07D-07
 ErrMax= 1.07D-07  0.00D+00 EMaxC= 1.00D-01 BMatC= 2.70D-13 BMatP= 3.38D-12
 IDIUse=1 WtCom= 1.00D+00 WtEn= 0.00D+00
 Coeff-Com:  0.960D-08 0.255D-05-0.907D-05 0.204D-04-0.614D-04-0.535D-05
 Coeff-Com:  0.661D-03-0.369D-02 0.234D-01-0.961D-01 0.313D+00-0.759D+00
 Coeff-Com:  0.152D+01
 Coeff:      0.960D-08 0.255D-05-0.907D-05 0.204D-04-0.614D-04-0.535D-05
 Coeff:      0.661D-03-0.369D-02 0.234D-01-0.961D-01 0.313D+00-0.759D+00
 Coeff:      0.152D+01
 Gap=     0.496 Goal=   None    Shift=    0.000
 Gap=     0.319 Goal=   None    Shift=    0.000
 RMSDP=1.03D-07 MaxDP=1.13D-06 DE=-8.45D-12 OVMax= 1.56D-06

 Cycle  14  Pass 1  IDiag  3:
 E= 0.263462415007751E-01 Delta-E=       -0.000000000001 Rises=F Damp=F
 DIIS: error= 5.61D-08 at cycle  14 NSaved=  14.
 NSaved=14 IEnMin=14 EnMin= 0.263462415007751E-01 IErMin=14 ErrMin= 5.61D-08
 ErrMax= 5.61D-08  0.00D+00 EMaxC= 1.00D-01 BMatC= 6.83D-14 BMatP= 2.70D-13
 IDIUse=1 WtCom= 1.00D+00 WtEn= 0.00D+00
 Coeff-Com:  0.632D-07-0.945D-06 0.318D-05-0.860D-05 0.291D-04 0.540D-04
 Coeff-Com: -0.591D-03 0.267D-02-0.160D-01 0.652D-01-0.218D+00 0.590D+00
 Coeff-Com: -0.168D+01 0.225D+01
 Coeff:      0.632D-07-0.945D-06 0.318D-05-0.860D-05 0.291D-04 0.540D-04
 Coeff:     -0.591D-03 0.267D-02-0.160D-01 0.652D-01-0.218D+00 0.590D+00
 Coeff:     -0.168D+01 0.225D+01
 Gap=     0.496 Goal=   None    Shift=    0.000
 Gap=     0.319 Goal=   None    Shift=    0.000
 RMSDP=7.80D-08 MaxDP=8.67D-07 DE=-8.88D-13 OVMax= 1.23D-06

 Cycle  15  Pass 1  IDiag  3:
 E= 0.263462415004696E-01 Delta-E=       -0.000000000000 Rises=F Damp=F
 DIIS: error= 1.72D-08 at cycle  15 NSaved=  15.
 NSaved=15 IEnMin=15 EnMin= 0.263462415004696E-01 IErMin=15 ErrMin= 1.72D-08
 ErrMax= 1.72D-08  0.00D+00 EMaxC= 1.00D-01 BMatC= 8.34D-15 BMatP= 6.83D-14
 IDIUse=1 WtCom= 1.00D+00 WtEn= 0.00D+00
 Coeff-Com:  0.250D-07 0.357D-06-0.145D-05 0.315D-05-0.783D-05-0.154D-04
 Coeff-Com:  0.175D-03-0.813D-03 0.365D-02-0.123D-01 0.397D-01-0.118D+00
 Coeff-Com:  0.433D+00-0.101D+01 0.166D+01
 Coeff:      0.250D-07 0.357D-06-0.145D-05 0.315D-05-0.783D-05-0.154D-04
 Coeff:      0.175D-03-0.813D-03 0.365D-02-0.123D-01 0.397D-01-0.118D+00
 Coeff:      0.433D+00-0.101D+01 0.166D+01
 Gap=     0.496 Goal=   None    Shift=    0.000
 Gap=     0.319 Goal=   None    Shift=    0.000
 RMSDP=3.12D-08 MaxDP=3.50D-07 DE=-3.06D-13 OVMax= 4.85D-07

 Cycle  16  Pass 1  IDiag  3:
 E= 0.263462415004483E-01 Delta-E=       -0.000000000000 Rises=F Damp=F
 DIIS: error= 2.18D-09 at cycle  16 NSaved=  16.
 NSaved=16 IEnMin=16 EnMin= 0.263462415004483E-01 IErMin=16 ErrMin= 2.18D-09
 ErrMax= 2.18D-09  0.00D+00 EMaxC= 1.00D-01 BMatC= 5.18D-16 BMatP= 8.34D-15
 IDIUse=1 WtCom= 1.00D+00 WtEn= 0.00D+00
 Large coefficients: NSaved= 16 BigCof=    0.00 CofMax=   10.00 Det=-2.84D-16
 Inversion failed.  Reducing to 15 matrices.
 Coeff-Com: -0.769D-07 0.273D-06-0.687D-06 0.195D-05 0.121D-04-0.901D-04
 Coeff-Com:  0.348D-03-0.139D-02 0.469D-02-0.151D-01 0.430D-01-0.153D+00
 Coeff-Com:  0.393D+00-0.834D+00 0.156D+01
 Coeff:     -0.769D-07 0.273D-06-0.687D-06 0.195D-05 0.121D-04-0.901D-04
 Coeff:      0.348D-03-0.139D-02 0.469D-02-0.151D-01 0.430D-01-0.153D+00
 Coeff:      0.393D+00-0.834D+00 0.156D+01
 Gap=     0.496 Goal=   None    Shift=    0.000
 Gap=     0.319 Goal=   None    Shift=    0.000
 RMSDP=4.34D-09 MaxDP=4.40D-08 DE=-2.13D-14 OVMax= 5.66D-08

 Cycle  17  Pass 2  IDiag  1:
 SCF Done:  E(UPM7) =  0.263462415004E-01 A.U. after   17 cycles
            NFock= 16  Conv=0.43D-08     -V/T= 1.0010
 <Sx>= 0.0000 <Sy>= 0.0000 <Sz>= 0.5000 <S**2>= 0.7629 S= 0.5064
 <L.S>= 0.000000000000E+00
 KE=-2.616875928318D+01 PE=-3.254585783918D+01 EE= 2.481439687933D+01
 Annihilation of the first spin contaminant:
 S**2 before annihilation     0.7629,   after     0.7500
 Leave Link  502 at Wed Oct 21 14:40:16 2020, MaxMem=  2684354560 cpu:              13.7 elap:               2.0
 (Enter /udrive/faculty/rpeverati/g16/g16/l508.exe)
 QCSCF skips out because SCF is already converged.
 Leave Link  508 at Wed Oct 21 14:40:17 2020, MaxMem=  2684354560 cpu:               0.4 elap:               0.8
 (Enter /udrive/faculty/rpeverati/g16/g16/l601.exe)
 Copying SCF densities to generalized density rwf, IOpCl= 1 IROHF=0.

 **********************************************************************

            Population analysis using the SCF density.

 **********************************************************************

 Orbital symmetries:
 Alpha Orbitals:
       Occupied  (A) (A) (A) (A) (A) (A) (A) (A)
       Virtual   (A) (A) (A) (A) (A) (A) (A) (A) (A)
 Beta  Orbitals:
       Occupied  (A) (A) (A) (A) (A) (A) (A)
       Virtual   (A) (A) (A) (A) (A) (A) (A) (A) (A) (A)
 The electronic state is 2-A.
 Alpha  occ. eigenvalues --   -0.98791  -0.91787  -0.56619  -0.56069  -0.56069
 Alpha  occ. eigenvalues --   -0.41496  -0.41496  -0.38387
 Alpha virt. eigenvalues --    0.11076   0.18004   0.18004   0.20132   2.59540
 Alpha virt. eigenvalues --    2.60471   2.60471   2.63914   2.63914
  Beta  occ. eigenvalues --   -0.95575  -0.87151  -0.55343  -0.55343  -0.52116
  Beta  occ. eigenvalues --   -0.41171  -0.41171
  Beta virt. eigenvalues --   -0.09305   0.13009   0.18515   0.18515   0.20662
  Beta virt. eigenvalues --    2.60907   2.61499   2.61499   2.64022   2.64022
          Condensed to atoms (all electrons):
               1          2          3          4          5          6
     1  C    4.413173   0.000000   0.000000   0.000000   0.000000   0.000000
     2  H    0.000000   0.841320   0.000000   0.000000   0.000000   0.000000
     3  H    0.000000   0.000000   0.841321   0.000000   0.000000   0.000000
     4  H    0.000000   0.000000   0.000000   0.841322   0.000000   0.000000
     5  H    0.000000   0.000000   0.000000   0.000000   0.761353   0.000000
     6  Cl   0.000000   0.000000   0.000000   0.000000   0.000000   7.301512
          Atomic-Atomic Spin Densities.
               1          2          3          4          5          6
     1  C    0.730658   0.000000   0.000000   0.000000   0.000000   0.000000
     2  H    0.000000  -0.017721   0.000000   0.000000   0.000000   0.000000
     3  H    0.000000   0.000000  -0.017720   0.000000   0.000000   0.000000
     4  H    0.000000   0.000000   0.000000  -0.017719   0.000000   0.000000
     5  H    0.000000   0.000000   0.000000   0.000000  -0.078215   0.000000
     6  Cl   0.000000   0.000000   0.000000   0.000000   0.000000   0.400718
 Mulliken charges and spin densities:
               1          2
     1  C   -0.413173   0.730658
     2  H    0.158680  -0.017721
     3  H    0.158679  -0.017720
     4  H    0.158678  -0.017719
     5  H    0.238647  -0.078215
     6  Cl  -0.301512   0.400718
 Sum of Mulliken charges =   0.00000   1.00000
 Mulliken charges and spin densities with hydrogens summed into heavy atoms:
               1          2
     1  C    0.301512   0.599282
     6  Cl  -0.301512   0.400718
 Charge=              0.0000 electrons
 Dipole moment (field-independent basis, Debye):
    X=              1.9491    Y=              1.3961    Z=              2.0629  Tot=              3.1629
 N-N= 3.392656648453D+01 E-N=-3.254585784045D+01  KE=-2.616875928318D+01
 Leave Link  601 at Wed Oct 21 14:40:19 2020, MaxMem=  2684354560 cpu:               2.8 elap:               1.1
 (Enter /udrive/faculty/rpeverati/g16/g16/l701.exe)
 ... and contract with generalized density number  0.
 Compute integral first derivatives.
 R6Disp: Adding PM7 dispersion energy 1st derivatives to the gradient.
 Leave Link  701 at Wed Oct 21 14:40:21 2020, MaxMem=  2684354560 cpu:               5.4 elap:               1.4
 (Enter /udrive/faculty/rpeverati/g16/g16/l702.exe)
 L702 exits ... SP integral derivatives will be done elsewhere.
 Leave Link  702 at Wed Oct 21 14:40:23 2020, MaxMem=  2684354560 cpu:               2.5 elap:               1.1
 (Enter /udrive/faculty/rpeverati/g16/g16/l703.exe)
 Integral derivatives from FoFJK, PRISM(SPDF).
 Compute integral first derivatives, UseDBF=F ICtDFT=           0.
 Calling FoFJK, ICntrl=      2127 FMM=F ISym2X=0 I1Cent= 0 IOpClX= 1 NMat=1 NMatS=1 NMatT=0.
 FoFJK:  IHMeth=43 ICntrl=    2127 DoSepK=F KAlg= 0 I1Cent=           0 FoldK=F
 IRaf=         0 NMat=       1 IRICut=       1 DoRegI=T DoRafI=F ISym2E= 0 IDoP0=3 IntGTp=3.
 FoFCou: FMM=F IPFlag=           0 FMFlag=      100000 FMFlg1=         800
         NFxFlg=           0 DoJE=F BraDBF=F KetDBF=F FulRan=T
         wScrn=  0.000000 ICntrl=      2127 IOpCl=  1 I1Cent=           0 NGrid=           0
         NMat0=    1 NMatS0=      1 NMatT0=    0 NMatD0=    1 NMtDS0=    0 NMtDT0=    0
 Symmetry not used in FoFCou.
 Leave Link  703 at Wed Oct 21 14:40:24 2020, MaxMem=  2684354560 cpu:               2.9 elap:               0.9
 (Enter /udrive/faculty/rpeverati/g16/g16/l716.exe)
 Dipole        = 7.66836759D-01 5.49263074D-01 8.11611638D-01
 ***** Axes restored to original set *****
 -------------------------------------------------------------------
 Center     Atomic                   Forces (Hartrees/Bohr)
 Number     Number              X              Y              Z
 -------------------------------------------------------------------
      1        6          -0.005240665    0.000488928    0.000631791
      2        1           0.002067826    0.003333029    0.001445962
      3        1           0.001517063   -0.003335929    0.002016578
      4        1           0.001061082   -0.000431486   -0.004023947
      5        1           0.018074999   -0.001688405   -0.002182855
      6       17          -0.017480305    0.001633864    0.002112472
 -------------------------------------------------------------------
 Cartesian Forces:  Max     0.018074999 RMS     0.006357819
 Leave Link  716 at Wed Oct 21 14:40:25 2020, MaxMem=  2684354560 cpu:               2.5 elap:               1.1
 (Enter /udrive/faculty/rpeverati/g16/g16/l103.exe)

 GradGradGradGradGradGradGradGradGradGradGradGradGradGradGradGradGradGrad
 Berny optimization.
 Optmz: redundant internal coordinate code flag= 1
 FormGI is forming the generalized inverse of G from B-inverse, IUseBI=4.
 Internal  Forces:  Max     0.017683130 RMS     0.004636499
 Search for a saddle point.
 Step number   1 out of a maximum of   50
 All quantities printed in internal units (Hartrees-Bohrs-Radians)
 Swapping is turned off.
 Second derivative matrix not updated -- first step.
 The second derivative matrix:
                          R1        R2        R3        R4        R5
           R1           0.35762
           R2           0.00000   0.35761
           R3           0.00000   0.00000   0.35761
           R4           0.00000   0.00000   0.00000   0.14494
           R5           0.00000   0.00000   0.00000   0.00000   0.19191
           A1           0.00000   0.00000   0.00000   0.00000   0.00000
           A2           0.00000   0.00000   0.00000   0.00000   0.00000
           A3           0.00000   0.00000   0.00000   0.00000   0.00000
           A4           0.00000   0.00000   0.00000   0.00000   0.00000
           A5           0.00000   0.00000   0.00000   0.00000   0.00000
           A6           0.00000   0.00000   0.00000   0.00000   0.00000
           A7           0.00000   0.00000   0.00000   0.00000   0.00000
           A8           0.00000   0.00000   0.00000   0.00000   0.00000
           D1           0.00000   0.00000   0.00000   0.00000   0.00000
           D2           0.00000   0.00000   0.00000   0.00000   0.00000
           D3           0.00000   0.00000   0.00000   0.00000   0.00000
           D4           0.00000   0.00000   0.00000   0.00000   0.00000
                          A1        A2        A3        A4        A5
           A1           0.16000
           A2           0.00000   0.16000
           A3           0.00000   0.00000   0.16000
           A4           0.00000   0.00000   0.00000   0.16000
           A5           0.00000   0.00000   0.00000   0.00000   0.16000
           A6           0.00000   0.00000   0.00000   0.00000   0.00000
           A7           0.00000   0.00000   0.00000   0.00000   0.00000
           A8           0.00000   0.00000   0.00000   0.00000   0.00000
           D1           0.00000   0.00000   0.00000   0.00000   0.00000
           D2           0.00000   0.00000   0.00000   0.00000   0.00000
           D3           0.00000   0.00000   0.00000   0.00000   0.00000
           D4           0.00000   0.00000   0.00000   0.00000   0.00000
                          A6        A7        A8        D1        D2
           A6           0.16000
           A7           0.00000   0.00230
           A8           0.00000   0.00000   0.00230
           D1           0.00000   0.00000   0.00000   0.00341
           D2           0.00000   0.00000   0.00000   0.00000   0.00230
           D3           0.00000   0.00000   0.00000   0.00000   0.00000
           D4           0.00000   0.00000   0.00000   0.00000   0.00000
                          D3        D4
           D3           0.00230
           D4           0.00000   0.00230
 ITU=  0
 Eigenvectors of the second derivative matrix:
                           1         2         3         4         5
     Eigenvalues --     0.00230   0.00230   0.04949   0.07158   0.07475
   1         R1         0.00000  -0.00000   0.00000   0.00000   0.00000
   2         R2        -0.00000   0.00000   0.00000   0.00000  -0.00000
   3         R3         0.00000   0.00000   0.00000  -0.00000  -0.00000
   4         R4         0.00000  -0.00000   0.00000   0.00000   0.00000
   5         R5        -0.00000  -0.00000  -0.00000  -0.00000  -0.00000
   6         A1         0.00000   0.00000   0.33021   0.00000  -0.39712
   7         A2        -0.00000   0.00000   0.06690   0.44638   0.32299
   8         A3         0.00000  -0.00000  -0.22719   0.14279  -0.21364
   9         A4        -0.00000  -0.00000   0.06687  -0.44641   0.32294
  10         A5        -0.00000   0.00000  -0.22720  -0.14274  -0.21365
  11         A6         0.00000  -0.00000  -0.27105   0.00000   0.03825
  12         A7         0.04893   0.99880  -0.00000  -0.00000   0.00000
  13         A8         0.99880  -0.04893   0.00000  -0.00000   0.00000
  14         D1         0.00000  -0.00000  -0.80369   0.00004  -0.21481
  15         D2         0.00000   0.00000   0.19898   0.00002  -0.57433
  16         D3        -0.00000   0.00000   0.09947  -0.52947  -0.28719
  17         D4        -0.00000  -0.00000  -0.09951  -0.52949   0.28714
                           6         7         8         9        10
     Eigenvalues --     0.14494   0.16000   0.16000   0.19191   0.35761
   1         R1         0.00000  -0.00000  -0.00000   0.00000   0.00000
   2         R2        -0.00000  -0.00000  -0.00000  -0.00000   0.00000
   3         R3        -0.00000  -0.00000  -0.00000   0.00000   1.00000
   4         R4        -1.00000   0.00000  -0.00000  -0.00000  -0.00000
   5         R5         0.00000  -0.00000  -0.00000  -1.00000   0.00000
   6         A1         0.00000  -0.02958  -0.22667   0.00000  -0.00000
   7         A2         0.00000   0.23218   0.11459  -0.00000   0.00000
   8         A3        -0.00000  -0.62158   0.44160   0.00000   0.00000
   9         A4        -0.00000  -0.19500   0.17036   0.00000  -0.00000
  10         A5         0.00000   0.71410   0.26728  -0.00000   0.00000
  11         A6         0.00000  -0.10441  -0.80001   0.00000  -0.00000
  12         A7        -0.00000  -0.00000   0.00000  -0.00000  -0.00000
  13         A8         0.00000   0.00000   0.00000  -0.00000  -0.00000
  14         D1        -0.00000  -0.00000  -0.00000   0.00000   0.00000
  15         D2        -0.00000  -0.00000  -0.00000   0.00000  -0.00000
  16         D3        -0.00000   0.00000   0.00000   0.00000  -0.00000
  17         D4        -0.00000   0.00000   0.00000   0.00000  -0.00000
                          11        12
     Eigenvalues --     0.35761   0.35762
   1         R1         0.00000  -1.00000
   2         R2         1.00000   0.00000
   3         R3        -0.00000   0.00000
   4         R4        -0.00000  -0.00000
   5         R5        -0.00000  -0.00000
   6         A1        -0.00000   0.00000
   7         A2        -0.00000   0.00000
   8         A3         0.00000   0.00000
   9         A4        -0.00000   0.00000
  10         A5         0.00000  -0.00000
  11         A6        -0.00000  -0.00000
  12         A7        -0.00000  -0.00000
  13         A8        -0.00000   0.00000
  14         D1         0.00000  -0.00000
  15         D2        -0.00000  -0.00000
  16         D3         0.00000  -0.00000
  17         D4         0.00000  -0.00000
 Eigenvalue     1 is   2.30D-03 should be less than     0.000000 Eigenvector:
                          A8        A7        A4        D4        A6
   1                    0.99880   0.04893  -0.00000  -0.00000   0.00000
                          D1        D2        A5        A1        D3
   1                    0.00000   0.00000  -0.00000   0.00000  -0.00000
 RLam0= 2.30D-03.
 Iter=   1 RLamda= 0.00000000D+00 Sum=-1.80587109D-03.
 Iter=   2 RLamda=-1.80587109D-03 Sum=-1.78886200D-03.
 Iter=   3 RLamda=-1.78886200D-03 Sum=-1.78902051D-03.
 Iter=   4 RLamda=-1.78902051D-03 Sum=-1.78901903D-03.
 RFO step:  Lambda0=2.300010054D-03 Lambda=-1.78902051D-03.
 Linear search not attempted -- option 19 set.
 Maximum step size (   0.100) exceeded in Quadratic search.
    -- Step size scaled by   0.740
 Iteration  1 RMS(Cart)=  0.02201576 RMS(Int)=  0.00043885
 Iteration  2 RMS(Cart)=  0.00055995 RMS(Int)=  0.00001721
 Iteration  3 RMS(Cart)=  0.00000048 RMS(Int)=  0.00001720
 ITry= 1 IFail=0 DXMaxC= 6.27D-02 DCOld= 1.00D+10 DXMaxT= 1.00D-01 DXLimC= 3.00D+00 Rises=F
 Variable       Old X    -DE/DX   Delta X   Delta X   Delta X     New X
                                 (Linear)    (Quad)   (Total)
    R1        2.04456  -0.00411   0.00000  -0.00846  -0.00846   2.03610
    R2        2.04456  -0.00411   0.00000  -0.00846  -0.00846   2.03610
    R3        2.04456  -0.00411   0.00000  -0.00847  -0.00847   2.03610
    R4        2.63908   0.00060   0.00000   0.00303   0.00303   2.64212
    R5        2.74280  -0.01768   0.00000  -0.06758  -0.06758   2.67522
    A1        2.02979   0.00010   0.00000   0.00298   0.00294   2.03273
    A2        2.02978   0.00030   0.00000   0.00316   0.00312   2.03290
    A3        1.76688  -0.00034   0.00000  -0.00483  -0.00482   1.76206
    A4        2.02979   0.00030   0.00000   0.00315   0.00312   2.03291
    A5        1.76691  -0.00034   0.00000  -0.00484  -0.00484   1.76207
    A6        1.76695  -0.00041   0.00000  -0.00486  -0.00485   1.76209
    A7        3.14130   0.00000   0.00000  -0.00327  -0.00327   3.13803
    A8        3.14143   0.00000   0.00000  -0.07139  -0.07139   3.07004
    D1       -2.49058  -0.00106   0.00000  -0.01473  -0.01476  -2.50534
    D2        2.09439  -0.00013   0.00000  -0.00012  -0.00012   2.09426
    D3       -2.09439  -0.00006   0.00000  -0.00006  -0.00006  -2.09446
    D4        2.09441   0.00006   0.00000   0.00006   0.00006   2.09446
         Item               Value     Threshold  Converged?
 Maximum Force            0.017683     0.000450     NO 
 RMS     Force            0.004636     0.000300     NO 
 Maximum Displacement     0.062721     0.001800     NO 
 RMS     Displacement     0.022050     0.001200     NO 
 Predicted change in Energy=-8.329066D-04
 Lowest energy point so far.  Saving SCF results.
 Largest change from initial coordinates is atom    6       0.037 Angstoms.
 GradGradGradGradGradGradGradGradGradGradGradGradGradGradGradGradGradGrad

 Leave Link  103 at Wed Oct 21 14:40:27 2020, MaxMem=  2684354560 cpu:               5.1 elap:               1.0
 (Enter /udrive/faculty/rpeverati/g16/g16/l202.exe)
                          Input orientation:                          
 ---------------------------------------------------------------------
 Center     Atomic      Atomic             Coordinates (Angstroms)
 Number     Number       Type             X           Y           Z
 ---------------------------------------------------------------------
      1          6           0       -1.797990    0.167249    0.218460
      2          1           0       -2.142123   -0.761720   -0.205218
      3          1           0       -1.980542    1.056512   -0.361886
      4          1           0       -1.879376    0.266656    1.288230
      5          1           0       -0.414553    0.031387    0.068589
      6         17           0        0.981570   -0.084927   -0.134936
 ---------------------------------------------------------------------
                    Distance matrix (angstroms):
                    1          2          3          4          5
     1  C    0.000000
     2  H    1.077457   0.000000
     3  H    1.077458   1.832108   0.000000
     4  H    1.077457   1.832206   1.832209   0.000000
     5  H    1.398148   1.920543   1.920549   1.920569   0.000000
     6  Cl   2.813261   3.196943   3.182530   3.214658   1.415666
                    6
     6  Cl   0.000000
 Stoichiometry    CH4Cl(2)
 Framework group  C1[X(CH4Cl)]
 Deg. of freedom    12
 Full point group                 C1      NOp   1
 RotChk:  IX=3 Diff= 1.24D+00
 Largest Abelian subgroup         C1      NOp   1
 Largest concise Abelian subgroup C1      NOp   1
                         Standard orientation:                         
 ---------------------------------------------------------------------
 Center     Atomic      Atomic             Coordinates (Angstroms)
 Number     Number       Type             X           Y           Z
 ---------------------------------------------------------------------
      1          6           0        1.800330    0.001275   -0.000385
      2          1           0        2.003821    0.367058    0.992443
      3          1           0        1.987131    0.685150   -0.811763
      4          1           0        2.024429   -1.036256   -0.185379
      5          1           0        0.402472   -0.026035    0.007737
      6         17           0       -1.012931    0.000143   -0.000043
 ---------------------------------------------------------------------
 Rotational constants (GHZ):         149.3754004           5.7608974           5.7608739
 Leave Link  202 at Wed Oct 21 14:40:28 2020, MaxMem=  2684354560 cpu:               3.6 elap:               1.1
 (Enter /udrive/faculty/rpeverati/g16/g16/l301.exe)
 Standard basis: VSTO-6G (5D, 7F)
 Ernie: Thresh=  0.10000D-02 Tol=  0.10000D-05 Strict=F.
 EHB=         0.000000000 Number of Hydrogen Bonds=     0
  NNHCO=     0 NNPyr=     0 NCTC=     0               EPep=         0.000000000
    EC=        16.999007720  ECS=         0.660192671   EG=         0.134618503
   EHC=         0.000138592  EAt=       -15.626271301  AtH=         0.650648344
 EPDDG=         0.000000000  ECC=        17.793957485 EAtT=        16.276919645
  EHyb=         0.000000000
 There are    18 symmetry adapted cartesian basis functions of A   symmetry.
 There are    17 symmetry adapted basis functions of A   symmetry.
    17 basis functions,   108 primitive gaussians,    18 cartesian basis functions
     8 alpha electrons        7 beta electrons
       nuclear repulsion energy        34.0708771303 Hartrees.
 IExCor=    0 DFT=F Ex=HF Corr=None ExCW=0 ScaHFX=  1.000000
 ScaDFX=  1.000000  1.000000  1.000000  1.000000 ScalE2=  1.000000  1.000000
 IRadAn=      5 IRanWt=     -1 IRanGd=            0 ICorTp=0 IEmpDi=251
 Integral buffers will be    131072 words long.
 Regular integral format.
 Two-electron integral symmetry is turned off.
 R6Disp:  PM7 Dispersion energy=       -0.0001250273 Hartrees.
 Nuclear repulsion after empirical dispersion term =       34.0707521030 Hartrees.
 Leave Link  301 at Wed Oct 21 14:40:30 2020, MaxMem=  2684354560 cpu:               6.2 elap:               1.6
 (Enter /udrive/faculty/rpeverati/g16/g16/l302.exe)
 Do NDO integrals.
 NPDir=0 NMtPBC=     1 NCelOv=     1 NCel=       1 NClECP=     1 NCelD=      1
         NCelK=      1 NCelE2=     1 NClLst=     1 CellRange=     0.0.
 One-electron integrals computed using PRISM.
 NBasis=    17 RedAO= F EigKep=  0.00D+00  NBF=    17
 NBsUse=    17 1.00D-04 EigRej=  0.00D+00 NBFU=    17
 Leave Link  302 at Wed Oct 21 14:40:32 2020, MaxMem=  2684354560 cpu:               4.4 elap:               1.2
 (Enter /udrive/faculty/rpeverati/g16/g16/l303.exe)
 DipDrv:  MaxL=1.
 Leave Link  303 at Wed Oct 21 14:40:34 2020, MaxMem=  2684354560 cpu:               5.4 elap:               1.2
 (Enter /udrive/faculty/rpeverati/g16/g16/l401.exe)
 Initial guess from the checkpoint file:  "MN_84_RKT08_BH76_PM7_SE.chk"
 SCF N**3 symmetry information disabled.
 B after Tr=     0.000000   -0.000000    0.000000
         Rot=    0.899010    0.019538   -0.358992    0.250048 Ang=  51.94 deg.
 Guess basis will be translated and rotated to current coordinates.
 JPrj=0 DoOrth=T DoCkMO=T.
 Initial guess <Sx>= 0.0000 <Sy>= 0.0000 <Sz>= 0.5000 <S**2>= 0.7629 S= 0.5064
 Leave Link  401 at Wed Oct 21 14:40:35 2020, MaxMem=  2684354560 cpu:               3.5 elap:               0.9
 (Enter /udrive/faculty/rpeverati/g16/g16/l502.exe)
 Keep J ints in memory in canonical form, NReq=1848537.
 FoFCou: FMM=F IPFlag=           0 FMFlag=           0 FMFlg1=           0
         NFxFlg=           0 DoJE=F BraDBF=F KetDBF=F FulRan=T
         wScrn=  0.000000 ICntrl=       600 IOpCl=  2 I1Cent=           0 NGrid=           0
         NMat0=    1 NMatS0=     59 NMatT0=    0 NMatD0=    1 NMtDS0=    0 NMtDT0=    0
 Symmetry not used in FoFCou.
 Two-electron integral symmetry not used.
 UHF open shell SCF:
 Using DIIS extrapolation, IDIIS=  1040.
 Overlap will be assumed to be unity.
 NGot=  2684354560 LenX=  2684292320 LenY=  2684291438
 Requested convergence on RMS density matrix=1.00D-08 within 120 cycles.
 Requested convergence on MAX density matrix=1.00D-06.
 Requested convergence on             energy=1.00D-06.
 No special actions if energy rises.

 Cycle   1  Pass 1  IDiag  1:
 E= 0.256469468583589E-01
 DIIS: error= 1.67D-03 at cycle   1 NSaved=   1.
 NSaved= 1 IEnMin= 1 EnMin= 0.256469468583589E-01 IErMin= 1 ErrMin= 1.67D-03
 ErrMax= 1.67D-03  0.00D+00 EMaxC= 1.00D-01 BMatC= 2.23D-04 BMatP= 2.23D-04
 IDIUse=3 WtCom= 9.83D-01 WtEn= 1.67D-02
 Coeff-Com:  0.100D+01
 Coeff-En:   0.100D+01
 Coeff:      0.100D+01
 GapD=    2.000 DampG=2.000 DampE=1.000 DampFc=2.0000 IDamp=-1.
 RMSDP=9.16D-04 MaxDP=5.26D-03              OVMax= 0.00D+00

 Cycle   2  Pass 1  IDiag  3:
 E= 0.254223339764081E-01 Delta-E=       -0.000224612882 Rises=F Damp=F
 DIIS: error= 9.73D-04 at cycle   2 NSaved=   2.
 NSaved= 2 IEnMin= 2 EnMin= 0.254223339764081E-01 IErMin= 2 ErrMin= 9.73D-04
 ErrMax= 9.73D-04  0.00D+00 EMaxC= 1.00D-01 BMatC= 4.72D-05 BMatP= 2.23D-04
 IDIUse=3 WtCom= 9.90D-01 WtEn= 9.73D-03
 Coeff-Com: -0.531D+00 0.153D+01
 Coeff-En:   0.000D+00 0.100D+01
 Coeff:     -0.526D+00 0.153D+01
 Gap=     0.496 Goal=   None    Shift=    0.000
 Gap=     0.324 Goal=   None    Shift=    0.000
 RMSDP=7.89D-04 MaxDP=5.05D-03 DE=-2.25D-04 OVMax= 8.19D-03

 Cycle   3  Pass 1  IDiag  3:
 E= 0.253357240209411E-01 Delta-E=       -0.000086609955 Rises=F Damp=F
 DIIS: error= 3.61D-04 at cycle   3 NSaved=   3.
 NSaved= 3 IEnMin= 3 EnMin= 0.253357240209411E-01 IErMin= 3 ErrMin= 3.61D-04
 ErrMax= 3.61D-04  0.00D+00 EMaxC= 1.00D-01 BMatC= 7.24D-06 BMatP= 4.72D-05
 IDIUse=3 WtCom= 9.96D-01 WtEn= 3.61D-03
 Coeff-Com:  0.209D+00-0.927D+00 0.172D+01
 Coeff-En:   0.000D+00 0.000D+00 0.100D+01
 Coeff:      0.208D+00-0.924D+00 0.172D+01
 Gap=     0.496 Goal=   None    Shift=    0.000
 Gap=     0.325 Goal=   None    Shift=    0.000
 RMSDP=4.78D-04 MaxDP=3.56D-03 DE=-8.66D-05 OVMax= 5.20D-03

 Cycle   4  Pass 1  IDiag  3:
 E= 0.253161769182242E-01 Delta-E=       -0.000019547103 Rises=F Damp=F
 DIIS: error= 1.41D-04 at cycle   4 NSaved=   4.
 NSaved= 4 IEnMin= 4 EnMin= 0.253161769182242E-01 IErMin= 4 ErrMin= 1.41D-04
 ErrMax= 1.41D-04  0.00D+00 EMaxC= 1.00D-01 BMatC= 9.33D-07 BMatP= 7.24D-06
 IDIUse=3 WtCom= 9.99D-01 WtEn= 1.41D-03
 Coeff-Com: -0.720D-01 0.422D+00-0.116D+01 0.181D+01
 Coeff-En:   0.000D+00 0.000D+00 0.000D+00 0.100D+01
 Coeff:     -0.719D-01 0.421D+00-0.116D+01 0.181D+01
 Gap=     0.496 Goal=   None    Shift=    0.000
 Gap=     0.325 Goal=   None    Shift=    0.000
 RMSDP=2.11D-04 MaxDP=1.90D-03 DE=-1.95D-05 OVMax= 2.11D-03

 Cycle   5  Pass 1  IDiag  3:
 E= 0.253134758626175E-01 Delta-E=       -0.000002701056 Rises=F Damp=F
 DIIS: error= 2.65D-05 at cycle   5 NSaved=   5.
 NSaved= 5 IEnMin= 5 EnMin= 0.253134758626175E-01 IErMin= 5 ErrMin= 2.65D-05
 ErrMax= 2.65D-05  0.00D+00 EMaxC= 1.00D-01 BMatC= 6.39D-08 BMatP= 9.33D-07
 IDIUse=1 WtCom= 1.00D+00 WtEn= 0.00D+00
 Coeff-Com:  0.211D-01-0.138D+00 0.431D+00-0.874D+00 0.156D+01
 Coeff:      0.211D-01-0.138D+00 0.431D+00-0.874D+00 0.156D+01
 Gap=     0.496 Goal=   None    Shift=    0.000
 Gap=     0.325 Goal=   None    Shift=    0.000
 RMSDP=4.69D-05 MaxDP=3.76D-04 DE=-2.70D-06 OVMax= 4.97D-04

 Cycle   6  Pass 1  IDiag  3:
 E= 0.253133235631609E-01 Delta-E=       -0.000000152299 Rises=F Damp=F
 DIIS: error= 1.27D-05 at cycle   6 NSaved=   6.
 NSaved= 6 IEnMin= 6 EnMin= 0.253133235631609E-01 IErMin= 6 ErrMin= 1.27D-05
 ErrMax= 1.27D-05  0.00D+00 EMaxC= 1.00D-01 BMatC= 5.71D-09 BMatP= 6.39D-08
 IDIUse=1 WtCom= 1.00D+00 WtEn= 0.00D+00
 Coeff-Com: -0.113D-01 0.717D-01-0.223D+00 0.464D+00-0.999D+00 0.170D+01
 Coeff:     -0.113D-01 0.717D-01-0.223D+00 0.464D+00-0.999D+00 0.170D+01
 Gap=     0.496 Goal=   None    Shift=    0.000
 Gap=     0.325 Goal=   None    Shift=    0.000
 RMSDP=1.44D-05 MaxDP=1.37D-04 DE=-1.52D-07 OVMax= 1.85D-04

 Cycle   7  Pass 1  IDiag  3:
 E= 0.253133077682861E-01 Delta-E=       -0.000000015795 Rises=F Damp=F
 DIIS: error= 5.68D-06 at cycle   7 NSaved=   7.
 NSaved= 7 IEnMin= 7 EnMin= 0.253133077682861E-01 IErMin= 7 ErrMin= 5.68D-06
 ErrMax= 5.68D-06  0.00D+00 EMaxC= 1.00D-01 BMatC= 7.12D-10 BMatP= 5.71D-09
 IDIUse=1 WtCom= 1.00D+00 WtEn= 0.00D+00
 Coeff-Com:  0.468D-02-0.302D-01 0.947D-01-0.201D+00 0.460D+00-0.106D+01
 Coeff-Com:  0.173D+01
 Coeff:      0.468D-02-0.302D-01 0.947D-01-0.201D+00 0.460D+00-0.106D+01
 Coeff:      0.173D+01
 Gap=     0.496 Goal=   None    Shift=    0.000
 Gap=     0.325 Goal=   None    Shift=    0.000
 RMSDP=6.21D-06 MaxDP=6.82D-05 DE=-1.58D-08 OVMax= 8.94D-05

 Cycle   8  Pass 1  IDiag  3:
 E= 0.253133053443975E-01 Delta-E=       -0.000000002424 Rises=F Damp=F
 DIIS: error= 2.09D-06 at cycle   8 NSaved=   8.
 NSaved= 8 IEnMin= 8 EnMin= 0.253133053443975E-01 IErMin= 8 ErrMin= 2.09D-06
 ErrMax= 2.09D-06  0.00D+00 EMaxC= 1.00D-01 BMatC= 9.36D-11 BMatP= 7.12D-10
 IDIUse=1 WtCom= 1.00D+00 WtEn= 0.00D+00
 Coeff-Com: -0.161D-02 0.103D-01-0.323D-01 0.696D-01-0.165D+00 0.452D+00
 Coeff-Com: -0.110D+01 0.177D+01
 Coeff:     -0.161D-02 0.103D-01-0.323D-01 0.696D-01-0.165D+00 0.452D+00
 Coeff:     -0.110D+01 0.177D+01
 Gap=     0.496 Goal=   None    Shift=    0.000
 Gap=     0.325 Goal=   None    Shift=    0.000
 RMSDP=2.58D-06 MaxDP=2.92D-05 DE=-2.42D-09 OVMax= 3.92D-05

 Cycle   9  Pass 1  IDiag  3:
 E= 0.253133049890408E-01 Delta-E=       -0.000000000355 Rises=F Damp=F
 DIIS: error= 6.06D-07 at cycle   9 NSaved=   9.
 NSaved= 9 IEnMin= 9 EnMin= 0.253133049890408E-01 IErMin= 9 ErrMin= 6.06D-07
 ErrMax= 6.06D-07  0.00D+00 EMaxC= 1.00D-01 BMatC= 1.11D-11 BMatP= 9.36D-11
 IDIUse=1 WtCom= 1.00D+00 WtEn= 0.00D+00
 Coeff-Com:  0.480D-03-0.310D-02 0.987D-02-0.215D-01 0.518D-01-0.160D+00
 Coeff-Com:  0.473D+00-0.109D+01 0.174D+01
 Coeff:      0.480D-03-0.310D-02 0.987D-02-0.215D-01 0.518D-01-0.160D+00
 Coeff:      0.473D+00-0.109D+01 0.174D+01
 Gap=     0.496 Goal=   None    Shift=    0.000
 Gap=     0.325 Goal=   None    Shift=    0.000
 RMSDP=9.10D-07 MaxDP=9.92D-06 DE=-3.55D-10 OVMax= 1.41D-05

 Cycle  10  Pass 1  IDiag  3:
 E= 0.253133049486607E-01 Delta-E=       -0.000000000040 Rises=F Damp=F
 DIIS: error= 1.84D-07 at cycle  10 NSaved=  10.
 NSaved=10 IEnMin=10 EnMin= 0.253133049486607E-01 IErMin=10 ErrMin= 1.84D-07
 ErrMax= 1.84D-07  0.00D+00 EMaxC= 1.00D-01 BMatC= 1.24D-12 BMatP= 1.11D-11
 IDIUse=1 WtCom= 1.00D+00 WtEn= 0.00D+00
 Coeff-Com: -0.142D-03 0.920D-03-0.296D-02 0.653D-02-0.155D-01 0.516D-01
 Coeff-Com: -0.173D+00 0.479D+00-0.108D+01 0.174D+01
 Coeff:     -0.142D-03 0.920D-03-0.296D-02 0.653D-02-0.155D-01 0.516D-01
 Coeff:     -0.173D+00 0.479D+00-0.108D+01 0.174D+01
 Gap=     0.496 Goal=   None    Shift=    0.000
 Gap=     0.325 Goal=   None    Shift=    0.000
 RMSDP=2.67D-07 MaxDP=2.54D-06 DE=-4.04D-11 OVMax= 3.63D-06

 Cycle  11  Pass 1  IDiag  3:
 E= 0.253133049450582E-01 Delta-E=       -0.000000000004 Rises=F Damp=F
 DIIS: error= 4.15D-08 at cycle  11 NSaved=  11.
 NSaved=11 IEnMin=11 EnMin= 0.253133049450582E-01 IErMin=11 ErrMin= 4.15D-08
 ErrMax= 4.15D-08  0.00D+00 EMaxC= 1.00D-01 BMatC= 6.88D-14 BMatP= 1.24D-12
 IDIUse=1 WtCom= 1.00D+00 WtEn= 0.00D+00
 Coeff-Com:  0.217D-04-0.145D-03 0.484D-03-0.111D-02 0.269D-02-0.892D-02
 Coeff-Com:  0.314D-01-0.972D-01 0.266D+00-0.646D+00 0.145D+01
 Coeff:      0.217D-04-0.145D-03 0.484D-03-0.111D-02 0.269D-02-0.892D-02
 Coeff:      0.314D-01-0.972D-01 0.266D+00-0.646D+00 0.145D+01
 Gap=     0.496 Goal=   None    Shift=    0.000
 Gap=     0.325 Goal=   None    Shift=    0.000
 RMSDP=5.01D-08 MaxDP=3.86D-07 DE=-3.60D-12 OVMax= 5.07D-07

 Cycle  12  Pass 1  IDiag  3:
 E= 0.253133049448451E-01 Delta-E=       -0.000000000000 Rises=F Damp=F
 DIIS: error= 7.04D-09 at cycle  12 NSaved=  12.
 NSaved=12 IEnMin=12 EnMin= 0.253133049448451E-01 IErMin=12 ErrMin= 7.04D-09
 ErrMax= 7.04D-09  0.00D+00 EMaxC= 1.00D-01 BMatC= 3.17D-15 BMatP= 6.88D-14
 IDIUse=1 WtCom= 1.00D+00 WtEn= 0.00D+00
 Coeff-Com: -0.408D-05 0.259D-04-0.839D-04 0.190D-03-0.436D-03 0.133D-02
 Coeff-Com: -0.442D-02 0.144D-01-0.443D-01 0.137D+00-0.506D+00 0.140D+01
 Coeff:     -0.408D-05 0.259D-04-0.839D-04 0.190D-03-0.436D-03 0.133D-02
 Coeff:     -0.442D-02 0.144D-01-0.443D-01 0.137D+00-0.506D+00 0.140D+01
 Gap=     0.496 Goal=   None    Shift=    0.000
 Gap=     0.325 Goal=   None    Shift=    0.000
 RMSDP=8.16D-09 MaxDP=6.23D-08 DE=-2.13D-13 OVMax= 7.10D-08

 Cycle  13  Pass 2  IDiag  1:
 SCF Done:  E(UPM7) =  0.253133049448E-01 A.U. after   13 cycles
            NFock= 12  Conv=0.82D-08     -V/T= 1.0010
 <Sx>= 0.0000 <Sy>= 0.0000 <Sz>= 0.5000 <S**2>= 0.7614 S= 0.5057
 <L.S>= 0.000000000000E+00
 KE=-2.618208229492D+01 PE=-3.279095346890D+01 EE= 2.492759696573D+01
 Annihilation of the first spin contaminant:
 S**2 before annihilation     0.7614,   after     0.7500
 Leave Link  502 at Wed Oct 21 14:40:38 2020, MaxMem=  2684354560 cpu:              14.6 elap:               2.1
 (Enter /udrive/faculty/rpeverati/g16/g16/l508.exe)
 QCSCF skips out because SCF is already converged.
 Leave Link  508 at Wed Oct 21 14:40:39 2020, MaxMem=  2684354560 cpu:               1.2 elap:               0.8
 (Enter /udrive/faculty/rpeverati/g16/g16/l701.exe)
 ... and contract with generalized density number  0.
 Compute integral first derivatives.
 R6Disp: Adding PM7 dispersion energy 1st derivatives to the gradient.
 Leave Link  701 at Wed Oct 21 14:40:41 2020, MaxMem=  2684354560 cpu:               6.1 elap:               1.3
 (Enter /udrive/faculty/rpeverati/g16/g16/l702.exe)
 L702 exits ... SP integral derivatives will be done elsewhere.
 Leave Link  702 at Wed Oct 21 14:40:43 2020, MaxMem=  2684354560 cpu:               2.4 elap:               1.1
 (Enter /udrive/faculty/rpeverati/g16/g16/l703.exe)
 Integral derivatives from FoFJK, PRISM(SPDF).
 Compute integral first derivatives, UseDBF=F ICtDFT=           0.
 Calling FoFJK, ICntrl=      2127 FMM=F ISym2X=0 I1Cent= 0 IOpClX= 1 NMat=1 NMatS=1 NMatT=0.
 FoFJK:  IHMeth=43 ICntrl=    2127 DoSepK=F KAlg= 0 I1Cent=           0 FoldK=F
 IRaf=         0 NMat=       1 IRICut=       1 DoRegI=T DoRafI=F ISym2E= 0 IDoP0=3 IntGTp=3.
 FoFCou: FMM=F IPFlag=           0 FMFlag=      100000 FMFlg1=         800
         NFxFlg=           0 DoJE=F BraDBF=F KetDBF=F FulRan=T
         wScrn=  0.000000 ICntrl=      2127 IOpCl=  1 I1Cent=           0 NGrid=           0
         NMat0=    1 NMatS0=      1 NMatT0=    0 NMatD0=    1 NMtDS0=    0 NMtDT0=    0
 Symmetry not used in FoFCou.
 Leave Link  703 at Wed Oct 21 14:40:44 2020, MaxMem=  2684354560 cpu:               3.6 elap:               1.2
 (Enter /udrive/faculty/rpeverati/g16/g16/l716.exe)
 Dipole        = 1.23079481D+00-9.80872757D-03 2.86079250D-03
 ***** Axes restored to original set *****
 -------------------------------------------------------------------
 Center     Atomic                   Forces (Hartrees/Bohr)
 Number     Number              X              Y              Z
 -------------------------------------------------------------------
      1        6          -0.010039187    0.000986137    0.001075447
      2        1           0.001226972    0.001423866    0.000589187
      3        1           0.000871831   -0.001472150    0.000854360
      4        1           0.000924361   -0.000227637   -0.001812014
      5        1           0.016270940   -0.001452198   -0.002128391
      6       17          -0.009254917    0.000741982    0.001421411
 -------------------------------------------------------------------
 Cartesian Forces:  Max     0.016270940 RMS     0.005132944
 Leave Link  716 at Wed Oct 21 14:40:46 2020, MaxMem=  2684354560 cpu:               2.6 elap:               1.1
 (Enter /udrive/faculty/rpeverati/g16/g16/l103.exe)

 GradGradGradGradGradGradGradGradGradGradGradGradGradGradGradGradGradGrad
 Berny optimization.
 Optmz: redundant internal coordinate code flag= 1
 Red2BG:  D1=  2.35D-01 OD1=  3.26D-02 B2RMS=  0.00D+00 IAprox=0
 FormGI is forming the generalized inverse of G from B-inverse, IUseBI=4.
 Internal  Forces:  Max     0.009392467 RMS     0.002972697
 Search for a saddle point.
 Step number   2 out of a maximum of   50
 All quantities printed in internal units (Hartrees-Bohrs-Radians)
 Swapping is turned off.
 Update second derivatives using D2CorX and points    1    2
 The second derivative matrix:
                          R1        R2        R3        R4        R5
           R1           0.35649
           R2          -0.00109   0.35655
           R3          -0.00117  -0.00113   0.35641
           R4           0.00743   0.00732   0.00757   0.11788
           R5          -0.00744  -0.00720  -0.00771   0.05392   0.14395
           A1           0.00055   0.00053   0.00056  -0.00312   0.00372
           A2           0.00064   0.00062   0.00066  -0.00351   0.00436
           A3          -0.00093  -0.00091  -0.00096   0.00525  -0.00636
           A4           0.00059   0.00058   0.00061  -0.00336   0.00405
           A5          -0.00075  -0.00073  -0.00077   0.00461  -0.00501
           A6          -0.00116  -0.00113  -0.00119   0.00603  -0.00798
           A7          -0.00010  -0.00010  -0.00011   0.00172  -0.00046
           A8          -0.00269  -0.00251  -0.00289   0.03902  -0.01296
           D1          -0.00044  -0.00041  -0.00048   0.00768  -0.00186
           D2           0.00004   0.00004   0.00004  -0.00009   0.00031
           D3           0.00003   0.00003   0.00003  -0.00008   0.00022
           D4          -0.00001  -0.00001  -0.00001   0.00002  -0.00009
                          A1        A2        A3        A4        A5
           A1           0.15975
           A2          -0.00029   0.15966
           A3           0.00043   0.00050   0.15926
           A4          -0.00028  -0.00032   0.00047   0.15970
           A5           0.00036   0.00041  -0.00061   0.00039   0.15951
           A6           0.00053   0.00060  -0.00089   0.00057  -0.00074
           A7           0.00007   0.00009  -0.00013   0.00008  -0.00008
           A8           0.00178   0.00219  -0.00311   0.00196  -0.00210
           D1           0.00032   0.00040  -0.00056   0.00036  -0.00036
           D2          -0.00002  -0.00002   0.00003  -0.00002   0.00002
           D3          -0.00001  -0.00001   0.00002  -0.00001   0.00002
           D4           0.00000   0.00000  -0.00001   0.00000  -0.00001
                          A6        A7        A8        D1        D2
           A6           0.15893
           A7          -0.00018   0.00234
           A8          -0.00430   0.00075   0.01660
           D1          -0.00080   0.00018   0.00356   0.00427
           D2           0.00003   0.00001   0.00027   0.00006   0.00230
           D3           0.00002   0.00001   0.00019   0.00004  -0.00000
           D4          -0.00001  -0.00000  -0.00009  -0.00002  -0.00000
                          D3        D4
           D3           0.00230
           D4          -0.00000   0.00230
 ITU=  0  0
 Eigenvectors of the second derivative matrix:
                           1         2         3         4         5
     Eigenvalues --    -0.00488   0.00230   0.04532   0.07200   0.07401
   1         R1         0.02018   0.00035  -0.00789   0.00011  -0.00566
   2         R2         0.01944   0.00034  -0.00773   0.00011  -0.00555
   3         R3         0.02102   0.00037  -0.00808   0.00011  -0.00579
   4         R4        -0.39829  -0.00796   0.11996  -0.00106   0.10072
   5         R5         0.23212   0.00401  -0.11740   0.00198  -0.09632
   6         A1        -0.02285  -0.00039   0.28535   0.00345  -0.43223
   7         A2        -0.02456  -0.00044   0.08178   0.44669   0.31212
   8         A3         0.03688   0.00064  -0.22944   0.14114  -0.17890
   9         A4        -0.02330  -0.00041   0.08183  -0.45059   0.30500
  10         A5         0.02745   0.00046  -0.22670  -0.13955  -0.17897
  11         A6         0.04871   0.00088  -0.26157  -0.00086   0.06224
  12         A7         0.01923   0.99959   0.01001  -0.00013   0.00433
  13         A8         0.87545  -0.02706   0.23336  -0.00290   0.09990
  14         D1         0.11536   0.00202  -0.78402  -0.00058  -0.12065
  15         D2        -0.00293  -0.00005   0.15304   0.00423  -0.58351
  16         D3        -0.00237  -0.00004   0.07700  -0.52608  -0.29558
  17         D4         0.00056   0.00001  -0.07604  -0.53031   0.28792
                           6         7         8         9        10
     Eigenvalues --     0.09747   0.15996   0.16000   0.18768   0.35544
   1         R1        -0.02947   0.00039  -0.00005   0.00681   0.57431
   2         R2        -0.02898   0.00037  -0.00005   0.00606   0.55749
   3         R3        -0.03004   0.00042  -0.00005   0.00765   0.59592
   4         R4         0.63377   0.05738   0.00082   0.64038   0.04141
   5         R5        -0.58377   0.01364  -0.00267   0.76131  -0.04967
   6         A1        -0.00646   0.20889   0.08278  -0.01212   0.00014
   7         A2        -0.07025  -0.20727   0.14477   0.00887   0.00142
   8         A3         0.09901  -0.08621  -0.75984   0.00509  -0.00123
   9         A4        -0.07586  -0.05216  -0.24780   0.00145   0.00114
  10         A5         0.10956  -0.58205   0.49516   0.03056  -0.00012
  11         A6         0.03536   0.74899   0.29704  -0.03277  -0.00297
  12         A7         0.01759   0.00006   0.00003   0.00444  -0.00026
  13         A8         0.40064   0.00097   0.00065   0.08859  -0.00707
  14         D1         0.23315  -0.00040   0.00018   0.00717  -0.00414
  15         D2         0.06301  -0.00009   0.00001  -0.00104  -0.00030
  16         D3         0.03027  -0.00003   0.00001  -0.00023  -0.00011
  17         D4        -0.03274   0.00006  -0.00001   0.00081   0.00019
                          11        12
     Eigenvalues --     0.35761   0.35762
   1         R1         0.02425  -0.81741
   2         R2         0.71826   0.41468
   3         R3        -0.69535   0.39984
   4         R4         0.00088  -0.00005
   5         R5         0.00025   0.00004
   6         A1        -0.00002   0.00000
   7         A2        -0.00000  -0.00000
   8         A3         0.00002   0.00000
   9         A4        -0.00001  -0.00000
  10         A5         0.00005  -0.00000
  11         A6        -0.00001   0.00000
  12         A7         0.00002  -0.00000
  13         A8         0.00051  -0.00000
  14         D1         0.00007   0.00000
  15         D2        -0.00000   0.00000
  16         D3        -0.00000   0.00000
  17         D4         0.00000  -0.00000
 RLam0= 3.28D-03.
 Iter=   1 RLamda= 0.00000000D+00 Sum=-1.31137891D-03.
 Iter=   2 RLamda=-1.31137891D-03 Sum=-1.29022435D-03.
 Iter=   3 RLamda=-1.29022435D-03 Sum=-1.29055443D-03.
 Iter=   4 RLamda=-1.29055443D-03 Sum=-1.29054928D-03.
 RFO step:  Lambda0=3.282030582D-03 Lambda=-1.29055443D-03.
 Linear search not attempted -- option 19 set.
 Maximum step size (   0.100) exceeded in Quadratic search.
    -- Step size scaled by   0.155
 Iteration  1 RMS(Cart)=  0.01970009 RMS(Int)=  0.00068365
 Iteration  2 RMS(Cart)=  0.00091034 RMS(Int)=  0.00000364
 Iteration  3 RMS(Cart)=  0.00000101 RMS(Int)=  0.00000349
 Iteration  4 RMS(Cart)=  0.00000000 RMS(Int)=  0.00000349
 ITry= 1 IFail=0 DXMaxC= 4.17D-02 DCOld= 1.00D+10 DXMaxT= 1.00D-01 DXLimC= 3.00D+00 Rises=F
 Variable       Old X    -DE/DX   Delta X   Delta X   Delta X     New X
                                 (Linear)    (Quad)   (Total)
    R1        2.03610  -0.00185   0.00000   0.00080   0.00080   2.03690
    R2        2.03610  -0.00182   0.00000   0.00074   0.00074   2.03684
    R3        2.03610  -0.00189   0.00000   0.00086   0.00086   2.03696
    R4        2.64212   0.00709   0.00000  -0.02912  -0.02912   2.61299
    R5        2.67522  -0.00939   0.00000   0.01059   0.01059   2.68582
    A1        2.03273   0.00005   0.00000  -0.00128  -0.00129   2.03144
    A2        2.03290   0.00029   0.00000  -0.00141  -0.00142   2.03148
    A3        1.76206  -0.00028   0.00000   0.00209   0.00209   1.76415
    A4        2.03291   0.00025   0.00000  -0.00133  -0.00134   2.03157
    A5        1.76207  -0.00011   0.00000   0.00139   0.00139   1.76346
    A6        1.76209  -0.00056   0.00000   0.00296   0.00296   1.76505
    A7        3.13803   0.00002   0.00000  -0.00109  -0.00109   3.13693
    A8        3.07004   0.00011   0.00000   0.09495   0.09495   3.16499
    D1       -2.50534  -0.00092   0.00000   0.00656   0.00655  -2.49879
    D2        2.09426  -0.00008   0.00000  -0.00021  -0.00021   2.09405
    D3       -2.09446  -0.00003   0.00000  -0.00018  -0.00018  -2.09464
    D4        2.09446   0.00005   0.00000   0.00003   0.00003   2.09450
         Item               Value     Threshold  Converged?
 Maximum Force            0.009392     0.000450     NO 
 RMS     Force            0.002973     0.000300     NO 
 Maximum Displacement     0.041664     0.001800     NO 
 RMS     Displacement     0.019923     0.001200     NO 
 Predicted change in Energy= 3.005024D-04
 Lowest energy point so far.  Saving SCF results.
 Largest change from initial coordinates is atom    2       0.887 Angstoms.
 GradGradGradGradGradGradGradGradGradGradGradGradGradGradGradGradGradGrad

 Leave Link  103 at Wed Oct 21 14:40:48 2020, MaxMem=  2684354560 cpu:               7.4 elap:               1.6
 (Enter /udrive/faculty/rpeverati/g16/g16/l202.exe)
                          Input orientation:                          
 ---------------------------------------------------------------------
 Center     Atomic      Atomic             Coordinates (Angstroms)
 Number     Number       Type             X           Y           Z
 ---------------------------------------------------------------------
      1          6           0       -1.792884    0.167656    0.216215
      2          1           0       -2.138344   -0.762765   -0.204258
      3          1           0       -1.993051    1.056972   -0.358950
      4          1           0       -1.861703    0.264182    1.287588
      5          1           0       -0.426121    0.044664    0.046541
      6         17           0        0.979089   -0.095551   -0.113897
 ---------------------------------------------------------------------
                    Distance matrix (angstroms):
                    1          2          3          4          5
     1  C    0.000000
     2  H    1.077879   0.000000
     3  H    1.077852   1.832070   0.000000
     4  H    1.077911   1.832145   1.832172   0.000000
     5  H    1.382736   1.909594   1.909047   1.910309   0.000000
     6  Cl   2.803942   3.189315   3.197182   3.188051   1.421272
                    6
     6  Cl   0.000000
 Stoichiometry    CH4Cl(2)
 Framework group  C1[X(CH4Cl)]
 Deg. of freedom    12
 Full point group                 C1      NOp   1
 RotChk:  IX=3 Diff= 3.85D-02
 Largest Abelian subgroup         C1      NOp   1
 Largest concise Abelian subgroup C1      NOp   1
                         Standard orientation:                         
 ---------------------------------------------------------------------
 Center     Atomic      Atomic             Coordinates (Angstroms)
 Number     Number       Type             X           Y           Z
 ---------------------------------------------------------------------
      1          6           0        1.793635   -0.000373    0.000277
      2          1           0        1.998265    0.334937    1.004028
      3          1           0        2.007429    0.699050   -0.791471
      4          1           0        1.996769   -1.038062   -0.209077
      5          1           0        0.410934    0.007439   -0.005762
      6         17           0       -1.010307   -0.000066    0.000036
 ---------------------------------------------------------------------
 Rotational constants (GHZ):         149.3879678           5.7951378           5.7951221
 Leave Link  202 at Wed Oct 21 14:40:49 2020, MaxMem=  2684354560 cpu:               2.5 elap:               0.9
 (Enter /udrive/faculty/rpeverati/g16/g16/l301.exe)
 Standard basis: VSTO-6G (5D, 7F)
 Ernie: Thresh=  0.10000D-02 Tol=  0.10000D-05 Strict=F.
 EHB=         0.000000000 Number of Hydrogen Bonds=     0
  NNHCO=     0 NNPyr=     0 NCTC=     0               EPep=         0.000000000
    EC=        17.024123622  ECS=         0.661925706   EG=         0.134886635
   EHC=         0.000137170  EAt=       -15.626271301  AtH=         0.650648344
 EPDDG=         0.000000000  ECC=        17.821073134 EAtT=        16.276919645
  EHyb=         0.000000000
 There are    18 symmetry adapted cartesian basis functions of A   symmetry.
 There are    17 symmetry adapted basis functions of A   symmetry.
    17 basis functions,   108 primitive gaussians,    18 cartesian basis functions
     8 alpha electrons        7 beta electrons
       nuclear repulsion energy        34.0979927785 Hartrees.
 IExCor=    0 DFT=F Ex=HF Corr=None ExCW=0 ScaHFX=  1.000000
 ScaDFX=  1.000000  1.000000  1.000000  1.000000 ScalE2=  1.000000  1.000000
 IRadAn=      5 IRanWt=     -1 IRanGd=            0 ICorTp=0 IEmpDi=251
 Integral buffers will be    131072 words long.
 Regular integral format.
 Two-electron integral symmetry is turned off.
 R6Disp:  PM7 Dispersion energy=       -0.0001237206 Hartrees.
 Nuclear repulsion after empirical dispersion term =       34.0978690579 Hartrees.
 Leave Link  301 at Wed Oct 21 14:40:51 2020, MaxMem=  2684354560 cpu:               5.4 elap:               1.2
 (Enter /udrive/faculty/rpeverati/g16/g16/l302.exe)
 Do NDO integrals.
 NPDir=0 NMtPBC=     1 NCelOv=     1 NCel=       1 NClECP=     1 NCelD=      1
         NCelK=      1 NCelE2=     1 NClLst=     1 CellRange=     0.0.
 One-electron integrals computed using PRISM.
 NBasis=    17 RedAO= F EigKep=  0.00D+00  NBF=    17
 NBsUse=    17 1.00D-04 EigRej=  0.00D+00 NBFU=    17
 Leave Link  302 at Wed Oct 21 14:40:52 2020, MaxMem=  2684354560 cpu:               4.1 elap:               1.0
 (Enter /udrive/faculty/rpeverati/g16/g16/l303.exe)
 DipDrv:  MaxL=1.
 Leave Link  303 at Wed Oct 21 14:40:54 2020, MaxMem=  2684354560 cpu:               3.6 elap:               1.1
 (Enter /udrive/faculty/rpeverati/g16/g16/l401.exe)
 Initial guess from the checkpoint file:  "MN_84_RKT08_BH76_PM7_SE.chk"
 SCF N**3 symmetry information disabled.
 B after Tr=    -0.000000   -0.000000    0.000000
         Rot=    0.999918   -0.012759    0.000323    0.000803 Ang=  -1.47 deg.
 Guess basis will be translated and rotated to current coordinates.
 JPrj=0 DoOrth=T DoCkMO=T.
 Initial guess <Sx>= 0.0000 <Sy>= 0.0000 <Sz>= 0.5000 <S**2>= 0.7614 S= 0.5057
 Leave Link  401 at Wed Oct 21 14:40:56 2020, MaxMem=  2684354560 cpu:               3.0 elap:               1.0
 (Enter /udrive/faculty/rpeverati/g16/g16/l502.exe)
 Keep J ints in memory in canonical form, NReq=1848537.
 FoFCou: FMM=F IPFlag=           0 FMFlag=           0 FMFlg1=           0
         NFxFlg=           0 DoJE=F BraDBF=F KetDBF=F FulRan=T
         wScrn=  0.000000 ICntrl=       600 IOpCl=  2 I1Cent=           0 NGrid=           0
         NMat0=    1 NMatS0=     59 NMatT0=    0 NMatD0=    1 NMtDS0=    0 NMtDT0=    0
 Symmetry not used in FoFCou.
 Two-electron integral symmetry not used.
 UHF open shell SCF:
 Using DIIS extrapolation, IDIIS=  1040.
 Overlap will be assumed to be unity.
 NGot=  2684354560 LenX=  2684292320 LenY=  2684291438
 Requested convergence on RMS density matrix=1.00D-08 within 120 cycles.
 Requested convergence on MAX density matrix=1.00D-06.
 Requested convergence on             energy=1.00D-06.
 No special actions if energy rises.

 Cycle   1  Pass 1  IDiag  1:
 E= 0.259614859724024E-01
 DIIS: error= 1.72D-03 at cycle   1 NSaved=   1.
 NSaved= 1 IEnMin= 1 EnMin= 0.259614859724024E-01 IErMin= 1 ErrMin= 1.72D-03
 ErrMax= 1.72D-03  0.00D+00 EMaxC= 1.00D-01 BMatC= 2.24D-04 BMatP= 2.24D-04
 IDIUse=3 WtCom= 9.83D-01 WtEn= 1.72D-02
 Coeff-Com:  0.100D+01
 Coeff-En:   0.100D+01
 Coeff:      0.100D+01
 GapD=    2.000 DampG=2.000 DampE=1.000 DampFc=2.0000 IDamp=-1.
 RMSDP=9.59D-04 MaxDP=5.18D-03              OVMax= 0.00D+00

 Cycle   2  Pass 1  IDiag  3:
 E= 0.257183939540084E-01 Delta-E=       -0.000243092018 Rises=F Damp=F
 DIIS: error= 8.19D-04 at cycle   2 NSaved=   2.
 NSaved= 2 IEnMin= 2 EnMin= 0.257183939540084E-01 IErMin= 2 ErrMin= 8.19D-04
 ErrMax= 8.19D-04  0.00D+00 EMaxC= 1.00D-01 BMatC= 4.87D-05 BMatP= 2.24D-04
 IDIUse=3 WtCom= 9.92D-01 WtEn= 8.19D-03
 Coeff-Com: -0.678D+00 0.168D+01
 Coeff-En:   0.000D+00 0.100D+01
 Coeff:     -0.673D+00 0.167D+01
 Gap=     0.497 Goal=   None    Shift=    0.000
 Gap=     0.323 Goal=   None    Shift=    0.000
 RMSDP=8.59D-04 MaxDP=4.18D-03 DE=-2.43D-04 OVMax= 5.44D-03

 Cycle   3  Pass 1  IDiag  3:
 E= 0.256305999213993E-01 Delta-E=       -0.000087794033 Rises=F Damp=F
 DIIS: error= 2.49D-04 at cycle   3 NSaved=   3.
 NSaved= 3 IEnMin= 3 EnMin= 0.256305999213993E-01 IErMin= 3 ErrMin= 2.49D-04
 ErrMax= 2.49D-04  0.00D+00 EMaxC= 1.00D-01 BMatC= 4.32D-06 BMatP= 4.87D-05
 IDIUse=3 WtCom= 9.98D-01 WtEn= 2.49D-03
 Coeff-Com:  0.336D+00-0.101D+01 0.168D+01
 Coeff-En:   0.000D+00 0.000D+00 0.100D+01
 Coeff:      0.335D+00-0.101D+01 0.168D+01
 Gap=     0.497 Goal=   None    Shift=    0.000
 Gap=     0.323 Goal=   None    Shift=    0.000
 RMSDP=3.67D-04 MaxDP=2.30D-03 DE=-8.78D-05 OVMax= 3.15D-03

 Cycle   4  Pass 1  IDiag  3:
 E= 0.256189010012235E-01 Delta-E=       -0.000011698920 Rises=F Damp=F
 DIIS: error= 9.37D-05 at cycle   4 NSaved=   4.
 NSaved= 4 IEnMin= 4 EnMin= 0.256189010012235E-01 IErMin= 4 ErrMin= 9.37D-05
 ErrMax= 9.37D-05  0.00D+00 EMaxC= 1.00D-01 BMatC= 6.19D-07 BMatP= 4.32D-06
 IDIUse=1 WtCom= 1.00D+00 WtEn= 0.00D+00
 Coeff-Com: -0.172D+00 0.554D+00-0.125D+01 0.187D+01
 Coeff:     -0.172D+00 0.554D+00-0.125D+01 0.187D+01
 Gap=     0.498 Goal=   None    Shift=    0.000
 Gap=     0.323 Goal=   None    Shift=    0.000
 RMSDP=1.82D-04 MaxDP=1.29D-03 DE=-1.17D-05 OVMax= 2.05D-03

 Cycle   5  Pass 1  IDiag  3:
 E= 0.256169298516014E-01 Delta-E=       -0.000001971150 Rises=F Damp=F
 DIIS: error= 3.53D-05 at cycle   5 NSaved=   5.
 NSaved= 5 IEnMin= 5 EnMin= 0.256169298516014E-01 IErMin= 5 ErrMin= 3.53D-05
 ErrMax= 3.53D-05  0.00D+00 EMaxC= 1.00D-01 BMatC= 5.69D-08 BMatP= 6.19D-07
 IDIUse=1 WtCom= 1.00D+00 WtEn= 0.00D+00
 Coeff-Com:  0.655D-01-0.219D+00 0.565D+00-0.109D+01 0.168D+01
[...]
           A4          -0.00383   0.00326   0.00374  -0.00908   0.00235
           A5          -0.00428   0.00640  -0.00504   0.00835  -0.00217
           A6          -0.00459  -0.00459   0.00545   0.01067  -0.00275
           A7           0.00102  -0.00051  -0.00051   0.00001   0.00001
           A8           0.00000   0.00050  -0.00050  -0.00001  -0.00001
           D1          -0.00321  -0.00321  -0.00198   0.02408  -0.00622
           D2           0.00378   0.00378  -0.00878   0.00346  -0.00090
           D3          -0.00448   0.00826  -0.00439   0.00173  -0.00045
           D4          -0.00826   0.00448   0.00439  -0.00173   0.00045
                          A1        A2        A3        A4        A5
           A1           0.01281
           A2          -0.00631   0.02017
           A3          -0.00564  -0.01038   0.04777
           A4          -0.00631  -0.00285   0.00895   0.02017
           A5          -0.00564   0.00896  -0.02093  -0.01038   0.04776
           A6           0.01103  -0.01248  -0.01792  -0.01247  -0.01791
           A7          -0.00081  -0.00085   0.00668   0.00187  -0.00349
           A8          -0.00080   0.00095  -0.00009   0.00006   0.00324
           D1          -0.00626  -0.00839   0.00996  -0.00839   0.00996
           D2           0.00939  -0.00773   0.00561  -0.00773   0.00561
           D3           0.00469  -0.01250  -0.00162   0.00477   0.00724
           D4          -0.00469  -0.00477  -0.00724   0.01250   0.00163
                          A6        A7        A8        D1        D2
           A6           0.05340
           A7          -0.00346   0.00196
           A8          -0.00342  -0.00000   0.00063
           D1           0.00916   0.00016   0.00015   0.02674
           D2          -0.00356   0.00051   0.00051   0.00184   0.01556
           D3          -0.00178  -0.00048   0.00049   0.00092   0.00778
           D4           0.00178  -0.00099  -0.00001  -0.00092  -0.00778
                          D3        D4
           D3           0.01558
           D4           0.00780   0.01558
 ITU=  0
 Eigenvectors of the second derivative matrix:
                           1         2         3         4         5
     Eigenvalues --    -0.01721   0.00031   0.00094   0.03439   0.03799
   1         R1        -0.02270  -0.00001   0.00045  -0.02726  -0.05370
   2         R2        -0.02270   0.00019  -0.00022  -0.02743   0.05367
   3         R3        -0.02411  -0.00020  -0.00021   0.05231   0.00002
   4         R4         0.61583   0.00023  -0.00025  -0.07508  -0.00021
   5         R5        -0.67624  -0.00015   0.00020   0.13748   0.00037
   6         A1         0.07620   0.00873   0.00877   0.50641   0.00110
   7         A2         0.09653  -0.00863   0.00878  -0.17736   0.43080
   8         A3        -0.11204  -0.00020  -0.09164  -0.01397   0.12838
   9         A4         0.09655  -0.00001  -0.01760  -0.17659  -0.43144
  10         A5        -0.11213  -0.04488   0.04599  -0.01221  -0.13014
  11         A6        -0.11567   0.04497   0.04572  -0.16620   0.00117
  12         A7        -0.00086   0.00099   0.99310   0.00804   0.02367
  13         A8        -0.00147   0.99779  -0.00101   0.00797  -0.00776
  14         D1        -0.31398  -0.00421  -0.00408  -0.39661  -0.00099
  15         D2        -0.01417  -0.01027  -0.01048   0.55782   0.00045
  16         D3        -0.00709  -0.01025   0.01059   0.27974  -0.54221
  17         D4         0.00709   0.00002   0.02106  -0.27808  -0.54266
                           6         7         8         9        10
     Eigenvalues --     0.05661   0.07623   0.07713   0.18167   0.25138
   1         R1        -0.00933  -0.02459   0.03148   0.07166  -0.16190
   2         R2        -0.00947   0.03830   0.00949   0.07161  -0.60970
   3         R3         0.04545  -0.00896  -0.02753   0.06582   0.77078
   4         R4         0.13031   0.00656   0.01771  -0.76445  -0.00302
   5         R5        -0.36171  -0.03773  -0.10499  -0.61449  -0.00103
   6         A1        -0.03763   0.07309   0.21194   0.01104  -0.02081
   7         A2        -0.25841  -0.29591  -0.12392   0.04612   0.02090
   8         A3         0.34921   0.53447  -0.48053  -0.03629  -0.01261
   9         A4        -0.26172   0.15540  -0.27676   0.04608   0.00714
  10         A5         0.35650  -0.71573  -0.05485  -0.03616  -0.03862
  11         A6        -0.00179   0.26634   0.77358  -0.05784   0.04211
  12         A7         0.02067   0.07586  -0.08303   0.00046  -0.00138
  13         A8         0.02088  -0.04746  -0.03981   0.00058  -0.00385
  14         D1         0.59357   0.03507   0.09474  -0.11179   0.00237
  15         D2         0.27206   0.00142  -0.00016  -0.01987  -0.04623
  16         D3         0.13579  -0.02407   0.00880  -0.00992  -0.03665
  17         D4        -0.13627  -0.02549   0.00896   0.00994   0.00958
                          11        12
     Eigenvalues --     0.25139   0.28941
   1         R1         0.79710   0.57225
   2         R2        -0.53838   0.57226
   3         R3        -0.25842   0.57320
   4         R4         0.00104   0.11569
   5         R5         0.00037   0.05416
   6         A1         0.00695   0.00115
   7         A2         0.01577   0.00385
   8         A3         0.04764  -0.00329
   9         A4        -0.02515   0.00386
  10         A5        -0.03037  -0.00329
  11         A6        -0.01422  -0.00461
  12         A7         0.00681   0.00003
  13         A8        -0.00077   0.00001
  14         D1        -0.00079  -0.00969
  15         D2         0.01551  -0.00163
  16         D3        -0.03264  -0.00082
  17         D4        -0.04815   0.00082
 Eigenvalue     1 is  -1.72D-02 should be greater than     0.000000 Eigenvector:
                          R5        R4        D1        A6        A5
   1                   -0.67624   0.61583  -0.31398  -0.11567  -0.11213
                          A3        A4        A2        A1        R3
   1                   -0.11204   0.09655   0.09653   0.07620  -0.02411
 Angle between quadratic step and forces=  79.69 degrees.
 Linear search not attempted -- first point.
 Iteration  1 RMS(Cart)=  0.00037119 RMS(Int)=  0.00000026
 Iteration  2 RMS(Cart)=  0.00000035 RMS(Int)=  0.00000000
 ITry= 1 IFail=0 DXMaxC= 7.86D-04 DCOld= 1.00D+10 DXMaxT= 3.00D-01 DXLimC= 3.00D+00 Rises=F
 Variable       Old X    -DE/DX   Delta X   Delta X   Delta X     New X
                                 (Linear)    (Quad)   (Total)
    R1        2.04145   0.00000   0.00000  -0.00000  -0.00000   2.04145
    R2        2.04144   0.00000   0.00000   0.00000   0.00000   2.04145
    R3        2.04144   0.00000   0.00000   0.00001   0.00001   2.04145
    R4        2.35613   0.00001   0.00000   0.00018   0.00018   2.35631
    R5        2.85629  -0.00000   0.00000  -0.00018  -0.00018   2.85611
    A1        1.98984   0.00000   0.00000   0.00003   0.00003   1.98986
    A2        1.98987  -0.00000   0.00000   0.00000   0.00000   1.98987
    A3        1.82258   0.00000   0.00000  -0.00002  -0.00002   1.82256
    A4        1.98987   0.00000   0.00000   0.00001   0.00001   1.98987
    A5        1.82252  -0.00000   0.00000   0.00004   0.00004   1.82256
    A6        1.82262   0.00000   0.00000  -0.00006  -0.00006   1.82256
    A7        3.14116   0.00000   0.00000   0.00043   0.00043   3.14159
    A8        3.14323  -0.00000   0.00000  -0.00163  -0.00163   3.14160
    D1       -2.32686   0.00000   0.00000  -0.00005  -0.00005  -2.32690
    D2        2.09435   0.00000   0.00000   0.00004   0.00004   2.09439
    D3       -2.09443   0.00000   0.00000   0.00004   0.00004  -2.09440
    D4        2.09440  -0.00000   0.00000  -0.00000  -0.00000   2.09440
         Item               Value     Threshold  Converged?
 Maximum Force            0.000006     0.000450     YES
 RMS     Force            0.000002     0.000300     YES
 Maximum Displacement     0.000786     0.001800     YES
 RMS     Displacement     0.000371     0.001200     YES
 Predicted change in Energy=-2.516538D-09
 Optimization completed.
    -- Stationary point found.
                           ----------------------------
                           !   Optimized Parameters   !
                           ! (Angstroms and Degrees)  !
 --------------------------                            --------------------------
 ! Name  Definition              Value          Derivative Info.                !
 --------------------------------------------------------------------------------
 ! R1    R(1,2)                  1.0803         -DE/DX =    0.0                 !
 ! R2    R(1,3)                  1.0803         -DE/DX =    0.0                 !
 ! R3    R(1,4)                  1.0803         -DE/DX =    0.0                 !
 ! R4    R(1,5)                  1.2468         -DE/DX =    0.0                 !
 ! R5    R(5,6)                  1.5115         -DE/DX =    0.0                 !
 ! A1    A(2,1,3)              114.0093         -DE/DX =    0.0                 !
 ! A2    A(2,1,4)              114.0113         -DE/DX =    0.0                 !
 ! A3    A(2,1,5)              104.4262         -DE/DX =    0.0                 !
 ! A4    A(3,1,4)              114.0109         -DE/DX =    0.0                 !
 ! A5    A(3,1,5)              104.4228         -DE/DX =    0.0                 !
 ! A6    A(4,1,5)              104.4285         -DE/DX =    0.0                 !
 ! A7    L(1,5,6,2,-1)         179.9752         -DE/DX =    0.0                 !
 ! A8    L(1,5,6,2,-2)         180.0937         -DE/DX =    0.0                 !
 ! D1    D(2,1,4,3)           -133.3191         -DE/DX =    0.0                 !
 ! D2    D(2,1,5,3)            119.9974         -DE/DX =    0.0                 !
 ! D3    D(2,1,5,4)           -120.0023         -DE/DX =    0.0                 !
 ! D4    D(3,1,5,4)            120.0003         -DE/DX =    0.0                 !
 --------------------------------------------------------------------------------
 GradGradGradGradGradGradGradGradGradGradGradGradGradGradGradGradGradGrad

 Leave Link  103 at Wed Oct 21 14:47:05 2020, MaxMem=  2684354560 cpu:               1.5 elap:               0.3
 (Enter /udrive/faculty/rpeverati/g16/g16/l9999.exe)

 ----------------------------------------------------------------------

 Electric dipole moment (input orientation):
 (Debye = 10**-18 statcoulomb cm , SI units = C m)
                  (au)            (Debye)         (10**-30 SI)
   Tot        0.104196D+01      0.264840D+01      0.883411D+01
   x         -0.103060D+01     -0.261952D+01     -0.873777D+01
   y          0.938773D-01      0.238612D+00      0.795925D+00
   z          0.121397D+00      0.308560D+00      0.102925D+01

 Dipole polarizability, Alpha (input orientation).
 (esu units = cm**3 , SI units = C**2 m**2 J**-1)
 Alpha(0;0):
               (au)            (10**-24 esu)      (10**-40 SI)
   iso        0.222536D+02      0.329765D+01      0.366913D+01
   aniso      0.428878D+02      0.635531D+01      0.707124D+01
   xx         0.499171D+02      0.739696D+01      0.823022D+01
   yx        -0.382864D+01     -0.567345D+00     -0.631257D+00
   yy         0.799447D+01      0.118466D+01      0.131811D+01
   zx        -0.489436D+01     -0.725269D+00     -0.806971D+00
   zy         0.609711D+00      0.903499D-01      0.100528D+00
   zz         0.884923D+01      0.131132D+01      0.145904D+01

 First dipole hyperpolarizability, Beta (input orientation).
 ||, _|_  parallel and perpendicular components, (z) with respect to z axis,
 vector components x,y,z.  Values do not include the 1/n! factor of 1/2.
 (esu units = statvolt**-1 cm**4 , SI units = C**3 m**3 J**-2)
 Beta(0;0,0):
               (au)            (10**-30 esu)      (10**-50 SI)
   || (z)    -0.182354D+02     -0.157539D+00     -0.584691D-01
   _|_(z)    -0.607845D+01     -0.525131D-01     -0.194897D-01
   x          0.776370D+03      0.670723D+01      0.248932D+01
   y         -0.708942D+02     -0.612471D+00     -0.227312D+00
   z         -0.911768D+02     -0.787696D+00     -0.292346D+00
   ||         0.156983D+03      0.135621D+01      0.503343D+00
   xxx        0.259588D+03      0.224264D+01      0.832332D+00
   xxy       -0.243850D+02     -0.210667D+00     -0.781871D-01
   yxy       -0.135216D+01     -0.116816D-01     -0.433552D-02
   yyy       -0.297685D+00     -0.257177D-02     -0.954487D-03
   xxz       -0.314733D+02     -0.271905D+00     -0.100915D+00
   yxz        0.221617D+01      0.191460D-01      0.710585D-02
   yyz       -0.554090D+01     -0.478690D-01     -0.177661D-01
   zxz        0.554238D+00      0.478819D-02      0.177709D-02
   zyz        0.105128D+01      0.908224D-02      0.337078D-02
   zzz        0.662193D+01      0.572083D-01      0.212323D-01

 ----------------------------------------------------------------------

 Dipole orientation:
     6          0.00721887          0.00427082          3.31156451
     1         -1.03310678         -1.67714821          3.81957207
     1         -0.92825447          1.74562810          3.82152048
     1          1.98356486         -0.05655219          3.81933378
     1          0.00618954          0.00572516          0.95543526
    17          0.00655016          0.00504041         -1.90085865

 Electric dipole moment (dipole orientation):
 (Debye = 10**-18 statcoulomb cm , SI units = C m)
                  (au)            (Debye)         (10**-30 SI)
   Tot        0.104196D+01      0.264840D+01      0.883411D+01
   x          0.000000D+00      0.000000D+00      0.000000D+00
   y          0.000000D+00      0.000000D+00      0.000000D+00
   z          0.104196D+01      0.264840D+01      0.883411D+01

 Dipole polarizability, Alpha (dipole orientation).
 (esu units = cm**3 , SI units = C**2 m**2 J**-1)
 Alpha(0;0):
               (au)            (10**-24 esu)      (10**-40 SI)
   iso        0.222536D+02      0.329765D+01      0.366913D+01
   aniso      0.428878D+02      0.635531D+01      0.707124D+01
   xx         0.829519D+01      0.122922D+01      0.136769D+01
   yx         0.105643D+00      0.156547D-01      0.174182D-01
   yy         0.762308D+01      0.112962D+01      0.125688D+01
   zx         0.312326D-02      0.462820D-03      0.514956D-03
   zy        -0.282791D-02     -0.419053D-03     -0.466260D-03
   zz         0.508426D+02      0.753409D+01      0.838281D+01

 First dipole hyperpolarizability, Beta (dipole orientation).
 ||, _|_  parallel and perpendicular components, (z) with respect to z axis,
 vector components x,y,z.  Values do not include the 1/n! factor of 1/2.
 (esu units = statvolt**-1 cm**4 , SI units = C**3 m**3 J**-2)
 Beta(0;0,0):
               (au)            (10**-30 esu)      (10**-50 SI)
   || (z)    -0.156983D+03     -0.135621D+01     -0.503343D+00
   _|_(z)    -0.523275D+02     -0.452069D+00     -0.167781D+00
   x          0.257100D+00      0.222114D-02      0.824354D-03
   y         -0.197952D+00     -0.171015D-02     -0.634705D-03
   z         -0.784913D+03     -0.678104D+01     -0.251672D+01
   ||         0.156983D+03      0.135621D+01      0.503343D+00
   xxx        0.584908D+01      0.505315D-01      0.187543D-01
   xxy       -0.541852D+00     -0.468118D-02     -0.173737D-02
   yxy       -0.579946D+01     -0.501029D-01     -0.185952D-01
   yyy        0.515901D+00      0.445698D-02      0.165416D-02
   xxz        0.405253D+01      0.350107D-01      0.129939D-01
   yxz        0.189333D+00      0.163569D-02      0.607071D-03
   yyz        0.283671D+01      0.245069D-01      0.909551D-02
   zxz        0.360847D-01      0.311744D-03      0.115701D-03
   zyz       -0.400324D-01     -0.345849D-03     -0.128358D-03
   zzz       -0.268527D+03     -0.231986D+01     -0.860995D+00

 ----------------------------------------------------------------------

 Test job not archived.
 1\1\GINC-NODE53\Freq\UPM7\ZDO\C1H4Cl1(2)\RPEVERATI\21-Oct-2020\0\\#P F
 req PM7 5D 7F Integral=UltraFineGrid SCF=(NoSymm,XQC,MaxCyc=120) IOp(1
 /33=1) Geom=Check Guess=Read\\TS search on BH76.\\0,2\C,-1.7326407909,
 0.1604345727,0.2077444734\H,-2.137694456,-0.7425843073,-0.2252828144\H
 ,-1.9872807101,1.0600238748,-0.3334706721\H,-1.8715270428,0.2361651122
 ,1.2763822382\H,-0.4994336857,0.0488214895,0.0618726569\Cl,0.995563489
 ,-0.0877030654,-0.1140065919\\Version=ES64L-G16RevA.03\State=2-A\HF=0.
 0270775\S2=0.7599\S2-1=0.\S2A=0.750013\RMSD=5.236e-10\RMSF=2.650e-06\Z
 eroPoint=0.0335584\Thermal=0.0382419\Dipole=-1.0305973,0.0938773,0.121
 397\DipoleDeriv=0.659248,-0.1198756,-0.1557525,-0.1191882,-0.6458921,0
 .0130582,-0.156327,0.0131915,-0.6422444,0.0596168,0.0342021,0.0271322,
 0.1681169,0.2162492,-0.0033536,0.096073,0.0062825,0.1968084,0.032028,0
 .000173,0.0294359,-0.1247401,0.2418307,-0.0050408,0.1110852,-0.0272784
 ,0.1988288,0.0125958,0.0164342,0.0095442,0.0072457,0.199196,0.0030548,
 -0.1409453,0.0156256,0.2609123,-1.1481071,0.127588,0.1656265,0.1272633
 ,0.2401308,-0.0138499,0.1659947,-0.0139216,0.2367153,0.3845773,-0.0585
 179,-0.0759813,-0.0586848,-0.2515152,0.00613,-0.0758779,0.0061009,-0.2
 510183\Polar=49.9171328,-3.8286353,7.9944723,-4.8943578,0.6097111,8.84
 92337\HyperPolar=259.5877736,-24.3849894,-1.352163,-0.2976853,-31.4732
 917,2.2161714,-5.5408984,0.5542384,1.0512801,6.621928\PG=C01 [X(C1H4Cl
 1)]\NImag=1\\0.16208851,0.02143668,0.39688521,0.02799075,-0.00253375,0
 .39552727,-0.05334370,-0.06234151,-0.03097264,0.06243463,-0.06167320,-
 0.16779553,-0.06077397,0.07305998,0.19346094,-0.03063097,-0.06072550,-
 0.06925717,0.03556071,0.07482668,0.07272461,-0.03667100,0.03819589,-0.
 02555342,0.00716489,-0.00666595,0.00281266,0.04265563,0.03756960,-0.16
 799718,0.07652111,0.00164154,-0.02405605,0.00863668,-0.04544277,0.1930
 1076,-0.02514514,0.07640990,-0.08572682,0.00116329,-0.00514512,0.00747
 912,0.02861402,-0.09364135,0.09294819,-0.02868481,0.00056784,0.0257307
 2,0.00630331,-0.00197163,-0.00821315,0.00636894,0.00012401,-0.00474109
 ,0.03337319,0.00052219,-0.04120240,-0.01295878,-0.00006191,-0.00170290
 ,-0.02185234,-0.00109900,0.00159426,0.02105918,-0.00150354,0.03805557,
 0.02498389,-0.01289632,-0.22051346,-0.00133523,-0.00733519,-0.01401187
 ,-0.00017844,0.00558714,-0.01737512,-0.03007102,0.01572621,0.25719399,
 0.05879972,-0.00702089,-0.00916344,-0.02647198,-0.00074349,0.00179215,
 -0.02389091,0.00497696,0.00165529,-0.02207600,0.00247545,0.00530861,-0
 .00648250,-0.00709974,-0.01806140,0.00083821,-0.01075717,-0.00013747,-
 0.00121330,0.01432401,-0.00227354,0.00138418,0.00315122,0.00342404,-0.
 00096442,0.00205789,0.01581747,-0.00910269,0.00082338,-0.01763016,-0.0
 0333754,-0.00193146,0.00299688,-0.00443761,0.00304091,0.00255021,0.016
 52396,-0.00190123,-0.00495879,0.00264442,-0.00024168,0.01569551,-0.102
 18501,0.00916175,0.01196773,0.00391198,-0.00200527,-0.00132114,0.00437
 157,0.00113033,-0.00154601,0.00471439,-0.00033315,0.00129181,0.0201207
 6,-0.00167621,-0.00229049,0.06906626,0.00924273,-0.00182732,-0.0010930
 0,-0.00154098,0.00023085,0.00032735,0.00068841,-0.00027871,-0.00006613
 ,-0.00036786,-0.00016877,-0.00011735,-0.00174377,0.00123000,0.00020986
 ,-0.00627847,0.00081431,0.01190380,-0.00107763,-0.00239820,-0.00107854
 ,0.00035881,0.00006836,-0.00125728,-0.00014440,0.00012398,0.00077075,-
 0.00007293,-0.00033512,-0.00223676,0.00019701,0.00134567,-0.00810199,0
 .00073922,0.00119545\\0.00000288,0.00000171,0.00000365,0.00000203,0.00
 000135,-0.00000213,-0.00000079,-0.00000286,0.00000041,0.00000179,0.000
 00076,-0.00000259,-0.00000813,-0.00000033,0.00000066,0.00000222,-0.000
 00063,0.\\\@


 THE MOST SERIOUS THREAT TO THE SURVIVAL OF MANKIND IS NOT NOW
 IGNORANCE IN THE TRADITIONAL SENSE,
 BUT A MORALLY NEUTRAL, AN INSENSITIVE OR INHIBITED HUMAN INTELLIGENCE.

                     -- MARGO JEFFERSON IN NEWSWEEK, SEPTEMBER 2, 1974
 Job cpu time:       0 days  0 hours  0 minutes 54.8 seconds.
 Elapsed time:       0 days  0 hours  0 minutes  8.1 seconds.
 File lengths (MBytes):  RWF=      5 Int=      0 D2E=      0 Chk=      2 Scr=      1
 Normal termination of Gaussian 16 at Wed Oct 21 14:47:05 2020.
