 Entering Gaussian System, Link 0=g16
 Input=MN_87_RKT11_BH76_PM7_SE.in
 Output=MN_87_RKT11_BH76_PM7_SE.log
 Initial command:
 /udrive/faculty/rpeverati/g16/g16/l1.exe "/udrive/scratch-directories/gaussian09/rpeverati/Gau-2526.inp" -scrdir="/udrive/scratch-directories/gaussian09/rpeverati/"
 Entering Link 1 = /udrive/faculty/rpeverati/g16/g16/l1.exe PID=      2542.
  
 Copyright (c) 1988,1990,1992,1993,1995,1998,2003,2009,2016,
            Gaussian, Inc.  All Rights Reserved.
  
 This is part of the Gaussian(R) 16 program.  It is based on
 the Gaussian(R) 09 system (copyright 2009, Gaussian, Inc.),
 the Gaussian(R) 03 system (copyright 2003, Gaussian, Inc.),
 the Gaussian(R) 98 system (copyright 1998, Gaussian, Inc.),
 the Gaussian(R) 94 system (copyright 1995, Gaussian, Inc.),
 the Gaussian 92(TM) system (copyright 1992, Gaussian, Inc.),
 the Gaussian 90(TM) system (copyright 1990, Gaussian, Inc.),
 the Gaussian 88(TM) system (copyright 1988, Gaussian, Inc.),
 the Gaussian 86(TM) system (copyright 1986, Carnegie Mellon
 University), and the Gaussian 82(TM) system (copyright 1983,
 Carnegie Mellon University). Gaussian is a federally registered
 trademark of Gaussian, Inc.
  
 This software contains proprietary and confidential information,
 including trade secrets, belonging to Gaussian, Inc.
  
 This software is provided under written license and may be
 used, copied, transmitted, or stored only in accord with that
 written license.
  
 The following legend is applicable only to US Government
 contracts under FAR:
  
                    RESTRICTED RIGHTS LEGEND
  
 Use, reproduction and disclosure by the US Government is
 subject to restrictions as set forth in subparagraphs (a)
 and (c) of the Commercial Computer Software - Restricted
 Rights clause in FAR 52.227-19.
  
 Gaussian, Inc.
 340 Quinnipiac St., Bldg. 40, Wallingford CT 06492
  
  
 ---------------------------------------------------------------
 Warning -- This program may not be used in any manner that
 competes with the business of Gaussian, Inc. or will provide
 assistance to any competitor of Gaussian, Inc.  The licensee
 of this program is prohibited from giving any competitor of
 Gaussian, Inc. access to this program.  By using this program,
 the user acknowledges that Gaussian, Inc. is engaged in the
 business of creating and licensing software in the field of
 computational chemistry and represents and warrants to the
 licensee that it is not a competitor of Gaussian, Inc. and that
 it will not use this program in any manner prohibited above.
 ---------------------------------------------------------------
  

 Cite this work as:
 Gaussian 16, Revision A.03,
 M. J. Frisch, G. W. Trucks, H. B. Schlegel, G. E. Scuseria, 
 M. A. Robb, J. R. Cheeseman, G. Scalmani, V. Barone, 
 G. A. Petersson, H. Nakatsuji, X. Li, M. Caricato, A. V. Marenich, 
 J. Bloino, B. G. Janesko, R. Gomperts, B. Mennucci, H. P. Hratchian, 
 J. V. Ortiz, A. F. Izmaylov, J. L. Sonnenberg, D. Williams-Young, 
 F. Ding, F. Lipparini, F. Egidi, J. Goings, B. Peng, A. Petrone, 
 T. Henderson, D. Ranasinghe, V. G. Zakrzewski, J. Gao, N. Rega, 
 G. Zheng, W. Liang, M. Hada, M. Ehara, K. Toyota, R. Fukuda, 
 J. Hasegawa, M. Ishida, T. Nakajima, Y. Honda, O. Kitao, H. Nakai, 
 T. Vreven, K. Throssell, J. A. Montgomery, Jr., J. E. Peralta, 
 F. Ogliaro, M. J. Bearpark, J. J. Heyd, E. N. Brothers, K. N. Kudin, 
 V. N. Staroverov, T. A. Keith, R. Kobayashi, J. Normand, 
 K. Raghavachari, A. P. Rendell, J. C. Burant, S. S. Iyengar, 
 J. Tomasi, M. Cossi, J. M. Millam, M. Klene, C. Adamo, R. Cammi, 
 J. W. Ochterski, R. L. Martin, K. Morokuma, O. Farkas, 
 J. B. Foresman, and D. J. Fox, Gaussian, Inc., Wallingford CT, 2016.
 
 ******************************************
 Gaussian 16:  ES64L-G16RevA.03 25-Dec-2016
                21-Oct-2020 
 ******************************************
 %NoSave
 %nproc=12
 Will use up to   12 processors via shared memory.
 %mem=20GB
 %chk=MN_87_RKT11_BH76_PM7_SE
 ----------------------------------------------------------------------
 #P Opt(TS,MaxCyc=50,NoEigenTest,MaxStep=10,AddRedundant) PM7 5D 7F Int
 egral=UltraFineGrid SCF=(NoSymm,XQC,MaxCyc=120) IOp(1/33=1)
 ----------------------------------------------------------------------
 1/5=1,6=50,8=10,11=1,18=120,26=1,33=1,38=1/1,3;
 2/9=110,12=2,17=6,18=5,40=1/2;
 3/5=2,8=11,25=1,41=4200000,71=1,75=-5/1,2,3;
 4/9=2,35=1/1;
 5/5=2,7=120,8=3,13=1,35=1,38=5/2,8;
 6/7=2,8=2,9=2,10=2,28=1/1;
 7//1,2,3,16;
 1/5=1,6=50,8=10,11=1,18=20,26=1,33=1/3(2);
 2/9=110/2;
 99//99;
 2/9=110/2;
 3/5=2,8=11,25=1,41=4200000,71=1,75=-5,135=20/1,2,3;
 4/5=5,9=2,16=3,35=1/1;
 5/5=2,7=120,8=3,13=1,35=1,38=5/2,8;
 7//1,2,3,16;
 1/5=1,6=50,8=10,11=1,18=20,26=1,33=1/3(-5);
 2/9=110/2;
 6/7=2,8=2,9=2,10=2,19=2,28=1/1;
 99/9=1/99;
 Leave Link    1 at Wed Oct 21 14:40:16 2020, MaxMem=  2684354560 cpu:               7.4 elap:               0.7
 (Enter /udrive/faculty/rpeverati/g16/g16/l101.exe)
 ONIOM data not found on unit 2.
 ------------------
 TS search on BH76.
 ------------------
 TstMul:  ICh=     0
 TstMul:  Mul=     3
 TstMul:  ICh=     0
 TstMul:  Mul=     3
 Symbolic Z-matrix:
 Charge =  0 Multiplicity = 3
 C                     0.00029  -1.14229   0. 
 H                    -1.05596  -1.38474   0. 
 H                     0.52017  -1.40739   0.91245 
 H                     0.52017  -1.40739  -0.91245 
 H                     0.01156   0.1601    0. 
 O                     0.00029   1.36164   0. 
 
 RdStrC is calling ZToCFu for IStruc=1 NZ=     6.
 PrtBox:  NBox=     1 Levels=  1 BoxLen=    8.00 SMaxX=        5.23
          Shift=            1.995470            2.659580            1.724280
 Box      1 Number                   0 centers from      1 to      6:
 After GenITR:
 ITRead=  0  0  0  0  0  0
 MicOpt= -1 -1 -1 -1 -1 -1
 Add virtual bond connecting atoms O6         and H5         Dist= 2.27D+00.
 Add virtual bond connecting atoms H5         and C1         Dist= 2.46D+00.
 The following ModRedundant input section has been read:
 
 ITRead=  0  0  0  0  0  0
 MicOpt= -1 -1 -1 -1 -1 -1
 NAtoms=      6 NQM=        6 NQMF=       0 NMMI=      0 NMMIF=      0
                NMic=       0 NMicF=      0.
                    Isotopes and Nuclear Properties:
 (Nuclear quadrupole moments (NQMom) in fm**2, nuclear magnetic moments (NMagM)
  in nuclear magnetons)

  Atom         1           2           3           4           5           6
 IAtWgt=          12           1           1           1           1          16
 AtmWgt=  12.0000000   1.0078250   1.0078250   1.0078250   1.0078250  15.9949146
 NucSpn=           0           1           1           1           1           0
 AtZEff=   0.0000000   0.0000000   0.0000000   0.0000000   0.0000000   0.0000000
 NQMom=    0.0000000   0.0000000   0.0000000   0.0000000   0.0000000   0.0000000
 NMagM=    0.0000000   2.7928460   2.7928460   2.7928460   2.7928460   0.0000000
 AtZNuc=   6.0000000   1.0000000   1.0000000   1.0000000   1.0000000   8.0000000
 No MM parameters found.
 Leave Link  101 at Wed Oct 21 14:40:17 2020, MaxMem=  2684354560 cpu:               9.8 elap:               1.1
 (Enter /udrive/faculty/rpeverati/g16/g16/l103.exe)

 GradGradGradGradGradGradGradGradGradGradGradGradGradGradGradGradGradGrad
 Berny optimization.
 Optmz: redundant internal coordinate code flag= 1
 Initialization pass.
                           ----------------------------
                           !    Initial Parameters    !
                           ! (Angstroms and Degrees)  !
 --------------------------                            --------------------------
 ! Name  Definition              Value          Derivative Info.                !
 --------------------------------------------------------------------------------
 ! R1    R(1,2)                  1.0837         estimate D2E/DX2                !
 ! R2    R(1,3)                  1.0831         estimate D2E/DX2                !
 ! R3    R(1,4)                  1.0831         estimate D2E/DX2                !
 ! R4    R(1,5)                  1.3024         estimate D2E/DX2                !
 ! R5    R(5,6)                  1.2016         estimate D2E/DX2                !
 ! A1    A(2,1,3)              114.3975         estimate D2E/DX2                !
 ! A2    A(2,1,4)              114.3975         estimate D2E/DX2                !
 ! A3    A(2,1,5)              103.4234         estimate D2E/DX2                !
 ! A4    A(3,1,4)              114.7971         estimate D2E/DX2                !
 ! A5    A(3,1,5)              103.9219         estimate D2E/DX2                !
 ! A6    A(4,1,5)              103.9219         estimate D2E/DX2                !
 ! A7    L(1,5,6,2,-1)         178.9668         estimate D2E/DX2                !
 ! A8    L(1,5,6,2,-2)         180.0            estimate D2E/DX2                !
 ! D1    D(2,1,4,3)           -135.1686         estimate D2E/DX2                !
 ! D2    D(2,1,5,3)            119.7805         estimate D2E/DX2                !
 ! D3    D(2,1,5,4)           -119.7805         estimate D2E/DX2                !
 ! D4    D(3,1,5,4)            120.4391         estimate D2E/DX2                !
 --------------------------------------------------------------------------------
 Maximum allowed force set to 1.00D+20.
 Trust Radius=1.00D-01 FncErr=1.00D-07 GrdErr=1.00D-07 EigMax=2.50D+02 EigMin=1.00D-04
 Number of steps in this run=     50 maximum allowed number of steps=    100.
 Search for a saddle point of order  1.
 GradGradGradGradGradGradGradGradGradGradGradGradGradGradGradGradGradGrad

 Leave Link  103 at Wed Oct 21 14:40:19 2020, MaxMem=  2684354560 cpu:               2.1 elap:               0.9
 (Enter /udrive/faculty/rpeverati/g16/g16/l202.exe)
                          Input orientation:                          
 ---------------------------------------------------------------------
 Center     Atomic      Atomic             Coordinates (Angstroms)
 Number     Number       Type             X           Y           Z
 ---------------------------------------------------------------------
      1          6           0        0.000290   -1.142287    0.000000
      2          1           0       -1.055957   -1.384735    0.000000
      3          1           0        0.520167   -1.407389    0.912450
      4          1           0        0.520167   -1.407389   -0.912450
      5          1           0        0.011560    0.160099    0.000000
      6          8           0        0.000290    1.361642    0.000000
 ---------------------------------------------------------------------
                    Distance matrix (angstroms):
                    1          2          3          4          5
     1  C    0.000000
     2  H    1.083715   0.000000
     3  H    1.083105   1.821331   0.000000
     4  H    1.083105   1.821331   1.824899   0.000000
     5  H    1.302435   1.877793   1.883684   1.883684   0.000000
     6  O    2.503929   2.942489   2.961481   2.961481   1.201596
                    6
     6  O    0.000000
 Stoichiometry    CH4O(3)
 Framework group  CS[SG(CH2O),X(H2)]
 Deg. of freedom     8
 Full point group                 CS      NOp   2
 Largest Abelian subgroup         CS      NOp   2
 Largest concise Abelian subgroup CS      NOp   2
                         Standard orientation:                         
 ---------------------------------------------------------------------
 Center     Atomic      Atomic             Coordinates (Angstroms)
 Number     Number       Type             X           Y           Z
 ---------------------------------------------------------------------
      1          6           0        0.000290   -1.142287    0.000000
      2          1           0       -1.055957   -1.384735    0.000000
      3          1           0        0.520168   -1.407389    0.912450
      4          1           0        0.520168   -1.407389   -0.912450
      5          1           0        0.011560    0.160099   -0.000000
      6          8           0        0.000290    1.361642   -0.000000
 ---------------------------------------------------------------------
 Rotational constants (GHZ):         150.9743796           9.6384202           9.6367904
 Leave Link  202 at Wed Oct 21 14:40:20 2020, MaxMem=  2684354560 cpu:               2.2 elap:               0.8
 (Enter /udrive/faculty/rpeverati/g16/g16/l301.exe)
 Standard basis: VSTO-6G (5D, 7F)
 Ernie: Thresh=  0.10000D-02 Tol=  0.10000D-05 Strict=F.
 EHB=        -0.001169056 Number of Hydrogen Bonds=     4
  NNHCO=     0 NNPyr=     0 NCTC=     0               EPep=         0.000000000
    EC=        16.651005197  ECS=         0.675703128   EG=         0.139098483
   EHC=         0.000130855  EAt=       -16.570361081  AtH=         0.699363146
 EPDDG=         0.000000000  ECC=        17.465937662 EAtT=        17.269724227
  EHyb=        -0.001169056
 There are     9 symmetry adapted cartesian basis functions of A'  symmetry.
 There are     3 symmetry adapted cartesian basis functions of A"  symmetry.
 There are     9 symmetry adapted basis functions of A'  symmetry.
 There are     3 symmetry adapted basis functions of A"  symmetry.
    12 basis functions,    72 primitive gaussians,    12 cartesian basis functions
     8 alpha electrons        6 beta electrons
       nuclear repulsion energy        34.7344928327 Hartrees.
 IExCor=    0 DFT=F Ex=HF Corr=None ExCW=0 ScaHFX=  1.000000
 ScaDFX=  1.000000  1.000000  1.000000  1.000000 ScalE2=  1.000000  1.000000
 IRadAn=      5 IRanWt=     -1 IRanGd=            0 ICorTp=0 IEmpDi=251
 Integral buffers will be    131072 words long.
 Regular integral format.
 Two-electron integral symmetry is turned off.
 R6Disp:  PM7 Dispersion energy=       -0.0000717488 Hartrees.
 Nuclear repulsion after empirical dispersion term =       34.7344210839 Hartrees.
 Leave Link  301 at Wed Oct 21 14:40:21 2020, MaxMem=  2684354560 cpu:               4.2 elap:               1.0
 (Enter /udrive/faculty/rpeverati/g16/g16/l302.exe)
 Do NDO integrals.
 NPDir=0 NMtPBC=     1 NCelOv=     1 NCel=       1 NClECP=     1 NCelD=      1
         NCelK=      1 NCelE2=     1 NClLst=     1 CellRange=     0.0.
 One-electron integrals computed using PRISM.
 NBasis=    12 RedAO= T EigKep=  1.00D+00  NBF=     9     3
 NBsUse=    12 1.00D-06 EigRej= -1.00D+00 NBFU=     9     3
 Leave Link  302 at Wed Oct 21 14:40:22 2020, MaxMem=  2684354560 cpu:               4.3 elap:               0.9
 (Enter /udrive/faculty/rpeverati/g16/g16/l303.exe)
 DipDrv:  MaxL=1.
 Leave Link  303 at Wed Oct 21 14:40:23 2020, MaxMem=  2684354560 cpu:               3.0 elap:               0.9
 (Enter /udrive/faculty/rpeverati/g16/g16/l401.exe)
 SCF N**3 symmetry information disabled.
 Simple Huckel Guess.
 JPrj=0 DoOrth=F DoCkMO=F.
 Initial guess orbital symmetries:
 Alpha Orbitals:
       Occupied  (A') (A') (A") (A') (A') (A") (A') (A')
       Virtual   (A') (A") (A') (A')
 Beta  Orbitals:
       Occupied  (A') (A') (A") (A') (A') (A")
       Virtual   (A') (A') (A') (A") (A') (A')
 The electronic state of the initial guess is 3-A'.
 Initial guess <Sx>= 0.0000 <Sy>= 0.0000 <Sz>= 1.0000 <S**2>= 2.0000 S= 1.0000
 Leave Link  401 at Wed Oct 21 14:40:25 2020, MaxMem=  2684354560 cpu:               2.7 elap:               0.8
 (Enter /udrive/faculty/rpeverati/g16/g16/l502.exe)
 Keep J ints in memory in canonical form, NReq=859461.
 FoFCou: FMM=F IPFlag=           0 FMFlag=           0 FMFlg1=           0
         NFxFlg=           0 DoJE=F BraDBF=F KetDBF=F FulRan=T
         wScrn=  0.000000 ICntrl=       600 IOpCl=  2 I1Cent=           0 NGrid=           0
         NMat0=    1 NMatS0=     24 NMatT0=    0 NMatD0=    1 NMtDS0=    0 NMtDT0=    0
 Symmetry not used in FoFCou.
 Two-electron integral symmetry not used.
 UHF open shell SCF:
 Using DIIS extrapolation, IDIIS=  1040.
 Overlap will be assumed to be unity.
 NGot=  2684354560 LenX=  2684293796 LenY=  2684292914
 Requested convergence on RMS density matrix=1.00D-08 within 120 cycles.
 Requested convergence on MAX density matrix=1.00D-06.
 Requested convergence on             energy=1.00D-06.
 No special actions if energy rises.

 Cycle   1  Pass 1  IDiag  1:
 E= 0.170223848006266    
 DIIS: error= 6.63D-02 at cycle   1 NSaved=   1.
 NSaved= 1 IEnMin= 1 EnMin= 0.170223848006266     IErMin= 1 ErrMin= 6.63D-02
 ErrMax= 6.63D-02  0.00D+00 EMaxC= 1.00D-01 BMatC= 1.15D-01 BMatP= 1.15D-01
 IDIUse=3 WtCom= 3.37D-01 WtEn= 6.63D-01
 Coeff-Com:  0.100D+01
 Coeff-En:   0.100D+01
 Coeff:      0.100D+01
 GapD=    2.000 DampG=2.000 DampE=0.500 DampFc=1.0000 IDamp=-1.
 RMSDP=2.06D-02 MaxDP=9.74D-02              OVMax= 0.00D+00

 Cycle   2  Pass 1  IDiag  1:
 E= 0.946241992096120E-01 Delta-E=       -0.075599648797 Rises=F Damp=F
 DIIS: error= 1.60D-02 at cycle   2 NSaved=   2.
 NSaved= 2 IEnMin= 2 EnMin= 0.946241992096120E-01 IErMin= 2 ErrMin= 1.60D-02
 ErrMax= 1.60D-02  0.00D+00 EMaxC= 1.00D-01 BMatC= 1.03D-02 BMatP= 1.15D-01
 IDIUse=3 WtCom= 8.40D-01 WtEn= 1.60D-01
 Coeff-Com: -0.361D+00 0.136D+01
 Coeff-En:   0.000D+00 0.100D+01
 Coeff:     -0.304D+00 0.130D+01
 RMSDP=9.43D-03 MaxDP=6.73D-02 DE=-7.56D-02 OVMax= 0.00D+00

 Cycle   3  Pass 1  IDiag  3:
 E= 0.854447173453039E-01 Delta-E=       -0.009179481864 Rises=F Damp=F
 DIIS: error= 4.52D-03 at cycle   3 NSaved=   3.
 NSaved= 3 IEnMin= 3 EnMin= 0.854447173453039E-01 IErMin= 3 ErrMin= 4.52D-03
 ErrMax= 4.52D-03  0.00D+00 EMaxC= 1.00D-01 BMatC= 5.36D-04 BMatP= 1.03D-02
 IDIUse=3 WtCom= 9.55D-01 WtEn= 4.52D-02
 Coeff-Com:  0.235D+00-0.958D+00 0.172D+01
 Coeff-En:   0.000D+00 0.000D+00 0.100D+01
 Coeff:      0.225D+00-0.914D+00 0.169D+01
 Gap=     0.561 Goal=   None    Shift=    0.000
 Gap=     0.336 Goal=   None    Shift=    0.000
 RMSDP=3.31D-03 MaxDP=3.01D-02 DE=-9.18D-03 OVMax= 2.43D-02

 Cycle   4  Pass 1  IDiag  3:
 E= 0.846748560036374E-01 Delta-E=       -0.000769861342 Rises=F Damp=F
 DIIS: error= 9.44D-04 at cycle   4 NSaved=   4.
 NSaved= 4 IEnMin= 4 EnMin= 0.846748560036374E-01 IErMin= 4 ErrMin= 9.44D-04
 ErrMax= 9.44D-04  0.00D+00 EMaxC= 1.00D-01 BMatC= 3.14D-05 BMatP= 5.36D-04
 IDIUse=3 WtCom= 9.91D-01 WtEn= 9.44D-03
 Coeff-Com: -0.439D-01 0.173D+00-0.543D+00 0.141D+01
 Coeff-En:   0.000D+00 0.000D+00 0.000D+00 0.100D+01
 Coeff:     -0.435D-01 0.171D+00-0.538D+00 0.141D+01
 Gap=     0.564 Goal=   None    Shift=    0.000
 Gap=     0.336 Goal=   None    Shift=    0.000
 RMSDP=1.03D-03 MaxDP=9.39D-03 DE=-7.70D-04 OVMax= 9.30D-03

 Cycle   5  Pass 1  IDiag  3:
 E= 0.846191049424263E-01 Delta-E=       -0.000055751061 Rises=F Damp=F
 DIIS: error= 3.46D-04 at cycle   5 NSaved=   5.
 NSaved= 5 IEnMin= 5 EnMin= 0.846191049424263E-01 IErMin= 5 ErrMin= 3.46D-04
 ErrMax= 3.46D-04  0.00D+00 EMaxC= 1.00D-01 BMatC= 2.83D-06 BMatP= 3.14D-05
 IDIUse=3 WtCom= 9.97D-01 WtEn= 3.46D-03
 Coeff-Com:  0.704D-02-0.229D-01 0.193D+00-0.873D+00 0.170D+01
 Coeff-En:   0.000D+00 0.000D+00 0.000D+00 0.000D+00 0.100D+01
 Coeff:      0.702D-02-0.228D-01 0.192D+00-0.870D+00 0.169D+01
 Gap=     0.564 Goal=   None    Shift=    0.000
 Gap=     0.336 Goal=   None    Shift=    0.000
 RMSDP=3.41D-04 MaxDP=2.31D-03 DE=-5.58D-05 OVMax= 3.17D-03

 Cycle   6  Pass 1  IDiag  3:
 E= 0.846129547390575E-01 Delta-E=       -0.000006150203 Rises=F Damp=F
 DIIS: error= 1.25D-04 at cycle   6 NSaved=   6.
 NSaved= 6 IEnMin= 6 EnMin= 0.846129547390575E-01 IErMin= 6 ErrMin= 1.25D-04
 ErrMax= 1.25D-04  0.00D+00 EMaxC= 1.00D-01 BMatC= 4.57D-07 BMatP= 2.83D-06
 IDIUse=3 WtCom= 9.99D-01 WtEn= 1.25D-03
 Coeff-Com:  0.205D-02-0.149D-01-0.110D+00 0.746D+00-0.178D+01 0.216D+01
 Coeff-En:   0.000D+00 0.000D+00 0.000D+00 0.000D+00 0.000D+00 0.100D+01
 Coeff:      0.205D-02-0.149D-01-0.110D+00 0.745D+00-0.178D+01 0.216D+01
 Gap=     0.564 Goal=   None    Shift=    0.000
 Gap=     0.336 Goal=   None    Shift=    0.000
 RMSDP=1.79D-04 MaxDP=1.24D-03 DE=-6.15D-06 OVMax= 1.51D-03

 Cycle   7  Pass 1  IDiag  3:
 E= 0.846117480047610E-01 Delta-E=       -0.000001206734 Rises=F Damp=F
 DIIS: error= 4.35D-05 at cycle   7 NSaved=   7.
 NSaved= 7 IEnMin= 7 EnMin= 0.846117480047610E-01 IErMin= 7 ErrMin= 4.35D-05
 ErrMax= 4.35D-05  0.00D+00 EMaxC= 1.00D-01 BMatC= 3.60D-08 BMatP= 4.57D-07
 IDIUse=1 WtCom= 1.00D+00 WtEn= 0.00D+00
 Coeff-Com:  0.298D-03 0.238D-02 0.634D-01-0.378D+00 0.885D+00-0.127D+01
 Coeff-Com:  0.170D+01
 Coeff:      0.298D-03 0.238D-02 0.634D-01-0.378D+00 0.885D+00-0.127D+01
 Coeff:      0.170D+01
 Gap=     0.564 Goal=   None    Shift=    0.000
 Gap=     0.336 Goal=   None    Shift=    0.000
 RMSDP=5.23D-05 MaxDP=3.51D-04 DE=-1.21D-06 OVMax= 4.32D-04

 Cycle   8  Pass 1  IDiag  3:
 E= 0.846116576327987E-01 Delta-E=       -0.000000090372 Rises=F Damp=F
 DIIS: error= 7.65D-06 at cycle   8 NSaved=   8.
 NSaved= 8 IEnMin= 8 EnMin= 0.846116576327987E-01 IErMin= 8 ErrMin= 7.65D-06
 ErrMax= 7.65D-06  0.00D+00 EMaxC= 1.00D-01 BMatC= 2.30D-09 BMatP= 3.60D-08
 IDIUse=1 WtCom= 1.00D+00 WtEn= 0.00D+00
 Coeff-Com: -0.110D-03-0.776D-03-0.201D-01 0.119D+00-0.265D+00 0.388D+00
 Coeff-Com: -0.763D+00 0.154D+01
 Coeff:     -0.110D-03-0.776D-03-0.201D-01 0.119D+00-0.265D+00 0.388D+00
 Coeff:     -0.763D+00 0.154D+01
 Gap=     0.564 Goal=   None    Shift=    0.000
 Gap=     0.336 Goal=   None    Shift=    0.000
 RMSDP=1.08D-05 MaxDP=6.66D-05 DE=-9.04D-08 OVMax= 8.05D-05

 Cycle   9  Pass 1  IDiag  3:
 E= 0.846116534199481E-01 Delta-E=       -0.000000004213 Rises=F Damp=F
 DIIS: error= 1.55D-06 at cycle   9 NSaved=   9.
 NSaved= 9 IEnMin= 9 EnMin= 0.846116534199481E-01 IErMin= 9 ErrMin= 1.55D-06
 ErrMax= 1.55D-06  0.00D+00 EMaxC= 1.00D-01 BMatC= 1.52D-10 BMatP= 2.30D-09
 IDIUse=1 WtCom= 1.00D+00 WtEn= 0.00D+00
 Coeff-Com: -0.529D-05 0.230D-03 0.239D-02-0.149D-01 0.283D-01-0.396D-01
 Coeff-Com:  0.155D+00-0.592D+00 0.146D+01
 Coeff:     -0.529D-05 0.230D-03 0.239D-02-0.149D-01 0.283D-01-0.396D-01
 Coeff:      0.155D+00-0.592D+00 0.146D+01
 Gap=     0.564 Goal=   None    Shift=    0.000
 Gap=     0.336 Goal=   None    Shift=    0.000
 RMSDP=1.74D-06 MaxDP=9.79D-06 DE=-4.21D-09 OVMax= 9.98D-06

 Cycle  10  Pass 1  IDiag  3:
 E= 0.846116532016694E-01 Delta-E=       -0.000000000218 Rises=F Damp=F
 DIIS: error= 4.21D-07 at cycle  10 NSaved=  10.
 NSaved=10 IEnMin=10 EnMin= 0.846116532016694E-01 IErMin=10 ErrMin= 4.21D-07
 ErrMax= 4.21D-07  0.00D+00 EMaxC= 1.00D-01 BMatC= 1.35D-11 BMatP= 1.52D-10
 IDIUse=1 WtCom= 1.00D+00 WtEn= 0.00D+00
 Coeff-Com:  0.112D-04-0.609D-04 0.358D-03-0.173D-02 0.694D-02-0.120D-01
 Coeff-Com: -0.189D-01 0.175D+00-0.794D+00 0.164D+01
 Coeff:      0.112D-04-0.609D-04 0.358D-03-0.173D-02 0.694D-02-0.120D-01
 Coeff:     -0.189D-01 0.175D+00-0.794D+00 0.164D+01
 Gap=     0.564 Goal=   None    Shift=    0.000
 Gap=     0.336 Goal=   None    Shift=    0.000
 RMSDP=6.70D-07 MaxDP=3.45D-06 DE=-2.18D-10 OVMax= 3.48D-06

 Cycle  11  Pass 1  IDiag  3:
 E= 0.846116531806942E-01 Delta-E=       -0.000000000021 Rises=F Damp=F
 DIIS: error= 5.16D-08 at cycle  11 NSaved=  11.
 NSaved=11 IEnMin=11 EnMin= 0.846116531806942E-01 IErMin=11 ErrMin= 5.16D-08
 ErrMax= 5.16D-08  0.00D+00 EMaxC= 1.00D-01 BMatC= 2.29D-13 BMatP= 1.35D-11
 IDIUse=1 WtCom= 1.00D+00 WtEn= 0.00D+00
 Coeff-Com: -0.137D-05 0.199D-04 0.815D-05-0.129D-03-0.103D-02 0.255D-02
 Coeff-Com:  0.113D-01-0.779D-01 0.337D+00-0.741D+00 0.147D+01
 Coeff:     -0.137D-05 0.199D-04 0.815D-05-0.129D-03-0.103D-02 0.255D-02
 Coeff:      0.113D-01-0.779D-01 0.337D+00-0.741D+00 0.147D+01
 Gap=     0.564 Goal=   None    Shift=    0.000
 Gap=     0.336 Goal=   None    Shift=    0.000
 RMSDP=6.74D-08 MaxDP=3.85D-07 DE=-2.10D-11 OVMax= 3.90D-07

 Cycle  12  Pass 1  IDiag  3:
 E= 0.846116531803887E-01 Delta-E=       -0.000000000000 Rises=F Damp=F
 DIIS: error= 1.57D-08 at cycle  12 NSaved=  12.
 NSaved=12 IEnMin=12 EnMin= 0.846116531803887E-01 IErMin=12 ErrMin= 1.57D-08
 ErrMax= 1.57D-08  0.00D+00 EMaxC= 1.00D-01 BMatC= 1.22D-14 BMatP= 2.29D-13
 IDIUse=1 WtCom= 1.00D+00 WtEn= 0.00D+00
 Coeff-Com:  0.513D-06-0.737D-05 0.502D-04-0.268D-03 0.143D-02-0.273D-02
 Coeff-Com: -0.475D-02 0.433D-01-0.201D+00 0.459D+00-0.103D+01 0.173D+01
 Coeff:      0.513D-06-0.737D-05 0.502D-04-0.268D-03 0.143D-02-0.273D-02
 Coeff:     -0.475D-02 0.433D-01-0.201D+00 0.459D+00-0.103D+01 0.173D+01
 Gap=     0.564 Goal=   None    Shift=    0.000
 Gap=     0.336 Goal=   None    Shift=    0.000
 RMSDP=2.01D-08 MaxDP=1.03D-07 DE=-3.06D-13 OVMax= 1.87D-07

 Cycle  13  Pass 1  IDiag  3:
 E= 0.846116531803958E-01 Delta-E=        0.000000000000 Rises=F Damp=F
 DIIS: error= 5.61D-09 at cycle  13 NSaved=  13.
 NSaved=13 IEnMin=12 EnMin= 0.846116531803887E-01 IErMin=13 ErrMin= 5.61D-09
 ErrMax= 5.61D-09  0.00D+00 EMaxC= 1.00D-01 BMatC= 8.49D-16 BMatP= 1.22D-14
 IDIUse=1 WtCom= 1.00D+00 WtEn= 0.00D+00
 Coeff-Com: -0.297D-06 0.337D-05-0.427D-04 0.237D-03-0.101D-02 0.185D-02
 Coeff-Com:  0.217D-02-0.236D-01 0.113D+00-0.263D+00 0.601D+00-0.120D+01
 Coeff-Com:  0.177D+01
 Coeff:     -0.297D-06 0.337D-05-0.427D-04 0.237D-03-0.101D-02 0.185D-02
 Coeff:      0.217D-02-0.236D-01 0.113D+00-0.263D+00 0.601D+00-0.120D+01
 Coeff:      0.177D+01
 Gap=     0.564 Goal=   None    Shift=    0.000
 Gap=     0.336 Goal=   None    Shift=    0.000
 RMSDP=7.10D-09 MaxDP=4.27D-08 DE= 7.11D-15 OVMax= 7.73D-08

 Cycle  14  Pass 2  IDiag  1:
 SCF Done:  E(UPM7) =  0.846116531804E-01 A.U. after   14 cycles
            NFock= 13  Conv=0.71D-08     -V/T= 1.0030
 <Sx>= 0.0000 <Sy>= 0.0000 <Sz>= 1.0000 <S**2>= 2.0237 S= 1.0079
 <L.S>= 0.000000000000E+00
 KE=-2.822625547169D+01 PE=-3.230794652642D+01 EE= 2.588439256739D+01
 Annihilation of the first spin contaminant:
 S**2 before annihilation     2.0237,   after     2.0000
 Leave Link  502 at Wed Oct 21 14:40:26 2020, MaxMem=  2684354560 cpu:              10.6 elap:               1.6
 (Enter /udrive/faculty/rpeverati/g16/g16/l508.exe)
 QCSCF skips out because SCF is already converged.
 Leave Link  508 at Wed Oct 21 14:40:27 2020, MaxMem=  2684354560 cpu:               0.8 elap:               0.6
 (Enter /udrive/faculty/rpeverati/g16/g16/l601.exe)
 Copying SCF densities to generalized density rwf, IOpCl= 1 IROHF=0.

 **********************************************************************

            Population analysis using the SCF density.

 **********************************************************************

 Orbital symmetries:
 Alpha Orbitals:
       Occupied  (A') (A') (A') (A") (A') (A') (A") (A')
       Virtual   (A') (A') (A") (A')
 Beta  Orbitals:
       Occupied  (A') (A') (A") (A') (A') (A")
       Virtual   (A') (A') (A') (A') (A") (A')
 The electronic state is 3-A'.
 Alpha  occ. eigenvalues --   -1.11726  -0.92140  -0.59484  -0.54023  -0.54003
 Alpha  occ. eigenvalues --   -0.50552  -0.43600  -0.39409
 Alpha virt. eigenvalues --    0.16949   0.19539   0.19612   0.22639
  Beta  occ. eigenvalues --   -0.93931  -0.81530  -0.53415  -0.53342  -0.51336
  Beta  occ. eigenvalues --   -0.38051
  Beta virt. eigenvalues --   -0.04435  -0.02975   0.19672   0.19972   0.20046
  Beta virt. eigenvalues --    0.23374
          Condensed to atoms (all electrons):
               1          2          3          4          5          6
     1  C    4.461635   0.000000   0.000000   0.000000   0.000000   0.000000
     2  H    0.000000   0.847518   0.000000   0.000000   0.000000   0.000000
     3  H    0.000000   0.000000   0.846852   0.000000   0.000000   0.000000
     4  H    0.000000   0.000000   0.000000   0.846852   0.000000   0.000000
     5  H    0.000000   0.000000   0.000000   0.000000   0.780814   0.000000
     6  O    0.000000   0.000000   0.000000   0.000000   0.000000   6.216329
          Atomic-Atomic Spin Densities.
               1          2          3          4          5          6
     1  C    0.612036   0.000000   0.000000   0.000000   0.000000   0.000000
     2  H    0.000000  -0.015606   0.000000   0.000000   0.000000   0.000000
     3  H    0.000000   0.000000  -0.015482   0.000000   0.000000   0.000000
     4  H    0.000000   0.000000   0.000000  -0.015482   0.000000   0.000000
     5  H    0.000000   0.000000   0.000000   0.000000  -0.127699   0.000000
     6  O    0.000000   0.000000   0.000000   0.000000   0.000000   1.562233
 Mulliken charges and spin densities:
               1          2
     1  C   -0.461635   0.612036
     2  H    0.152482  -0.015606
     3  H    0.153148  -0.015482
     4  H    0.153148  -0.015482
     5  H    0.219186  -0.127699
     6  O   -0.216329   1.562233
 Sum of Mulliken charges =   0.00000   2.00000
 Mulliken charges and spin densities with hydrogens summed into heavy atoms:
               1          2
     1  C   -0.002857   0.565466
     6  O    0.002857   1.434534
 Charge=              0.0000 electrons
 Dipole moment (field-independent basis, Debye):
    X=             -0.0000    Y=             -1.8337    Z=              0.0000  Tot=              1.8337
 N-N= 3.473442108390D+01 E-N=-3.230794652694D+01  KE=-2.822625547169D+01
 Leave Link  601 at Wed Oct 21 14:40:29 2020, MaxMem=  2684354560 cpu:               3.5 elap:               0.9
 (Enter /udrive/faculty/rpeverati/g16/g16/l701.exe)
 ... and contract with generalized density number  0.
 Compute integral first derivatives.
 R6Disp: Adding PM7 dispersion energy 1st derivatives to the gradient.
 Leave Link  701 at Wed Oct 21 14:40:30 2020, MaxMem=  2684354560 cpu:               4.2 elap:               0.9
 (Enter /udrive/faculty/rpeverati/g16/g16/l702.exe)
 L702 exits ... SP integral derivatives will be done elsewhere.
 Leave Link  702 at Wed Oct 21 14:40:31 2020, MaxMem=  2684354560 cpu:               2.4 elap:               0.8
 (Enter /udrive/faculty/rpeverati/g16/g16/l703.exe)
 Integral derivatives from FoFJK, PRISM(SPDF).
 Compute integral first derivatives, UseDBF=F ICtDFT=           0.
 Calling FoFJK, ICntrl=      2127 FMM=F ISym2X=1 I1Cent= 0 IOpClX= 1 NMat=1 NMatS=1 NMatT=0.
 FoFJK:  IHMeth=43 ICntrl=    2127 DoSepK=F KAlg= 0 I1Cent=           0 FoldK=F
 IRaf=         0 NMat=       1 IRICut=       1 DoRegI=T DoRafI=F ISym2E= 1 IDoP0=3 IntGTp=3.
 FoFCou: FMM=F IPFlag=           0 FMFlag=      100000 FMFlg1=         800
         NFxFlg=           0 DoJE=F BraDBF=F KetDBF=F FulRan=T
         wScrn=  0.000000 ICntrl=      2127 IOpCl=  1 I1Cent=           0 NGrid=           0
         NMat0=    1 NMatS0=      1 NMatT0=    0 NMatD0=    1 NMtDS0=    0 NMtDT0=    0
 Petite list used in FoFCou.
 Leave Link  703 at Wed Oct 21 14:40:32 2020, MaxMem=  2684354560 cpu:               3.5 elap:               0.9
 (Enter /udrive/faculty/rpeverati/g16/g16/l716.exe)
 Dipole        =-1.45279748D-05-7.21414248D-01 1.33205429D-15
 ***** Axes restored to original set *****
 -------------------------------------------------------------------
 Center     Atomic                   Forces (Hartrees/Bohr)
 Number     Number              X              Y              Z
 -------------------------------------------------------------------
      1        6          -0.000935074   -0.003780347    0.000000000
      2        1           0.004097964    0.001690618   -0.000000000
      3        1          -0.001726908    0.002033769   -0.003548050
      4        1          -0.001726908    0.002033769    0.003548050
      5        1           0.000219086    0.005180301   -0.000000000
      6        8           0.000071841   -0.007158110    0.000000000
 -------------------------------------------------------------------
 Cartesian Forces:  Max     0.007158110 RMS     0.002909355
 Leave Link  716 at Wed Oct 21 14:40:33 2020, MaxMem=  2684354560 cpu:               2.5 elap:               0.7
 (Enter /udrive/faculty/rpeverati/g16/g16/l103.exe)

 GradGradGradGradGradGradGradGradGradGradGradGradGradGradGradGradGradGrad
 Berny optimization.
 Optmz: redundant internal coordinate code flag= 1
 FormGI is forming the generalized inverse of G from B-inverse, IUseBI=4.
 Internal  Forces:  Max     0.007158469 RMS     0.002593670
 Search for a saddle point.
 Step number   1 out of a maximum of   50
 All quantities printed in internal units (Hartrees-Bohrs-Radians)
 Swapping is turned off.
 Second derivative matrix not updated -- first step.
 The second derivative matrix:
                          R1        R2        R3        R4        R5
           R1           0.35549
           R2           0.00000   0.35622
           R3           0.00000   0.00000   0.35622
           R4           0.00000   0.00000   0.00000   0.18479
           R5           0.00000   0.00000   0.00000   0.00000   0.24549
           A1           0.00000   0.00000   0.00000   0.00000   0.00000
           A2           0.00000   0.00000   0.00000   0.00000   0.00000
           A3           0.00000   0.00000   0.00000   0.00000   0.00000
           A4           0.00000   0.00000   0.00000   0.00000   0.00000
           A5           0.00000   0.00000   0.00000   0.00000   0.00000
           A6           0.00000   0.00000   0.00000   0.00000   0.00000
           A7           0.00000   0.00000   0.00000   0.00000   0.00000
           A8           0.00000   0.00000   0.00000   0.00000   0.00000
           D1           0.00000   0.00000   0.00000   0.00000   0.00000
           D2           0.00000   0.00000   0.00000   0.00000   0.00000
           D3           0.00000   0.00000   0.00000   0.00000   0.00000
           D4           0.00000   0.00000   0.00000   0.00000   0.00000
                          A1        A2        A3        A4        A5
           A1           0.16000
           A2           0.00000   0.16000
           A3           0.00000   0.00000   0.16000
           A4           0.00000   0.00000   0.00000   0.16000
           A5           0.00000   0.00000   0.00000   0.00000   0.16000
           A6           0.00000   0.00000   0.00000   0.00000   0.00000
           A7           0.00000   0.00000   0.00000   0.00000   0.00000
           A8           0.00000   0.00000   0.00000   0.00000   0.00000
           D1           0.00000   0.00000   0.00000   0.00000   0.00000
           D2           0.00000   0.00000   0.00000   0.00000   0.00000
           D3           0.00000   0.00000   0.00000   0.00000   0.00000
           D4           0.00000   0.00000   0.00000   0.00000   0.00000
                          A6        A7        A8        D1        D2
           A6           0.16000
           A7           0.00000   0.00230
           A8           0.00000   0.00000   0.00230
           D1           0.00000   0.00000   0.00000   0.00326
           D2           0.00000   0.00000   0.00000   0.00000   0.00230
           D3           0.00000   0.00000   0.00000   0.00000   0.00000
           D4           0.00000   0.00000   0.00000   0.00000   0.00000
                          D3        D4
           D3           0.00230
           D4           0.00000   0.00230
 ITU=  0
 Eigenvectors of the second derivative matrix:
                           1         2         3         4         5
     Eigenvalues --     0.00230   0.00230   0.05311   0.06734   0.07512
   1         R1         0.00000  -0.00000   0.00000   0.00000  -0.00000
   2         R2        -0.00000  -0.00000   0.00000   0.00000   0.00000
   3         R3        -0.00000   0.00000   0.00000   0.00000   0.00000
   4         R4         0.00000  -0.00000   0.00000   0.00000  -0.00000
   5         R5         0.00000  -0.00000  -0.00000  -0.00000   0.00000
   6         A1         0.00000   0.00000   0.43611  -0.01564   0.24622
   7         A2        -0.00000   0.00000   0.02262   0.42622  -0.34222
   8         A3         0.00000  -0.00000  -0.16116   0.16834   0.28880
   9         A4         0.00000   0.00000   0.00145  -0.42140  -0.34524
  10         A5        -0.00000  -0.00000  -0.17119  -0.15682   0.28371
  11         A6         0.00000   0.00000  -0.27043   0.00684   0.00886
  12         A7        -0.99437   0.10601  -0.00000  -0.00000   0.00000
  13         A8        -0.10601  -0.99437   0.00000   0.00000  -0.00000
  14         D1         0.00000  -0.00000  -0.70815   0.01761   0.37823
  15         D2         0.00000  -0.00000   0.34529  -0.01168   0.51383
  16         D3         0.00000  -0.00000   0.15562  -0.54761   0.25472
  17         D4         0.00000  -0.00000  -0.18967  -0.53593  -0.25911
                           6         7         8         9        10
     Eigenvalues --     0.16000   0.16000   0.18479   0.24549   0.35549
   1         R1         0.00000   0.00000  -0.00000   0.00000  -1.00000
   2         R2        -0.00000   0.00000  -0.00000  -0.00000   0.00000
   3         R3         0.00000  -0.00000   0.00000  -0.00000   0.00000
   4         R4         0.00000   0.00000   1.00000   0.00000  -0.00000
   5         R5        -0.00000   0.00000  -0.00000   1.00000  -0.00000
   6         A1         0.15112  -0.20307  -0.00000   0.00000   0.00000
   7         A2        -0.30569  -0.01279   0.00000  -0.00000  -0.00000
   8         A3         0.32262   0.66519  -0.00000  -0.00000   0.00000
   9         A4         0.09356   0.29917  -0.00000  -0.00000   0.00000
  10         A5        -0.72969  -0.13227   0.00000  -0.00000  -0.00000
  11         A6         0.48830  -0.63963  -0.00000   0.00000   0.00000
  12         A7         0.00000   0.00000   0.00000   0.00000   0.00000
  13         A8         0.00000  -0.00000  -0.00000  -0.00000   0.00000
  14         D1         0.00000  -0.00000   0.00000  -0.00000  -0.00000
  15         D2         0.00000  -0.00000   0.00000  -0.00000  -0.00000
  16         D3         0.00000  -0.00000   0.00000   0.00000   0.00000
  17         D4        -0.00000  -0.00000  -0.00000   0.00000   0.00000
                          11        12
     Eigenvalues --     0.35622   0.35622
   1         R1         0.00000   0.00000
   2         R2         0.71014   0.70406
   3         R3         0.70406  -0.71014
   4         R4        -0.00000   0.00000
   5         R5         0.00000   0.00000
   6         A1        -0.00000   0.00000
   7         A2        -0.00000  -0.00000
   8         A3         0.00000   0.00000
   9         A4         0.00000  -0.00000
  10         A5        -0.00000  -0.00000
  11         A6         0.00000   0.00000
  12         A7        -0.00000  -0.00000
  13         A8         0.00000  -0.00000
  14         D1         0.00000  -0.00000
  15         D2        -0.00000   0.00000
  16         D3         0.00000   0.00000
  17         D4         0.00000  -0.00000
 Eigenvalue     1 is   2.30D-03 should be less than     0.000000 Eigenvector:
                          A7        A8        A3        A5        A6
   1                   -0.99437  -0.10601   0.00000  -0.00000   0.00000
                          D1        A2        R4        R1        R2
   1                    0.00000  -0.00000   0.00000   0.00000  -0.00000
 RLam0= 2.30D-03.
 Iter=   1 RLamda= 0.00000000D+00 Sum=-4.32323234D-04.
 Iter=   2 RLamda=-4.32323234D-04 Sum=-4.31399186D-04.
 Iter=   3 RLamda=-4.31399186D-04 Sum=-4.31401154D-04.
 RFO step:  Lambda0=2.300048992D-03 Lambda=-4.31399186D-04.
 Linear search not attempted -- option 19 set.
 Iteration  1 RMS(Cart)=  0.01907544 RMS(Int)=  0.00033190
 Iteration  2 RMS(Cart)=  0.00033705 RMS(Int)=  0.00003771
 Iteration  3 RMS(Cart)=  0.00000009 RMS(Int)=  0.00003771
 ITry= 1 IFail=0 DXMaxC= 4.18D-02 DCOld= 1.00D+10 DXMaxT= 1.00D-01 DXLimC= 3.00D+00 Rises=F
 ClnCor:  largest displacement from symmetrization is 3.19D-03 for atom     4.
 Variable       Old X    -DE/DX   Delta X   Delta X   Delta X     New X
                                 (Linear)    (Quad)   (Total)
    R1        2.04793  -0.00437   0.00000  -0.01228  -0.01228   2.03564
    R2        2.04677  -0.00432   0.00000  -0.01210  -0.01241   2.03436
    R3        2.04677  -0.00432   0.00000  -0.01210  -0.01241   2.03436
    R4        2.46125  -0.00198   0.00000  -0.01066  -0.01067   2.45058
    R5        2.27069  -0.00716   0.00000  -0.02911  -0.02911   2.24157
    A1        1.99661   0.00020   0.00000   0.00638   0.00664   2.00325
    A2        1.99661   0.00046   0.00000   0.00659   0.00664   2.00325
    A3        1.80508  -0.00001   0.00000  -0.00391  -0.00389   1.80119
    A4        2.00359   0.00036   0.00000   0.00331   0.00392   2.00751
    A5        1.81378  -0.00061   0.00000  -0.00872  -0.00948   1.80429
    A6        1.81378  -0.00072   0.00000  -0.00872  -0.00948   1.80429
    A7        3.12356   0.00001   0.00000  -0.04584  -0.04584   3.07772
    A8        3.14159  -0.00000   0.00000  -0.00530   0.00000   3.14159
    D1       -2.35914  -0.00122   0.00000  -0.02097  -0.02250  -2.38164
    D2        2.09056  -0.00004   0.00000   0.00181   0.00184   2.09240
    D3       -2.09056  -0.00021   0.00000  -0.00204  -0.00184  -2.09240
    D4        2.10206  -0.00017   0.00000  -0.00385  -0.00367   2.09839
         Item               Value     Threshold  Converged?
 Maximum Force            0.007158     0.000450     NO 
 RMS     Force            0.002594     0.000300     NO 
 Maximum Displacement     0.041760     0.001800     NO 
 RMS     Displacement     0.019180     0.001200     NO 
 Predicted change in Energy=-2.133313D-04
 Lowest energy point so far.  Saving SCF results.
 Largest change from initial coordinates is atom    6       0.028 Angstoms.
 GradGradGradGradGradGradGradGradGradGradGradGradGradGradGradGradGradGrad

 Leave Link  103 at Wed Oct 21 14:40:35 2020, MaxMem=  2684354560 cpu:               4.2 elap:               0.9
 (Enter /udrive/faculty/rpeverati/g16/g16/l202.exe)
                          Input orientation:                          
 ---------------------------------------------------------------------
 Center     Atomic      Atomic             Coordinates (Angstroms)
 Number     Number       Type             X           Y           Z
 ---------------------------------------------------------------------
      1          6           0        0.001264   -1.142102   -0.000000
      2          1           0       -1.052857   -1.363959   -0.000000
      3          1           0        0.517259   -1.403104    0.908051
      4          1           0        0.517259   -1.403104   -0.908051
      5          1           0        0.031025    0.154347    0.000000
      6          8           0       -0.017499    1.339543    0.000000
 ---------------------------------------------------------------------
                    Distance matrix (angstroms):
                    1          2          3          4          5
     1  C    0.000000
     2  H    1.077215   0.000000
     3  H    1.076536   1.814209   0.000000
     4  H    1.076536   1.814209   1.816101   0.000000
     5  H    1.296791   1.865490   1.867253   1.867253   0.000000
     6  O    2.481716   2.894977   2.938134   2.938134   1.186189
                    6
     6  O    0.000000
 Stoichiometry    CH4O(3)
 Framework group  CS[SG(CH2O),X(H2)]
 Deg. of freedom     8
 Full point group                 CS      NOp   2
 RotChk:  IX=0 Diff= 1.07D-02
 Largest Abelian subgroup         CS      NOp   2
 Largest concise Abelian subgroup CS      NOp   2
                         Standard orientation:                         
 ---------------------------------------------------------------------
 Center     Atomic      Atomic             Coordinates (Angstroms)
 Number     Number       Type             X           Y           Z
 ---------------------------------------------------------------------
      1          6           0       -0.000656   -1.133680    0.000000
      2          1           0       -1.056424   -1.347561    0.000000
      3          1           0        0.513352   -1.398575    0.908051
      4          1           0        0.513352   -1.398575   -0.908051
      5          1           0        0.038905    0.162507   -0.000000
      6          8           0       -0.000656    1.348036   -0.000000
 ---------------------------------------------------------------------
 Rotational constants (GHZ):         152.2456078           9.8208371           9.8199718
 Leave Link  202 at Wed Oct 21 14:40:36 2020, MaxMem=  2684354560 cpu:               2.3 elap:               0.7
 (Enter /udrive/faculty/rpeverati/g16/g16/l301.exe)
 Standard basis: VSTO-6G (5D, 7F)
 Ernie: Thresh=  0.10000D-02 Tol=  0.10000D-05 Strict=F.
 EHB=        -0.001225096 Number of Hydrogen Bonds=     4
  NNHCO=     0 NNPyr=     0 NCTC=     0               EPep=         0.000000000
    EC=        16.753934709  ECS=         0.691844991   EG=         0.140712599
   EHC=         0.000142629  EAt=       -16.570361081  AtH=         0.699363146
 EPDDG=         0.000000000  ECC=        17.586634928 EAtT=        17.269724227
  EHyb=        -0.001225096
 There are     9 symmetry adapted cartesian basis functions of A'  symmetry.
 There are     3 symmetry adapted cartesian basis functions of A"  symmetry.
 There are     9 symmetry adapted basis functions of A'  symmetry.
 There are     3 symmetry adapted basis functions of A"  symmetry.
    12 basis functions,    72 primitive gaussians,    12 cartesian basis functions
     8 alpha electrons        6 beta electrons
       nuclear repulsion energy        34.8551340592 Hartrees.
 IExCor=    0 DFT=F Ex=HF Corr=None ExCW=0 ScaHFX=  1.000000
 ScaDFX=  1.000000  1.000000  1.000000  1.000000 ScalE2=  1.000000  1.000000
 IRadAn=      5 IRanWt=     -1 IRanGd=            0 ICorTp=0 IEmpDi=251
 Integral buffers will be    131072 words long.
 Regular integral format.
 Two-electron integral symmetry is turned off.
 R6Disp:  PM7 Dispersion energy=       -0.0000690428 Hartrees.
 Nuclear repulsion after empirical dispersion term =       34.8550650164 Hartrees.
 Leave Link  301 at Wed Oct 21 14:40:37 2020, MaxMem=  2684354560 cpu:               5.5 elap:               1.2
 (Enter /udrive/faculty/rpeverati/g16/g16/l302.exe)
 Do NDO integrals.
 NPDir=0 NMtPBC=     1 NCelOv=     1 NCel=       1 NClECP=     1 NCelD=      1
         NCelK=      1 NCelE2=     1 NClLst=     1 CellRange=     0.0.
 One-electron integrals computed using PRISM.
 NBasis=    12 RedAO= T EigKep=  1.00D+00  NBF=     9     3
 NBsUse=    12 1.00D-06 EigRej= -1.00D+00 NBFU=     9     3
 Leave Link  302 at Wed Oct 21 14:40:38 2020, MaxMem=  2684354560 cpu:               3.9 elap:               1.0
 (Enter /udrive/faculty/rpeverati/g16/g16/l303.exe)
 DipDrv:  MaxL=1.
 Leave Link  303 at Wed Oct 21 14:40:40 2020, MaxMem=  2684354560 cpu:               3.2 elap:               0.9
 (Enter /udrive/faculty/rpeverati/g16/g16/l401.exe)
 Initial guess from the checkpoint file:  "MN_87_RKT11_BH76_PM7_SE.chk"
 SCF N**3 symmetry information disabled.
 B after Tr=    -0.000000    0.000000    0.000000
         Rot=    1.000000   -0.000000    0.000000    0.000843 Ang=   0.10 deg.
 Guess basis will be translated and rotated to current coordinates.
 JPrj=0 DoOrth=T DoCkMO=T.
 Initial guess orbital symmetries:
 Alpha Orbitals:
       Occupied  (A') (A') (A') (A") (A') (A') (A") (A')
       Virtual   (A') (A') (A") (A')
 Beta  Orbitals:
       Occupied  (A') (A') (A") (A') (A') (A")
       Virtual   (A') (A') (A') (A') (A") (A')
 The electronic state of the initial guess is 3-A'.
 Initial guess <Sx>= 0.0000 <Sy>= 0.0000 <Sz>= 1.0000 <S**2>= 2.0237 S= 1.0079
 Leave Link  401 at Wed Oct 21 14:40:41 2020, MaxMem=  2684354560 cpu:               3.4 elap:               1.0
 (Enter /udrive/faculty/rpeverati/g16/g16/l502.exe)
 Keep J ints in memory in canonical form, NReq=859461.
 FoFCou: FMM=F IPFlag=           0 FMFlag=           0 FMFlg1=           0
         NFxFlg=           0 DoJE=F BraDBF=F KetDBF=F FulRan=T
         wScrn=  0.000000 ICntrl=       600 IOpCl=  2 I1Cent=           0 NGrid=           0
         NMat0=    1 NMatS0=     24 NMatT0=    0 NMatD0=    1 NMtDS0=    0 NMtDT0=    0
 Symmetry not used in FoFCou.
 Two-electron integral symmetry not used.
 UHF open shell SCF:
 Using DIIS extrapolation, IDIIS=  1040.
 Overlap will be assumed to be unity.
 NGot=  2684354560 LenX=  2684293796 LenY=  2684292914
 Requested convergence on RMS density matrix=1.00D-08 within 120 cycles.
 Requested convergence on MAX density matrix=1.00D-06.
 Requested convergence on             energy=1.00D-06.
 No special actions if energy rises.

 Cycle   1  Pass 1  IDiag  1:
 E= 0.845565688091199E-01
 DIIS: error= 1.39D-03 at cycle   1 NSaved=   1.
 NSaved= 1 IEnMin= 1 EnMin= 0.845565688091199E-01 IErMin= 1 ErrMin= 1.39D-03
 ErrMax= 1.39D-03  0.00D+00 EMaxC= 1.00D-01 BMatC= 1.69D-04 BMatP= 1.69D-04
 IDIUse=3 WtCom= 9.86D-01 WtEn= 1.39D-02
 Coeff-Com:  0.100D+01
 Coeff-En:   0.100D+01
 Coeff:      0.100D+01
 GapD=    2.000 DampG=2.000 DampE=1.000 DampFc=2.0000 IDamp=-1.
 RMSDP=1.08D-03 MaxDP=4.62D-03              OVMax= 0.00D+00

 Cycle   2  Pass 1  IDiag  3:
 E= 0.843892839742963E-01 Delta-E=       -0.000167284835 Rises=F Damp=F
 DIIS: error= 6.45D-04 at cycle   2 NSaved=   2.
 NSaved= 2 IEnMin= 2 EnMin= 0.843892839742963E-01 IErMin= 2 ErrMin= 6.45D-04
 ErrMax= 6.45D-04  0.00D+00 EMaxC= 1.00D-01 BMatC= 3.42D-05 BMatP= 1.69D-04
 IDIUse=3 WtCom= 9.94D-01 WtEn= 6.45D-03
 Coeff-Com: -0.648D+00 0.165D+01
 Coeff-En:   0.000D+00 0.100D+01
 Coeff:     -0.644D+00 0.164D+01
 Gap=     0.564 Goal=   None    Shift=    0.000
 Gap=     0.338 Goal=   None    Shift=    0.000
 RMSDP=9.12D-04 MaxDP=3.68D-03 DE=-1.67D-04 OVMax= 5.15D-03

 Cycle   3  Pass 1  IDiag  3:
 E= 0.843343850114309E-01 Delta-E=       -0.000054898963 Rises=F Damp=F
 DIIS: error= 2.23D-04 at cycle   3 NSaved=   3.
 NSaved= 3 IEnMin= 3 EnMin= 0.843343850114309E-01 IErMin= 3 ErrMin= 2.23D-04
 ErrMax= 2.23D-04  0.00D+00 EMaxC= 1.00D-01 BMatC= 2.94D-06 BMatP= 3.42D-05
 IDIUse=3 WtCom= 9.98D-01 WtEn= 2.23D-03
 Coeff-Com:  0.468D+00-0.135D+01 0.188D+01
 Coeff-En:   0.000D+00 0.000D+00 0.100D+01
 Coeff:      0.467D+00-0.135D+01 0.188D+01
 Gap=     0.564 Goal=   None    Shift=    0.000
 Gap=     0.338 Goal=   None    Shift=    0.000
 RMSDP=4.04D-04 MaxDP=2.15D-03 DE=-5.49D-05 OVMax= 2.61D-03

 Cycle   4  Pass 1  IDiag  3:
 E= 0.843272603344616E-01 Delta-E=       -0.000007124677 Rises=F Damp=F
 DIIS: error= 8.36D-05 at cycle   4 NSaved=   4.
 NSaved= 4 IEnMin= 4 EnMin= 0.843272603344616E-01 IErMin= 4 ErrMin= 8.36D-05
 ErrMax= 8.36D-05  0.00D+00 EMaxC= 1.00D-01 BMatC= 3.17D-07 BMatP= 2.94D-06
 IDIUse=1 WtCom= 1.00D+00 WtEn= 0.00D+00
 Coeff-Com: -0.441D+00 0.128D+01-0.198D+01 0.214D+01
 Coeff:     -0.441D+00 0.128D+01-0.198D+01 0.214D+01
 Gap=     0.564 Goal=   None    Shift=    0.000
 Gap=     0.338 Goal=   None    Shift=    0.000
 RMSDP=1.57D-04 MaxDP=9.32D-04 DE=-7.12D-06 OVMax= 1.22D-03

 Cycle   5  Pass 1  IDiag  3:
 E= 0.843264119831417E-01 Delta-E=       -0.000000848351 Rises=F Damp=F
 DIIS: error= 2.27D-05 at cycle   5 NSaved=   5.
 NSaved= 5 IEnMin= 5 EnMin= 0.843264119831417E-01 IErMin= 5 ErrMin= 2.27D-05
 ErrMax= 2.27D-05  0.00D+00 EMaxC= 1.00D-01 BMatC= 2.38D-08 BMatP= 3.17D-07
 IDIUse=1 WtCom= 1.00D+00 WtEn= 0.00D+00
 Coeff-Com:  0.343D+00-0.100D+01 0.156D+01-0.186D+01 0.196D+01
 Coeff:      0.343D+00-0.100D+01 0.156D+01-0.186D+01 0.196D+01
 Gap=     0.564 Goal=   None    Shift=    0.000
 Gap=     0.338 Goal=   None    Shift=    0.000
 RMSDP=4.17D-05 MaxDP=2.52D-04 DE=-8.48D-07 OVMax= 3.29D-04

 Cycle   6  Pass 1  IDiag  3:
 E= 0.843263541753956E-01 Delta-E=       -0.000000057808 Rises=F Damp=F
 DIIS: error= 3.63D-06 at cycle   6 NSaved=   6.
 NSaved= 6 IEnMin= 6 EnMin= 0.843263541753956E-01 IErMin= 6 ErrMin= 3.63D-06
 ErrMax= 3.63D-06  0.00D+00 EMaxC= 1.00D-01 BMatC= 1.14D-09 BMatP= 2.38D-08
 IDIUse=1 WtCom= 1.00D+00 WtEn= 0.00D+00
 Coeff-Com: -0.214D+00 0.625D+00-0.973D+00 0.117D+01-0.135D+01 0.174D+01
 Coeff:     -0.214D+00 0.625D+00-0.973D+00 0.117D+01-0.135D+01 0.174D+01
 Gap=     0.564 Goal=   None    Shift=    0.000
 Gap=     0.338 Goal=   None    Shift=    0.000
 RMSDP=7.86D-06 MaxDP=3.91D-05 DE=-5.78D-08 OVMax= 5.01D-05

 Cycle   7  Pass 1  IDiag  3:
 E= 0.843263515875421E-01 Delta-E=       -0.000000002588 Rises=F Damp=F
 DIIS: error= 2.39D-06 at cycle   7 NSaved=   7.
 NSaved= 7 IEnMin= 7 EnMin= 0.843263515875421E-01 IErMin= 7 ErrMin= 2.39D-06
 ErrMax= 2.39D-06  0.00D+00 EMaxC= 1.00D-01 BMatC= 1.11D-10 BMatP= 1.14D-09
 IDIUse=1 WtCom= 1.00D+00 WtEn= 0.00D+00
 Coeff-Com:  0.810D-01-0.236D+00 0.367D+00-0.444D+00 0.550D+00-0.956D+00
 Coeff-Com:  0.164D+01
 Coeff:      0.810D-01-0.236D+00 0.367D+00-0.444D+00 0.550D+00-0.956D+00
 Coeff:      0.164D+01
 Gap=     0.564 Goal=   None    Shift=    0.000
 Gap=     0.338 Goal=   None    Shift=    0.000
 RMSDP=2.24D-06 MaxDP=1.25D-05 DE=-2.59D-09 OVMax= 1.49D-05

 Cycle   8  Pass 1  IDiag  3:
 E= 0.843263513534396E-01 Delta-E=       -0.000000000234 Rises=F Damp=F
 DIIS: error= 6.95D-07 at cycle   8 NSaved=   8.
 NSaved= 8 IEnMin= 8 EnMin= 0.843263513534396E-01 IErMin= 8 ErrMin= 6.95D-07
 ErrMax= 6.95D-07  0.00D+00 EMaxC= 1.00D-01 BMatC= 9.42D-12 BMatP= 1.11D-10
 IDIUse=1 WtCom= 1.00D+00 WtEn= 0.00D+00
 Coeff-Com: -0.118D-01 0.345D-01-0.530D-01 0.651D-01-0.908D-01 0.198D+00
 Coeff-Com: -0.615D+00 0.147D+01
 Coeff:     -0.118D-01 0.345D-01-0.530D-01 0.651D-01-0.908D-01 0.198D+00
 Coeff:     -0.615D+00 0.147D+01
 Gap=     0.564 Goal=   None    Shift=    0.000
 Gap=     0.338 Goal=   None    Shift=    0.000
 RMSDP=7.13D-07 MaxDP=4.34D-06 DE=-2.34D-10 OVMax= 6.44D-06

 Cycle   9  Pass 1  IDiag  3:
 E= 0.843263513328836E-01 Delta-E=       -0.000000000021 Rises=F Damp=F
 DIIS: error= 1.48D-07 at cycle   9 NSaved=   9.
 NSaved= 9 IEnMin= 9 EnMin= 0.843263513328836E-01 IErMin= 9 ErrMin= 1.48D-07
 ErrMax= 1.48D-07  0.00D+00 EMaxC= 1.00D-01 BMatC= 7.63D-13 BMatP= 9.42D-12
 IDIUse=1 WtCom= 1.00D+00 WtEn= 0.00D+00
 Coeff-Com:  0.917D-03-0.268D-02 0.373D-02-0.506D-02 0.140D-01-0.534D-01
 Coeff-Com:  0.269D+00-0.937D+00 0.171D+01
 Coeff:      0.917D-03-0.268D-02 0.373D-02-0.506D-02 0.140D-01-0.534D-01
 Coeff:      0.269D+00-0.937D+00 0.171D+01
 Gap=     0.564 Goal=   None    Shift=    0.000
 Gap=     0.338 Goal=   None    Shift=    0.000
 RMSDP=2.01D-07 MaxDP=1.15D-06 DE=-2.06D-11 OVMax= 1.85D-06

 Cycle  10  Pass 1  IDiag  3:
 E= 0.843263513311925E-01 Delta-E=       -0.000000000002 Rises=F Damp=F
 DIIS: error= 3.33D-08 at cycle  10 NSaved=  10.
 NSaved=10 IEnMin=10 EnMin= 0.843263513311925E-01 IErMin=10 ErrMin= 3.33D-08
 ErrMax= 3.33D-08  0.00D+00 EMaxC= 1.00D-01 BMatC= 4.30D-14 BMatP= 7.63D-13
 IDIUse=1 WtCom= 1.00D+00 WtEn= 0.00D+00
 Coeff-Com:  0.115D-03-0.335D-03 0.716D-03-0.639D-03-0.270D-02 0.173D-01
 Coeff-Com: -0.107D+00 0.413D+00-0.956D+00 0.164D+01
 Coeff:      0.115D-03-0.335D-03 0.716D-03-0.639D-03-0.270D-02 0.173D-01
 Coeff:     -0.107D+00 0.413D+00-0.956D+00 0.164D+01
 Gap=     0.564 Goal=   None    Shift=    0.000
 Gap=     0.338 Goal=   None    Shift=    0.000
 RMSDP=5.09D-08 MaxDP=2.42D-07 DE=-1.69D-12 OVMax= 4.26D-07

 Cycle  11  Pass 1  IDiag  3:
 E= 0.843263513311001E-01 Delta-E=       -0.000000000000 Rises=F Damp=F
 DIIS: error= 3.83D-09 at cycle  11 NSaved=  11.
 NSaved=11 IEnMin=11 EnMin= 0.843263513311001E-01 IErMin=11 ErrMin= 3.83D-09
 ErrMax= 3.83D-09  0.00D+00 EMaxC= 1.00D-01 BMatC= 9.20D-16 BMatP= 4.30D-14
 IDIUse=1 WtCom= 1.00D+00 WtEn= 0.00D+00
 Coeff-Com:  0.660D-04-0.192D-03 0.212D-03-0.350D-03 0.192D-02-0.854D-02
 Coeff-Com:  0.479D-01-0.183D+00 0.429D+00-0.816D+00 0.153D+01
 Coeff:      0.660D-04-0.192D-03 0.212D-03-0.350D-03 0.192D-02-0.854D-02
 Coeff:      0.479D-01-0.183D+00 0.429D+00-0.816D+00 0.153D+01
 Gap=     0.564 Goal=   None    Shift=    0.000
 Gap=     0.338 Goal=   None    Shift=    0.000
 RMSDP=5.81D-09 MaxDP=2.93D-08 DE=-9.24D-14 OVMax= 4.68D-08

 Cycle  12  Pass 2  IDiag  1:
 SCF Done:  E(UPM7) =  0.843263513311E-01 A.U. after   12 cycles
            NFock= 11  Conv=0.58D-08     -V/T= 1.0030
 <Sx>= 0.0000 <Sy>= 0.0000 <Sz>= 1.0000 <S**2>= 2.0229 S= 1.0076
 <L.S>= 0.000000000000E+00
 KE=-2.824942296962D+01 PE=-3.249635988858D+01 EE= 2.597504419313D+01
 Annihilation of the first spin contaminant:
 S**2 before annihilation     2.0229,   after     2.0000
 Leave Link  502 at Wed Oct 21 14:40:43 2020, MaxMem=  2684354560 cpu:               9.0 elap:               1.5
 (Enter /udrive/faculty/rpeverati/g16/g16/l508.exe)
 QCSCF skips out because SCF is already converged.
 Leave Link  508 at Wed Oct 21 14:40:44 2020, MaxMem=  2684354560 cpu:               0.8 elap:               0.7
 (Enter /udrive/faculty/rpeverati/g16/g16/l701.exe)
 ... and contract with generalized density number  0.
 Compute integral first derivatives.
 R6Disp: Adding PM7 dispersion energy 1st derivatives to the gradient.
 Leave Link  701 at Wed Oct 21 14:40:45 2020, MaxMem=  2684354560 cpu:               4.2 elap:               1.0
 (Enter /udrive/faculty/rpeverati/g16/g16/l702.exe)
 L702 exits ... SP integral derivatives will be done elsewhere.
 Leave Link  702 at Wed Oct 21 14:40:46 2020, MaxMem=  2684354560 cpu:               2.3 elap:               0.8
 (Enter /udrive/faculty/rpeverati/g16/g16/l703.exe)
 Integral derivatives from FoFJK, PRISM(SPDF).
 Compute integral first derivatives, UseDBF=F ICtDFT=           0.
 Calling FoFJK, ICntrl=      2127 FMM=F ISym2X=1 I1Cent= 0 IOpClX= 1 NMat=1 NMatS=1 NMatT=0.
 FoFJK:  IHMeth=43 ICntrl=    2127 DoSepK=F KAlg= 0 I1Cent=           0 FoldK=F
 IRaf=         0 NMat=       1 IRICut=       1 DoRegI=T DoRafI=F ISym2E= 1 IDoP0=3 IntGTp=3.
 FoFCou: FMM=F IPFlag=           0 FMFlag=      100000 FMFlg1=         800
         NFxFlg=           0 DoJE=F BraDBF=F KetDBF=F FulRan=T
         wScrn=  0.000000 ICntrl=      2127 IOpCl=  1 I1Cent=           0 NGrid=           0
         NMat0=    1 NMatS0=      1 NMatT0=    0 NMatD0=    1 NMtDS0=    0 NMtDT0=    0
 Petite list used in FoFCou.
 Leave Link  703 at Wed Oct 21 14:40:48 2020, MaxMem=  2684354560 cpu:               3.5 elap:               1.0
 (Enter /udrive/faculty/rpeverati/g16/g16/l716.exe)
 Dipole        = 9.99569966D-03-7.19198632D-01 3.69496322D-15
 ***** Axes restored to original set *****
 -------------------------------------------------------------------
 Center     Atomic                   Forces (Hartrees/Bohr)
 Number     Number              X              Y              Z
 -------------------------------------------------------------------
      1        6          -0.000770569   -0.005336678   -0.000000000
      2        1           0.000893308    0.000401296   -0.000000000
      3        1          -0.000229855    0.000651830   -0.000598466
      4        1          -0.000229855    0.000651830    0.000598466
      5        1           0.000173396    0.007645964    0.000000000
      6        8           0.000163575   -0.004014242   -0.000000000
 -------------------------------------------------------------------
 Cartesian Forces:  Max     0.007645964 RMS     0.002430551
 Leave Link  716 at Wed Oct 21 14:40:49 2020, MaxMem=  2684354560 cpu:               2.2 elap:               0.8
 (Enter /udrive/faculty/rpeverati/g16/g16/l103.exe)

 GradGradGradGradGradGradGradGradGradGradGradGradGradGradGradGradGradGrad
 Berny optimization.
 Optmz: redundant internal coordinate code flag= 1
 Red2BG:  D1=  2.71D-01 OD1=  9.46D-02 B2RMS=  0.00D+00 IAprox=0
 FormGI is forming the generalized inverse of G from B-inverse, IUseBI=4.
 Internal  Forces:  Max     0.004017574 RMS     0.001375500
 Search for a saddle point.
 Step number   2 out of a maximum of   50
 All quantities printed in internal units (Hartrees-Bohrs-Radians)
 Swapping is turned off.
 Update second derivatives using D2CorX and points    1    2
 The second derivative matrix:
                          R1        R2        R3        R4        R5
           R1           0.35096
           R2          -0.00430   0.35214
           R3          -0.00430  -0.00408   0.35214
           R4           0.01086   0.01089   0.01089   0.18969
           R5          -0.01653  -0.01593  -0.01593   0.02751   0.18992
           A1           0.00380   0.00367   0.00367  -0.00628   0.01277
           A2           0.00328   0.00315   0.00315  -0.00612   0.01129
           A3          -0.00187  -0.00179  -0.00179   0.00357  -0.00646
           A4           0.00197   0.00189   0.00189  -0.00363   0.00676
           A5          -0.00523  -0.00504  -0.00504   0.00892  -0.01768
           A6          -0.00502  -0.00483  -0.00483   0.00885  -0.01708
           A7          -0.00554  -0.00482  -0.00482   0.03704  -0.02952
           A8           0.00000   0.00000   0.00000  -0.00000   0.00000
           D1          -0.00043  -0.00011  -0.00011   0.01748  -0.00802
           D2           0.00034   0.00031   0.00031  -0.00152   0.00150
           D3           0.00016   0.00018   0.00018   0.00137  -0.00010
           D4          -0.00018  -0.00012  -0.00012   0.00288  -0.00161
                          A1        A2        A3        A4        A5
           A1           0.15706
           A2          -0.00260   0.15772
           A3           0.00148   0.00130   0.15926
           A4          -0.00155  -0.00137   0.00078   0.15918
           A5           0.00406   0.00359  -0.00205   0.00215   0.15438
           A6           0.00393   0.00346  -0.00198   0.00207  -0.00543
           A7           0.00683   0.00535  -0.00297   0.00326  -0.00919
           A8          -0.00000  -0.00000   0.00000  -0.00000   0.00000
           D1           0.00187   0.00124  -0.00066   0.00077  -0.00243
           D2          -0.00035  -0.00028   0.00016  -0.00017   0.00047
           D3           0.00003  -0.00002   0.00001  -0.00001  -0.00002
           D4           0.00037   0.00027  -0.00014   0.00016  -0.00049
                          A6        A7        A8        D1        D2
           A6           0.15476
           A7          -0.00860   0.01379
           A8           0.00000   0.00000   0.00230
           D1          -0.00218   0.01211   0.00000   0.01197
           D2           0.00045  -0.00014  -0.00000  -0.00035   0.00229
           D3          -0.00000   0.00154   0.00000   0.00094  -0.00005
           D4          -0.00045   0.00167   0.00000   0.00129  -0.00004
                          D3        D4
           D3           0.00239
           D4           0.00015   0.00249
 ITU=  0  0
 Eigenvectors of the second derivative matrix:
                           1         2         3         4         5
     Eigenvalues --    -0.00297   0.00230   0.04372   0.06781   0.07296
   1         R1        -0.03566   0.00000   0.02377  -0.00458   0.00940
   2         R2        -0.03311   0.00000   0.02264  -0.00440   0.00901
   3         R3        -0.03311   0.00000   0.02264  -0.00440   0.00901
   4         R4         0.23776  -0.00000  -0.11457   0.01948  -0.04243
   5         R5        -0.20986   0.00000   0.13094  -0.02513   0.05249
   6         A1         0.04400  -0.00000  -0.34899  -0.08866   0.33981
   7         A2         0.03869  -0.00000  -0.10372   0.46107  -0.26132
   8         A3        -0.00949   0.00000   0.16911   0.15034   0.24960
   9         A4         0.02830  -0.00000  -0.04579  -0.37863  -0.39492
  10         A5        -0.07017   0.00000   0.23059  -0.16985   0.21623
  11         A6        -0.06990   0.00000   0.27228   0.02954  -0.03768
  12         A7        -0.92668   0.00000  -0.24861   0.03492  -0.06357
  13         A8         0.00000   1.00000   0.00000  -0.00000   0.00000
  14         D1        -0.14835   0.00000   0.73288   0.04535   0.21822
  15         D2         0.01619  -0.00000  -0.22276  -0.10568   0.56586
  16         D3        -0.01042   0.00000  -0.06539  -0.58330   0.20215
  17         D4        -0.02661   0.00000   0.15738  -0.47762  -0.36371
                           6         7         8         9        10
     Eigenvalues --     0.15710   0.16000   0.18199   0.21739   0.34946
   1         R1        -0.03170  -0.00016  -0.08606   0.02509   0.63958
   2         R2        -0.03110  -0.00018  -0.08505   0.02163   0.52886
   3         R3        -0.03110  -0.00018  -0.08505   0.02163   0.52886
   4         R4         0.12223  -0.00925   0.59994   0.73868   0.08653
   5         R5        -0.20782   0.00004  -0.64758   0.67006  -0.15419
   6         A1        -0.18898   0.18149  -0.00357  -0.01001   0.00013
   7         A2        -0.09230  -0.29313  -0.04856  -0.00491   0.00208
   8         A3         0.71386   0.20690  -0.14034   0.03733   0.00651
   9         A4         0.27330   0.04234  -0.10943   0.01469   0.00496
  10         A5        -0.20263  -0.70072   0.14379  -0.01590  -0.00748
  11         A6        -0.49883   0.58773   0.21393  -0.02104  -0.00867
  12         A7         0.10770   0.00173   0.24746   0.03664  -0.00250
  13         A8        -0.00000   0.00000  -0.00000   0.00000   0.00000
  14         D1         0.09276   0.00108   0.18927   0.00469  -0.00839
  15         D2         0.00059  -0.00003  -0.00280  -0.00227  -0.00024
  16         D3         0.01313   0.00012   0.02398  -0.00127  -0.00143
  17         D4         0.01254   0.00015   0.02679   0.00099  -0.00119
                          11        12
     Eigenvalues --     0.35579   0.35622
   1         R1         0.76154   0.00000
   2         R2        -0.45818  -0.70711
   3         R3        -0.45818   0.70711
   4         R4        -0.00877  -0.00000
   5         R5         0.01088   0.00000
   6         A1         0.00021   0.00000
   7         A2         0.00007   0.00000
   8         A3        -0.00070  -0.00000
   9         A4        -0.00028   0.00000
  10         A5         0.00030  -0.00000
  11         A6         0.00038  -0.00000
  12         A7        -0.00130  -0.00000
  13         A8        -0.00000   0.00000
  14         D1        -0.00011  -0.00000
  15         D2         0.00007   0.00000
  16         D3         0.00005   0.00000
  17         D4        -0.00003  -0.00000
 RLam0= 9.58D-04.
 Iter=   1 RLamda= 0.00000000D+00 Sum=-2.06079287D-04.
 Iter=   2 RLamda=-2.06079287D-04 Sum=-2.05625378D-04.
 Iter=   3 RLamda=-2.05625378D-04 Sum=-2.05626375D-04.
 RFO step:  Lambda0=9.577626394D-04 Lambda=-2.05625378D-04.
 Linear search not attempted -- option 19 set.
 Maximum step size (   0.100) exceeded in Quadratic search.
    -- Step size scaled by   0.203
 Iteration  1 RMS(Cart)=  0.03010265 RMS(Int)=  0.00126892
 Iteration  2 RMS(Cart)=  0.00139804 RMS(Int)=  0.00001035
 Iteration  3 RMS(Cart)=  0.00000060 RMS(Int)=  0.00001034
 ITry= 1 IFail=0 DXMaxC= 7.80D-02 DCOld= 1.00D+10 DXMaxT= 1.00D-01 DXLimC= 3.00D+00 Rises=F
 ClnCor:  largest displacement from symmetrization is 2.05D-04 for atom     4.
 Variable       Old X    -DE/DX   Delta X   Delta X   Delta X     New X
                                 (Linear)    (Quad)   (Total)
    R1        2.03564  -0.00096   0.00000   0.00263   0.00263   2.03827
    R2        2.03436  -0.00077   0.00000   0.00249   0.00244   2.03680
    R3        2.03436  -0.00077   0.00000   0.00249   0.00244   2.03680
    R4        2.45058   0.00364   0.00000  -0.01951  -0.01951   2.43107
    R5        2.24157  -0.00402   0.00000   0.01609   0.01609   2.25766
    A1        2.00325   0.00006   0.00000  -0.00295  -0.00286   2.00039
    A2        2.00325   0.00017   0.00000  -0.00266  -0.00286   2.00039
    A3        1.80119   0.00019   0.00000   0.00030   0.00031   1.80149
    A4        2.00751   0.00020   0.00000  -0.00218  -0.00216   2.00534
    A5        1.80429  -0.00036   0.00000   0.00511   0.00512   1.80942
    A6        1.80429  -0.00040   0.00000   0.00509   0.00512   1.80942
    A7        3.07772  -0.00000   0.00000   0.09627   0.09627   3.17399
    A8        3.14159   0.00000   0.00000  -0.00000   0.00000   3.14159
    D1       -2.38164  -0.00052   0.00000   0.01035   0.01033  -2.37131
    D2        2.09240  -0.00001   0.00000  -0.00106  -0.00095   2.09145
    D3       -2.09240  -0.00010   0.00000   0.00075   0.00095  -2.09145
    D4        2.09839  -0.00009   0.00000   0.00181   0.00189   2.10028
         Item               Value     Threshold  Converged?
 Maximum Force            0.004018     0.000450     NO 
 RMS     Force            0.001375     0.000300     NO 
 Maximum Displacement     0.078016     0.001800     NO 
 RMS     Displacement     0.030373     0.001200     NO 
 Predicted change in Energy= 1.418335D-04
 Lowest energy point so far.  Saving SCF results.
 Largest change from initial coordinates is atom    6       0.040 Angstoms.
 GradGradGradGradGradGradGradGradGradGradGradGradGradGradGradGradGradGrad

 Leave Link  103 at Wed Oct 21 14:40:50 2020, MaxMem=  2684354560 cpu:               5.8 elap:               1.2
 (Enter /udrive/faculty/rpeverati/g16/g16/l202.exe)
                          Input orientation:                          
 ---------------------------------------------------------------------
 Center     Atomic      Atomic             Coordinates (Angstroms)
 Number     Number       Type             X           Y           Z
 ---------------------------------------------------------------------
      1          6           0       -0.002800   -1.138237   -0.000000
      2          1           0       -1.051384   -1.390950    0.000000
      3          1           0        0.519642   -1.389970    0.908512
      4          1           0        0.519642   -1.389970   -0.908512
      5          1           0       -0.010260    0.148211    0.000000
      6          8           0        0.021515    1.342493    0.000000
 ---------------------------------------------------------------------
                    Distance matrix (angstroms):
                    1          2          3          4          5
     1  C    0.000000
     2  H    1.078607   0.000000
     3  H    1.077827   1.814806   0.000000
     4  H    1.077827   1.814806   1.817025   0.000000
     5  H    1.286469   1.858213   1.863382   1.863382   0.000000
     6  O    2.480849   2.936465   2.922307   2.922307   1.194705
                    6
     6  O    0.000000
 Stoichiometry    CH4O(3)
 Framework group  CS[SG(CH2O),X(H2)]
 Deg. of freedom     8
 Full point group                 CS      NOp   2
 RotChk:  IX=0 Diff= 2.46D-02
 Largest Abelian subgroup         CS      NOp   2
 Largest concise Abelian subgroup CS      NOp   2
                         Standard orientation:                         
 ---------------------------------------------------------------------
 Center     Atomic      Atomic             Coordinates (Angstroms)
 Number     Number       Type             X           Y           Z
 ---------------------------------------------------------------------
      1          6           0        0.000909   -1.132051    0.000000
      2          1           0       -1.045149   -1.395030    0.000000
      3          1           0        0.525793   -1.378652    0.908512
      4          1           0        0.525793   -1.378652   -0.908512
      5          1           0       -0.019160    0.154262   -0.000000
      6          8           0        0.000909    1.348798   -0.000000
 ---------------------------------------------------------------------
 Rotational constants (GHZ):         152.1209300           9.8203129           9.8193214
 Leave Link  202 at Wed Oct 21 14:40:52 2020, MaxMem=  2684354560 cpu:               2.4 elap:               0.8
 (Enter /udrive/faculty/rpeverati/g16/g16/l301.exe)
 Standard basis: VSTO-6G (5D, 7F)
 Ernie: Thresh=  0.10000D-02 Tol=  0.10000D-05 Strict=F.
 EHB=        -0.001219099 Number of Hydrogen Bonds=     4
  NNHCO=     0 NNPyr=     0 NCTC=     0               EPep=         0.000000000
    EC=        16.748102607  ECS=         0.690236267   EG=         0.140548804
   EHC=         0.000139308  EAt=       -16.570361081  AtH=         0.699363146
 EPDDG=         0.000000000  ECC=        17.579026987 EAtT=        17.269724227
  EHyb=        -0.001219099
 There are     9 symmetry adapted cartesian basis functions of A'  symmetry.
 There are     3 symmetry adapted cartesian basis functions of A"  symmetry.
 There are     9 symmetry adapted basis functions of A'  symmetry.
 There are     3 symmetry adapted basis functions of A"  symmetry.
    12 basis functions,    72 primitive gaussians,    12 cartesian basis functions
     8 alpha electrons        6 beta electrons
       nuclear repulsion energy        34.8475321155 Hartrees.
 IExCor=    0 DFT=F Ex=HF Corr=None ExCW=0 ScaHFX=  1.000000
 ScaDFX=  1.000000  1.000000  1.000000  1.000000 ScalE2=  1.000000  1.000000
 IRadAn=      5 IRanWt=     -1 IRanGd=            0 ICorTp=0 IEmpDi=251
 Integral buffers will be    131072 words long.
 Regular integral format.
 Two-electron integral symmetry is turned off.
 R6Disp:  PM7 Dispersion energy=       -0.0000692213 Hartrees.
 Nuclear repulsion after empirical dispersion term =       34.8474628942 Hartrees.
 Leave Link  301 at Wed Oct 21 14:40:53 2020, MaxMem=  2684354560 cpu:               5.0 elap:               1.1
 (Enter /udrive/faculty/rpeverati/g16/g16/l302.exe)
 Do NDO integrals.
 NPDir=0 NMtPBC=     1 NCelOv=     1 NCel=       1 NClECP=     1 NCelD=      1
         NCelK=      1 NCelE2=     1 NClLst=     1 CellRange=     0.0.
 One-electron integrals computed using PRISM.
 NBasis=    12 RedAO= T EigKep=  1.00D+00  NBF=     9     3
 NBsUse=    12 1.00D-06 EigRej= -1.00D+00 NBFU=     9     3
 Leave Link  302 at Wed Oct 21 14:40:54 2020, MaxMem=  2684354560 cpu:               4.0 elap:               1.0
 (Enter /udrive/faculty/rpeverati/g16/g16/l303.exe)
 DipDrv:  MaxL=1.
 Leave Link  303 at Wed Oct 21 14:40:56 2020, MaxMem=  2684354560 cpu:               3.0 elap:               0.9
 (Enter /udrive/faculty/rpeverati/g16/g16/l401.exe)
 Initial guess from the checkpoint file:  "MN_87_RKT11_BH76_PM7_SE.chk"
 SCF N**3 symmetry information disabled.
 B after Tr=    -0.000000   -0.000000   -0.000000
         Rot=    0.999998    0.000000    0.000000   -0.002082 Ang=  -0.24 deg.
 Guess basis will be translated and rotated to current coordinates.
 JPrj=0 DoOrth=T DoCkMO=T.
 Initial guess orbital symmetries:
 Alpha Orbitals:
       Occupied  (A') (A') (A') (A') (A") (A') (A") (A')
       Virtual   (A') (A') (A") (A')
 Beta  Orbitals:
       Occupied  (A') (A') (A") (A') (A') (A")
       Virtual   (A') (A') (A') (A') (A") (A')
 The electronic state of the initial guess is 3-A'.
 Initial guess <Sx>= 0.0000 <Sy>= 0.0000 <Sz>= 1.0000 <S**2>= 2.0229 S= 1.0076
 Leave Link  401 at Wed Oct 21 14:40:57 2020, MaxMem=  2684354560 cpu:               3.2 elap:               1.0
 (Enter /udrive/faculty/rpeverati/g16/g16/l502.exe)
 Keep J ints in memory in canonical form, NReq=859461.
 FoFCou: FMM=F IPFlag=           0 FMFlag=           0 FMFlg1=           0
         NFxFlg=           0 DoJE=F BraDBF=F KetDBF=F FulRan=T
         wScrn=  0.000000 ICntrl=       600 IOpCl=  2 I1Cent=           0 NGrid=           0
         NMat0=    1 NMatS0=     24 NMatT0=    0 NMatD0=    1 NMtDS0=    0 NMtDT0=    0
 Symmetry not used in FoFCou.
 Two-electron integral symmetry not used.
 UHF open shell SCF:
 Using DIIS extrapolation, IDIIS=  1040.
 Overlap will be assumed to be unity.
 NGot=  2684354560 LenX=  2684293796 LenY=  2684292914
 Requested convergence on RMS density matrix=1.00D-08 within 120 cycles.
 Requested convergence on MAX density matrix=1.00D-06.
 Requested convergence on             energy=1.00D-06.
 No special actions if energy rises.

 Cycle   1  Pass 1  IDiag  1:
 E= 0.853330514521815E-01
 DIIS: error= 3.17D-03 at cycle   1 NSaved=   1.
 NSaved= 1 IEnMin= 1 EnMin= 0.853330514521815E-01 IErMin= 1 ErrMin= 3.17D-03
 ErrMax= 3.17D-03  0.00D+00 EMaxC= 1.00D-01 BMatC= 5.83D-04 BMatP= 5.83D-04
 IDIUse=3 WtCom= 9.68D-01 WtEn= 3.17D-02
 Coeff-Com:  0.100D+01
 Coeff-En:   0.100D+01
 Coeff:      0.100D+01
 GapD=    2.000 DampG=2.000 DampE=1.000 DampFc=2.0000 IDamp=-1.
 RMSDP=2.13D-03 MaxDP=9.08D-03              OVMax= 0.00D+00

 Cycle   2  Pass 1  IDiag  3:
 E= 0.846960490269737E-01 Delta-E=       -0.000637002425 Rises=F Damp=F
 DIIS: error= 1.48D-03 at cycle   2 NSaved=   2.
 NSaved= 2 IEnMin= 2 EnMin= 0.846960490269737E-01 IErMin= 2 ErrMin= 1.48D-03
 ErrMax= 1.48D-03  0.00D+00 EMaxC= 1.00D-01 BMatC= 1.34D-04 BMatP= 5.83D-04
 IDIUse=3 WtCom= 9.85D-01 WtEn= 1.48D-02
 Coeff-Com: -0.801D+00 0.180D+01
 Coeff-En:   0.000D+00 0.100D+01
 Coeff:     -0.790D+00 0.179D+01
 Gap=     0.566 Goal=   None    Shift=    0.000
 Gap=     0.337 Goal=   None    Shift=    0.000
 RMSDP=1.99D-03 MaxDP=7.92D-03 DE=-6.37D-04 OVMax= 1.12D-02

 Cycle   3  Pass 1  IDiag  3:
 E= 0.844723095075537E-01 Delta-E=       -0.000223739519 Rises=F Damp=F
 DIIS: error= 3.21D-04 at cycle   3 NSaved=   3.
 NSaved= 3 IEnMin= 3 EnMin= 0.844723095075537E-01 IErMin= 3 ErrMin= 3.21D-04
 ErrMax= 3.21D-04  0.00D+00 EMaxC= 1.00D-01 BMatC= 7.11D-06 BMatP= 1.34D-04
 IDIUse=3 WtCom= 9.97D-01 WtEn= 3.21D-03
 Coeff-Com:  0.613D+00-0.148D+01 0.187D+01
 Coeff-En:   0.000D+00 0.000D+00 0.100D+01
 Coeff:      0.611D+00-0.148D+01 0.187D+01
 Gap=     0.566 Goal=   None    Shift=    0.000
 Gap=     0.338 Goal=   None    Shift=    0.000
 RMSDP=6.38D-04 MaxDP=2.82D-03 DE=-2.24D-04 OVMax= 4.26D-03

 Cycle   4  Pass 1  IDiag  3:
 E= 0.844549496599285E-01 Delta-E=       -0.000017359848 Rises=F Damp=F
 DIIS: error= 1.13D-04 at cycle   4 NSaved=   4.
 NSaved= 4 IEnMin= 4 EnMin= 0.844549496599285E-01 IErMin= 4 ErrMin= 1.13D-04
 ErrMax= 1.13D-04  0.00D+00 EMaxC= 1.00D-01 BMatC= 7.24D-07 BMatP= 7.11D-06
 IDIUse=3 WtCom= 9.99D-01 WtEn= 1.13D-03
 Coeff-Com: -0.488D+00 0.119D+01-0.169D+01 0.198D+01
 Coeff-En:   0.000D+00 0.000D+00 0.000D+00 0.100D+01
 Coeff:     -0.487D+00 0.119D+01-0.169D+01 0.198D+01
 Gap=     0.566 Goal=   None    Shift=    0.000
 Gap=     0.338 Goal=   None    Shift=    0.000
 RMSDP=2.20D-04 MaxDP=1.24D-03 DE=-1.74D-05 OVMax= 1.69D-03

 Cycle   5  Pass 1  IDiag  3:
 E= 0.844531567025157E-01 Delta-E=       -0.000001792957 Rises=F Damp=F
 DIIS: error= 3.52D-05 at cycle   5 NSaved=   5.
 NSaved= 5 IEnMin= 5 EnMin= 0.844531567025157E-01 IErMin= 5 ErrMin= 3.52D-05
 ErrMax= 3.52D-05  0.00D+00 EMaxC= 1.00D-01 BMatC= 6.14D-08 BMatP= 7.24D-07
 IDIUse=1 WtCom= 1.00D+00 WtEn= 0.00D+00
 Coeff-Com:  0.333D+00-0.818D+00 0.120D+01-0.163D+01 0.192D+01
 Coeff:      0.333D+00-0.818D+00 0.120D+01-0.163D+01 0.192D+01
 Gap=     0.566 Goal=   None    Shift=    0.000
 Gap=     0.338 Goal=   None    Shift=    0.000
 RMSDP=6.34D-05 MaxDP=4.02D-04 DE=-1.79D-06 OVMax= 5.10D-04

 Cycle   6  Pass 1  IDiag  3:
 E= 0.844530085448199E-01 Delta-E=       -0.000000148158 Rises=F Damp=F
 DIIS: error= 8.51D-06 at cycle   6 NSaved=   6.
 NSaved= 6 IEnMin= 6 EnMin= 0.844530085448199E-01 IErMin= 6 ErrMin= 8.51D-06
 ErrMax= 8.51D-06  0.00D+00 EMaxC= 1.00D-01 BMatC= 3.93D-09 BMatP= 6.14D-08
 IDIUse=1 WtCom= 1.00D+00 WtEn= 0.00D+00
 Coeff-Com: -0.131D+00 0.323D+00-0.479D+00 0.666D+00-0.906D+00 0.153D+01
 Coeff:     -0.131D+00 0.323D+00-0.479D+00 0.666D+00-0.906D+00 0.153D+01
 Gap=     0.566 Goal=   None    Shift=    0.000
 Gap=     0.338 Goal=   None    Shift=    0.000
 RMSDP=1.36D-05 MaxDP=8.53D-05 DE=-1.48D-07 OVMax= 1.06D-04

 Cycle   7  Pass 1  IDiag  3:
 E= 0.844529996739638E-01 Delta-E=       -0.000000008871 Rises=F Damp=F
 DIIS: error= 4.64D-06 at cycle   7 NSaved=   7.
 NSaved= 7 IEnMin= 7 EnMin= 0.844529996739638E-01 IErMin= 7 ErrMin= 4.64D-06
 ErrMax= 4.64D-06  0.00D+00 EMaxC= 1.00D-01 BMatC= 6.52D-10 BMatP= 3.93D-09
 IDIUse=1 WtCom= 1.00D+00 WtEn= 0.00D+00
 Coeff-Com:  0.487D-01-0.120D+00 0.181D+00-0.254D+00 0.365D+00-0.102D+01
 Coeff-Com:  0.180D+01
 Coeff:      0.487D-01-0.120D+00 0.181D+00-0.254D+00 0.365D+00-0.102D+01
 Coeff:      0.180D+01
 Gap=     0.566 Goal=   None    Shift=    0.000
 Gap=     0.338 Goal=   None    Shift=    0.000
 RMSDP=6.57D-06 MaxDP=2.91D-05 DE=-8.87D-09 OVMax= 4.74D-05

 Cycle   8  Pass 1  IDiag  3:
 E= 0.844529980630000E-01 Delta-E=       -0.000000001611 Rises=F Damp=F
 DIIS: error= 1.59D-06 at cycle   8 NSaved=   8.
 NSaved= 8 IEnMin= 8 EnMin= 0.844529980630000E-01 IErMin= 8 ErrMin= 1.59D-06
 ErrMax= 1.59D-06  0.00D+00 EMaxC= 1.00D-01 BMatC= 4.56D-11 BMatP= 6.52D-10
 IDIUse=1 WtCom= 1.00D+00 WtEn= 0.00D+00
 Coeff-Com: -0.603D-02 0.148D-01-0.243D-01 0.343D-01-0.533D-01 0.282D+00
 Coeff-Com: -0.799D+00 0.155D+01
 Coeff:     -0.603D-02 0.148D-01-0.243D-01 0.343D-01-0.533D-01 0.282D+00
 Coeff:     -0.799D+00 0.155D+01
 Gap=     0.566 Goal=   None    Shift=    0.000
 Gap=     0.338 Goal=   None    Shift=    0.000
 RMSDP=1.59D-06 MaxDP=9.49D-06 DE=-1.61D-09 OVMax= 1.19D-05

 Cycle   9  Pass 1  IDiag  3:
 E= 0.844529979635382E-01 Delta-E=       -0.000000000099 Rises=F Damp=F
[...]
 The second derivative matrix:
                          R1        R2        R3        R4        R5
           R1           0.26392
           R2           0.01262   0.26435
           R3           0.01262   0.01279   0.26435
           R4           0.00899   0.00924   0.00924   0.08625
           R5          -0.00048   0.00007   0.00007   0.13028   0.06677
           A1           0.00278   0.00277  -0.00417  -0.00334   0.00181
           A2           0.00362  -0.00412   0.00408  -0.00873   0.00413
           A3           0.00487  -0.00410  -0.00490   0.00756  -0.00622
           A4          -0.00410   0.00356   0.00406  -0.00873   0.00283
           A5          -0.00371   0.00553  -0.00484   0.00871  -0.00215
           A6          -0.00404  -0.00437   0.00452   0.01081  -0.00305
           A7           0.00033  -0.00068  -0.00068  -0.00635  -0.01084
           A8          -0.00000   0.00014  -0.00014   0.00000  -0.00000
           D1          -0.00376  -0.00368  -0.00241   0.02417  -0.01037
           D2           0.00365   0.00359  -0.00872   0.00309  -0.00153
           D3          -0.00445   0.00812  -0.00428   0.00204  -0.00067
           D4          -0.00810   0.00454   0.00443  -0.00105   0.00086
                          A1        A2        A3        A4        A5
           A1           0.01288
           A2          -0.00652   0.01961
           A3          -0.00535  -0.00973   0.04463
           A4          -0.00658  -0.00323   0.00911   0.02019
           A5          -0.00530   0.00878  -0.01982  -0.01047   0.04711
           A6           0.01103  -0.01177  -0.01709  -0.01240  -0.01813
           A7          -0.00038  -0.00012   0.00365   0.00171  -0.00257
           A8          -0.00027   0.00032  -0.00003   0.00002   0.00088
           D1          -0.00566  -0.00771   0.00891  -0.00833   0.01007
           D2           0.00985  -0.00782   0.00505  -0.00769   0.00492
           D3           0.00502  -0.01281  -0.00129   0.00477   0.00616
           D4          -0.00483  -0.00498  -0.00634   0.01246   0.00124
                          A6        A7        A8        D1        D2
           A6           0.05237
           A7          -0.00267   0.00349
           A8          -0.00094   0.00000   0.00004
           D1           0.00926  -0.00116   0.00005   0.02621
           D2          -0.00249   0.00009   0.00005   0.00165   0.01512
           D3          -0.00106  -0.00034   0.00005   0.00096   0.00755
           D4           0.00143  -0.00043  -0.00000  -0.00069  -0.00757
                          D3        D4
           D3           0.01521
           D4           0.00766   0.01524
 ITU=  0
 Eigenvectors of the second derivative matrix:
                           1         2         3         4         5
     Eigenvalues --    -0.06400   0.00001   0.00259   0.03385   0.03749
   1         R1        -0.02063   0.00000  -0.00198  -0.03011   0.05286
   2         R2        -0.02011   0.00017  -0.00148  -0.02756  -0.05480
   3         R3        -0.02177  -0.00017  -0.00145   0.04961   0.00048
   4         R4         0.66100   0.00000   0.07648  -0.05330  -0.00415
   5         R5        -0.69243  -0.00000   0.00407   0.09369  -0.00051
   6         A1         0.04433  -0.00371   0.01140   0.50615   0.01523
   7         A2         0.07307   0.00371   0.01112  -0.15154  -0.42619
   8         A3        -0.08774   0.00000  -0.06563  -0.01723  -0.16374
   9         A4         0.06555   0.00000  -0.00912  -0.16813   0.41881
  10         A5        -0.07184   0.01223   0.02410  -0.02191   0.15108
  11         A6        -0.07847  -0.01223   0.02412  -0.19900  -0.00564
  12         A7        -0.05547  -0.00000   0.99385  -0.00153  -0.01523
  13         A8        -0.00021  -0.99983  -0.00003  -0.00031   0.00074
  14         D1        -0.21940   0.00170  -0.01977  -0.43446  -0.01680
  15         D2        -0.01773   0.00089  -0.00555   0.54602   0.00870
  16         D3        -0.01149   0.00089   0.00586   0.25725   0.54593
  17         D4         0.00623   0.00000   0.01142  -0.28877   0.53723
                           6         7         8         9        10
     Eigenvalues --     0.05405   0.07287   0.07554   0.20781   0.25293
   1         R1        -0.00719  -0.02562   0.00912  -0.06542   0.81861
   2         R2        -0.00706   0.01802   0.02396  -0.08368  -0.34853
   3         R3         0.04808   0.00204  -0.01861  -0.07751  -0.44891
   4         R4         0.11840   0.02052   0.01827   0.72508  -0.00600
   5         R5        -0.23685   0.03674  -0.07671   0.66605  -0.00796
   6         A1        -0.02442  -0.06604   0.22484  -0.00439   0.01394
   7         A2        -0.27968  -0.17448  -0.27161  -0.02457   0.01130
   8         A3         0.39403   0.68997  -0.08809   0.00472   0.03968
   9         A4        -0.25443   0.31806  -0.14638  -0.03358  -0.02847
  10         A5         0.35016  -0.57360  -0.44973   0.03274  -0.01469
  11         A6        -0.01599  -0.21977   0.78985   0.04402  -0.02015
  12         A7         0.02549   0.06756  -0.01370  -0.05898   0.00464
  13         A8         0.00496  -0.00484  -0.01677  -0.00008   0.00007
  14         D1         0.61907  -0.05494   0.10721   0.07009  -0.00279
  15         D2         0.28495  -0.01294   0.02792   0.01056   0.02645
  16         D3         0.14863  -0.01149   0.01601   0.00725  -0.02128
  17         D4        -0.13632   0.00145  -0.01192  -0.00331  -0.04774
                          11        12
     Eigenvalues --     0.25304   0.29158
   1         R1        -0.05799  -0.56331
   2         R2         0.73168  -0.57537
   3         R3        -0.67394  -0.57679
   4         R4         0.00372  -0.11748
   5         R5         0.00212  -0.06874
   6         A1         0.02031  -0.00166
   7         A2        -0.02684  -0.00547
   8         A3         0.00017   0.00826
   9         A4        -0.00011  -0.00513
  10         A5         0.03989   0.00298
  11         A6        -0.03147   0.00473
  12         A7        -0.00055   0.00721
  13         A8         0.00100  -0.00001
  14         D1        -0.00210   0.01411
  15         D2         0.03898   0.00291
  16         D3         0.04263   0.00061
  17         D4         0.00366  -0.00231
 Eigenvalue     1 is  -6.40D-02 should be greater than     0.000000 Eigenvector:
                          R5        R4        D1        A3        A6
   1                   -0.69243   0.66100  -0.21940  -0.08774  -0.07847
                          A2        A5        A4        A7        A1
   1                    0.07307  -0.07184   0.06555  -0.05547   0.04433
 Angle between quadratic step and forces=  67.01 degrees.
 Linear search not attempted -- first point.
 Iteration  1 RMS(Cart)=  0.00032759 RMS(Int)=  0.00000012
 Iteration  2 RMS(Cart)=  0.00000013 RMS(Int)=  0.00000000
 ITry= 1 IFail=0 DXMaxC= 7.55D-04 DCOld= 1.00D+10 DXMaxT= 3.00D-01 DXLimC= 3.00D+00 Rises=F
 ClnCor:  largest displacement from symmetrization is 1.57D-06 for atom     4.
 Variable       Old X    -DE/DX   Delta X   Delta X   Delta X     New X
                                 (Linear)    (Quad)   (Total)
    R1        2.03362   0.00001   0.00000   0.00005   0.00005   2.03367
    R2        2.03412  -0.00001   0.00000  -0.00004  -0.00004   2.03408
    R3        2.03412  -0.00001   0.00000  -0.00004  -0.00004   2.03408
    R4        2.40988   0.00000   0.00000  -0.00004  -0.00004   2.40984
    R5        2.29215  -0.00000   0.00000  -0.00004  -0.00004   2.29211
    A1        1.99889  -0.00000   0.00000  -0.00006  -0.00006   1.99883
    A2        1.99889  -0.00000   0.00000  -0.00006  -0.00006   1.99883
    A3        1.79345  -0.00001   0.00000  -0.00010  -0.00010   1.79335
    A4        1.99283   0.00000   0.00000   0.00007   0.00007   1.99290
    A5        1.82366   0.00001   0.00000   0.00008   0.00008   1.82374
    A6        1.82366   0.00001   0.00000   0.00008   0.00008   1.82374
    A7        3.52063  -0.00000   0.00000  -0.00086  -0.00086   3.51977
    A8        3.14159   0.00000   0.00000  -0.00000   0.00000   3.14159
    D1       -2.35336   0.00000   0.00000   0.00007   0.00007  -2.35328
    D2        2.09223  -0.00000   0.00000  -0.00008  -0.00008   2.09216
    D3       -2.09223   0.00000   0.00000   0.00007   0.00008  -2.09216
    D4        2.09872   0.00001   0.00000   0.00015   0.00015   2.09887
         Item               Value     Threshold  Converged?
 Maximum Force            0.000009     0.000450     YES
 RMS     Force            0.000005     0.000300     YES
 Maximum Displacement     0.000755     0.001800     YES
 RMS     Displacement     0.000328     0.001200     YES
 Predicted change in Energy=-3.546267D-09
 Optimization completed.
    -- Stationary point found.
                           ----------------------------
                           !   Optimized Parameters   !
                           ! (Angstroms and Degrees)  !
 --------------------------                            --------------------------
 ! Name  Definition              Value          Derivative Info.                !
 --------------------------------------------------------------------------------
 ! R1    R(1,2)                  1.0761         -DE/DX =    0.0                 !
 ! R2    R(1,3)                  1.0764         -DE/DX =    0.0                 !
 ! R3    R(1,4)                  1.0764         -DE/DX =    0.0                 !
 ! R4    R(1,5)                  1.2753         -DE/DX =    0.0                 !
 ! R5    R(5,6)                  1.213          -DE/DX =    0.0                 !
 ! A1    A(2,1,3)              114.528          -DE/DX =    0.0                 !
 ! A2    A(2,1,4)              114.528          -DE/DX =    0.0                 !
 ! A3    A(2,1,5)              102.7569         -DE/DX =    0.0                 !
 ! A4    A(3,1,4)              114.1807         -DE/DX =    0.0                 !
 ! A5    A(3,1,5)              104.4883         -DE/DX =    0.0                 !
 ! A6    A(4,1,5)              104.4883         -DE/DX =    0.0                 !
 ! A7    L(1,5,6,2,-1)         201.717          -DE/DX =    0.0                 !
 ! A8    L(1,5,6,2,-2)         180.0            -DE/DX =    0.0                 !
 ! D1    D(2,1,4,3)           -134.8375         -DE/DX =    0.0                 !
 ! D2    D(2,1,5,3)            119.8762         -DE/DX =    0.0                 !
 ! D3    D(2,1,5,4)           -119.8762         -DE/DX =    0.0                 !
 ! D4    D(3,1,5,4)            120.2475         -DE/DX =    0.0                 !
 --------------------------------------------------------------------------------
 GradGradGradGradGradGradGradGradGradGradGradGradGradGradGradGradGradGrad

 Leave Link  103 at Wed Oct 21 14:43:59 2020, MaxMem=  2684354560 cpu:               3.0 elap:               0.7
 (Enter /udrive/faculty/rpeverati/g16/g16/l9999.exe)

 ----------------------------------------------------------------------

 Electric dipole moment (input orientation):
 (Debye = 10**-18 statcoulomb cm , SI units = C m)
                  (au)            (Debye)         (10**-30 SI)
   Tot        0.669086D+00      0.170065D+01      0.567275D+01
   x         -0.115632D+00     -0.293907D+00     -0.980368D+00
   y         -0.659019D+00     -0.167506D+01     -0.558740D+01
   z          0.000000D+00      0.000000D+00      0.000000D+00

 Dipole polarizability, Alpha (input orientation).
 (esu units = cm**3 , SI units = C**2 m**2 J**-1)
 Alpha(0;0):
               (au)            (10**-24 esu)      (10**-40 SI)
   iso        0.148483D+02      0.220029D+01      0.244816D+01
   aniso      0.253385D+02      0.375478D+01      0.417776D+01
   xx         0.689443D+01      0.102165D+01      0.113674D+01
   yx         0.269779D+01      0.399771D+00      0.444806D+00
   yy         0.314462D+02      0.465984D+01      0.518477D+01
   zx         0.000000D+00      0.000000D+00      0.000000D+00
   zy         0.000000D+00      0.000000D+00      0.000000D+00
   zz         0.620435D+01      0.919390D+00      0.102296D+01

 First dipole hyperpolarizability, Beta (input orientation).
 ||, _|_  parallel and perpendicular components, (z) with respect to z axis,
 vector components x,y,z.  Values do not include the 1/n! factor of 1/2.
 (esu units = statvolt**-1 cm**4 , SI units = C**3 m**3 J**-2)
 Beta(0;0,0):
               (au)            (10**-30 esu)      (10**-50 SI)
   || (z)     0.000000D+00      0.000000D+00      0.000000D+00
   _|_(z)     0.000000D+00      0.000000D+00      0.000000D+00
   x          0.585553D+02      0.505872D+00      0.187749D+00
   y          0.159373D+03      0.137686D+01      0.511006D+00
   z          0.000000D+00      0.000000D+00      0.000000D+00
   ||         0.339578D+02      0.293369D+00      0.108881D+00
   xxx       -0.587671D+01     -0.507702D-01     -0.188429D-01
   xxy        0.306020D-01      0.264377D-03      0.981210D-04
   yxy        0.215667D+02      0.186319D+00      0.691506D-01
   yyy        0.567885D+02      0.490609D+00      0.182085D+00
   xxz        0.000000D+00      0.000000D+00      0.000000D+00
   yxz        0.000000D+00      0.000000D+00      0.000000D+00
   yyz        0.000000D+00      0.000000D+00      0.000000D+00
   zxz        0.382846D+01      0.330749D-01      0.122754D-01
   zyz       -0.369489D+01     -0.319210D-01     -0.118472D-01
   zzz        0.000000D+00      0.000000D+00      0.000000D+00

 ----------------------------------------------------------------------

 Dipole orientation:
     6          0.32631612         -0.05725566          2.10028930
     1         -1.42428613          0.24990628          3.08854831
     1          1.68961985          1.43732553          2.31304282
     1          1.09936839         -1.92668343          2.31304282
     1         -0.34061520          0.05976459         -0.21251071
     8         -0.12820752          0.02249539         -2.49449402

 Electric dipole moment (dipole orientation):
 (Debye = 10**-18 statcoulomb cm , SI units = C m)
                  (au)            (Debye)         (10**-30 SI)
   Tot        0.669086D+00      0.170065D+01      0.567275D+01
   x          0.000000D+00      0.000000D+00      0.000000D+00
   y          0.000000D+00      0.000000D+00      0.000000D+00
   z          0.669086D+00      0.170065D+01      0.567275D+01

 Dipole polarizability, Alpha (dipole orientation).
 (esu units = cm**3 , SI units = C**2 m**2 J**-1)
 Alpha(0;0):
               (au)            (10**-24 esu)      (10**-40 SI)
   iso        0.148483D+02      0.220029D+01      0.244816D+01
   aniso      0.253385D+02      0.375478D+01      0.417776D+01
   xx         0.669420D+01      0.991978D+00      0.110372D+01
   yx        -0.859488D-01     -0.127363D-01     -0.141710D-01
   yy         0.621943D+01      0.921625D+00      0.102545D+01
   zx         0.161785D+01      0.239740D+00      0.266747D+00
   zy        -0.283868D+00     -0.420649D-01     -0.468036D-01
   zz         0.316313D+02      0.468728D+01      0.521530D+01

 First dipole hyperpolarizability, Beta (dipole orientation).
 ||, _|_  parallel and perpendicular components, (z) with respect to z axis,
 vector components x,y,z.  Values do not include the 1/n! factor of 1/2.
 (esu units = statvolt**-1 cm**4 , SI units = C**3 m**3 J**-2)
 Beta(0;0,0):
               (au)            (10**-30 esu)      (10**-50 SI)
   || (z)    -0.334188D+02     -0.288713D+00     -0.107153D+00
   _|_(z)    -0.111396D+02     -0.962376D-01     -0.357176D-01
   x          0.296779D+02      0.256394D+00      0.951582D-01
   y         -0.520731D+01     -0.449871D-01     -0.166965D-01
   z         -0.167094D+03     -0.144356D+01     -0.535764D+00
   ||         0.339578D+02      0.293369D+00      0.108881D+00
   xxx       -0.345269D+01     -0.298286D-01     -0.110706D-01
   xxy        0.212988D+01      0.184005D-01      0.682918D-02
   yxy        0.383564D+01      0.331369D-01      0.122984D-01
   yyy       -0.219708D+01     -0.189810D-01     -0.704462D-02
   xxz        0.630520D+01      0.544720D-01      0.202167D-01
   yxz       -0.583852D+00     -0.504403D-02     -0.187204D-02
   yyz        0.308010D+01      0.266097D-01      0.987592D-02
   zxz        0.950970D+01      0.821564D-01      0.304915D-01
   zyz       -0.166858D+01     -0.144152D-01     -0.535007D-02
   zzz       -0.650834D+02     -0.562270D+00     -0.208681D+00

 ----------------------------------------------------------------------

 Test job not archived.
 1\1\GINC-NODE06\Freq\UPM7\ZDO\C1H4O1(3)\RPEVERATI\21-Oct-2020\0\\#P Fr
 eq PM7 5D 7F Integral=UltraFineGrid SCF=(NoSymm,XQC,MaxCyc=120) IOp(1/
 33=1) Geom=Check Guess=Read\\TS search on BH76.\\0,3\C,-0.019398153,-1
 .1250003623,0.\H,-1.0361559563,-1.477552528,0.\H,0.5264004132,-1.33507
 07871,0.9036757649\H,0.5264004132,-1.3350707871,-0.9036757649\H,-0.160
 8111159,0.1423897947,0.\O,0.1602838057,1.3120713681,0.\\Version=ES64L-
 G16RevA.03\State=3-A'\HF=0.0844878\S2=2.021155\S2-1=0.\S2A=2.000022\RM
 SD=4.666e-10\RMSF=8.373e-06\ZeroPoint=0.0339647\Thermal=0.0386315\Dipo
 le=-0.1156319,-0.6590189,0.\DipoleDeriv=-0.6794211,-0.1018045,0.,0.089
 2285,0.3185456,0.,0.,0.,-0.6679565,0.2277826,0.1220501,0.,-0.0013648,0
 .0781005,0.,0.,0.,0.1948031,0.2015319,-0.0519543,0.0149401,-0.0186364,
 0.0807605,-0.009024,0.006801,-0.0885094,0.2192725,0.2015319,-0.0519543
 ,-0.0149401,-0.0186364,0.0807605,0.009024,-0.006801,0.0885094,0.219272
 5,0.2457031,-0.094374,0.,-0.1492131,-0.9725251,0.,0.,0.,0.2557603,-0.1
 94955,0.1728947,0.,0.0968908,0.4210532,0.,0.,0.,-0.2160046\Polar=6.894
 4312,2.6977903,31.4461575,0.,0.,6.2043526\HyperPolar=-5.8767145,0.0306
 02,21.5666824,56.7885197,0.,0.,0.,3.8284565,-3.6948914,0.\PG=CS [SG(C1
 H2O1),X(H2)]\NImag=1\\0.40035415,0.02557435,0.13482630,0.,0.,0.4015160
 3,-0.20535959,-0.06112852,0.,0.23911684,-0.06353763,-0.04460336,0.,0.0
 7258604,0.05266436,0.,0.,-0.03992667,0.,0.,0.03713380,-0.08807910,0.01
 909133,-0.07971180,-0.01650830,0.00191776,-0.02108094,0.09585180,0.018
 86944,-0.03213039,0.03322584,-0.00423007,0.00677071,-0.00550539,-0.022
 77582,0.03775180,-0.07940961,0.03253965,-0.17108083,-0.00661343,-0.000
 42845,-0.00014114,0.09653837,-0.03863538,0.19714996,-0.08807910,0.0190
 9133,0.07971180,-0.01650830,0.00191776,0.02108094,0.00798054,-0.001846
 24,-0.00780027,0.09585180,0.01886944,-0.03213039,-0.03322584,-0.004230
 07,0.00677071,0.00550539,-0.00184624,0.00680552,0.00276345,-0.02277582
 ,0.03775180,0.07940961,-0.03253965,-0.17108083,0.00661343,0.00042845,-
 0.00014114,0.00780027,-0.00276345,-0.02495698,-0.09653837,0.03863538,0
 .19714996,-0.02201230,0.03799980,0.,0.00001975,-0.01446184,0.,0.000557
 02,0.00705678,-0.00308609,0.00055702,0.00705678,0.00308609,0.02574376,
 -0.01277412,0.12117207,0.,-0.00079172,-0.03010079,0.,0.00253438,-0.025
 55422,0.00256802,0.00253438,-0.02555422,-0.00256802,-0.01318893,-0.101
 26568,0.,0.,-0.01868819,0.,0.,0.00336094,-0.00355795,0.01201177,-0.000
 92008,0.00355795,-0.01201177,-0.00092008,0.,0.,0.01590949,0.00321678,-
 0.03902787,0.,-0.00058159,0.00173430,0.,0.00001436,0.00269044,0.000387
 27,0.00001436,0.00269044,-0.00038727,-0.00515761,0.01893449,0.,0.00293
 371,0.01295353,-0.14765950,0.,-0.00216398,0.00874272,0.,0.00101587,0.0
 0653431,0.00125459,0.00101587,0.00653431,-0.00125459,-0.02413102,0.061
 24532,0.,0.01277538,0.06458583,0.,0.,0.00005380,0.,0.,-0.00043683,0.00
 000095,0.00119715,-0.00031354,-0.00000095,-0.00119715,-0.00031354,0.,0
 .,0.00105457,0.,0.,0.00004187\\-0.00003078,-0.00000482,0.,0.00000803,-
 0.00000053,0.,0.00000813,0.00000282,0.00000487,0.00000813,0.00000282,-
 0.00000487,0.00000458,-0.00000195,0.,0.00000190,0.00000165,0.\\\@


 K N O W I N G  IS A BARRIER WHICH PREVENTS LEARNING

                     -- TEACHING OF THE BENE GESSERIT
 Job cpu time:       0 days  0 hours  1 minutes 29.2 seconds.
 Elapsed time:       0 days  0 hours  0 minutes 20.1 seconds.
 File lengths (MBytes):  RWF=      5 Int=      0 D2E=      0 Chk=      2 Scr=      1
 Normal termination of Gaussian 16 at Wed Oct 21 14:44:01 2020.
