 Entering Gaussian System, Link 0=g16
 Input=MN_91_RKT17_BH76_PM7_SE.in
 Output=MN_91_RKT17_BH76_PM7_SE.log
 Initial command:
 /udrive/faculty/rpeverati/g16/g16/l1.exe "/udrive/scratch-directories/gaussian09/rpeverati/Gau-29468.inp" -scrdir="/udrive/scratch-directories/gaussian09/rpeverati/"
 Entering Link 1 = /udrive/faculty/rpeverati/g16/g16/l1.exe PID=     29469.
  
 Copyright (c) 1988,1990,1992,1993,1995,1998,2003,2009,2016,
            Gaussian, Inc.  All Rights Reserved.
  
 This is part of the Gaussian(R) 16 program.  It is based on
 the Gaussian(R) 09 system (copyright 2009, Gaussian, Inc.),
 the Gaussian(R) 03 system (copyright 2003, Gaussian, Inc.),
 the Gaussian(R) 98 system (copyright 1998, Gaussian, Inc.),
 the Gaussian(R) 94 system (copyright 1995, Gaussian, Inc.),
 the Gaussian 92(TM) system (copyright 1992, Gaussian, Inc.),
 the Gaussian 90(TM) system (copyright 1990, Gaussian, Inc.),
 the Gaussian 88(TM) system (copyright 1988, Gaussian, Inc.),
 the Gaussian 86(TM) system (copyright 1986, Carnegie Mellon
 University), and the Gaussian 82(TM) system (copyright 1983,
 Carnegie Mellon University). Gaussian is a federally registered
 trademark of Gaussian, Inc.
  
 This software contains proprietary and confidential information,
 including trade secrets, belonging to Gaussian, Inc.
  
 This software is provided under written license and may be
 used, copied, transmitted, or stored only in accord with that
 written license.
  
 The following legend is applicable only to US Government
 contracts under FAR:
  
                    RESTRICTED RIGHTS LEGEND
  
 Use, reproduction and disclosure by the US Government is
 subject to restrictions as set forth in subparagraphs (a)
 and (c) of the Commercial Computer Software - Restricted
 Rights clause in FAR 52.227-19.
  
 Gaussian, Inc.
 340 Quinnipiac St., Bldg. 40, Wallingford CT 06492
  
  
 ---------------------------------------------------------------
 Warning -- This program may not be used in any manner that
 competes with the business of Gaussian, Inc. or will provide
 assistance to any competitor of Gaussian, Inc.  The licensee
 of this program is prohibited from giving any competitor of
 Gaussian, Inc. access to this program.  By using this program,
 the user acknowledges that Gaussian, Inc. is engaged in the
 business of creating and licensing software in the field of
 computational chemistry and represents and warrants to the
 licensee that it is not a competitor of Gaussian, Inc. and that
 it will not use this program in any manner prohibited above.
 ---------------------------------------------------------------
  

 Cite this work as:
 Gaussian 16, Revision A.03,
 M. J. Frisch, G. W. Trucks, H. B. Schlegel, G. E. Scuseria, 
 M. A. Robb, J. R. Cheeseman, G. Scalmani, V. Barone, 
 G. A. Petersson, H. Nakatsuji, X. Li, M. Caricato, A. V. Marenich, 
 J. Bloino, B. G. Janesko, R. Gomperts, B. Mennucci, H. P. Hratchian, 
 J. V. Ortiz, A. F. Izmaylov, J. L. Sonnenberg, D. Williams-Young, 
 F. Ding, F. Lipparini, F. Egidi, J. Goings, B. Peng, A. Petrone, 
 T. Henderson, D. Ranasinghe, V. G. Zakrzewski, J. Gao, N. Rega, 
 G. Zheng, W. Liang, M. Hada, M. Ehara, K. Toyota, R. Fukuda, 
 J. Hasegawa, M. Ishida, T. Nakajima, Y. Honda, O. Kitao, H. Nakai, 
 T. Vreven, K. Throssell, J. A. Montgomery, Jr., J. E. Peralta, 
 F. Ogliaro, M. J. Bearpark, J. J. Heyd, E. N. Brothers, K. N. Kudin, 
 V. N. Staroverov, T. A. Keith, R. Kobayashi, J. Normand, 
 K. Raghavachari, A. P. Rendell, J. C. Burant, S. S. Iyengar, 
 J. Tomasi, M. Cossi, J. M. Millam, M. Klene, C. Adamo, R. Cammi, 
 J. W. Ochterski, R. L. Martin, K. Morokuma, O. Farkas, 
 J. B. Foresman, and D. J. Fox, Gaussian, Inc., Wallingford CT, 2016.
 
 ******************************************
 Gaussian 16:  ES64L-G16RevA.03 25-Dec-2016
                21-Oct-2020 
 ******************************************
 %NoSave
 %nproc=12
 Will use up to   12 processors via shared memory.
 %mem=20GB
 %chk=MN_91_RKT17_BH76_PM7_SE
 ----------------------------------------------------------------------
 #P Opt(TS,MaxCyc=50,NoEigenTest,MaxStep=10,AddRedundant) PM7 5D 7F Int
 egral=UltraFineGrid SCF=(NoSymm,XQC,MaxCyc=120) IOp(1/33=1)
 ----------------------------------------------------------------------
 1/5=1,6=50,8=10,11=1,18=120,26=1,33=1,38=1/1,3;
 2/9=110,12=2,17=6,18=5,40=1/2;
 3/5=2,8=11,25=1,41=4200000,71=1,75=-5/1,2,3;
 4/9=2,35=1/1;
 5/5=2,7=120,8=3,13=1,35=1,38=5/2,8;
 6/7=2,8=2,9=2,10=2,28=1/1;
 7//1,2,3,16;
 1/5=1,6=50,8=10,11=1,18=20,26=1,33=1/3(2);
 2/9=110/2;
 99//99;
 2/9=110/2;
 3/5=2,8=11,25=1,41=4200000,71=1,75=-5,135=20/1,2,3;
 4/5=5,9=2,16=3,35=1/1;
 5/5=2,7=120,8=3,13=1,35=1,38=5/2,8;
 7//1,2,3,16;
 1/5=1,6=50,8=10,11=1,18=20,26=1,33=1/3(-5);
 2/9=110/2;
 6/7=2,8=2,9=2,10=2,19=2,28=1/1;
 99/9=1/99;
 Leave Link    1 at Wed Oct 21 14:40:26 2020, MaxMem=  2684354560 cpu:              15.0 elap:               1.7
 (Enter /udrive/faculty/rpeverati/g16/g16/l101.exe)
 ONIOM data not found on unit 2.
 ------------------
 TS search on BH76.
 ------------------
 TstMul:  ICh=     0
 TstMul:  Mul=     3
 TstMul:  ICh=     0
 TstMul:  Mul=     3
 Symbolic Z-matrix:
 Charge =  0 Multiplicity = 3
 Cl                    0.01882  -0.8173    0. 
 H                    -0.47049   0.56948   0. 
 O                     0.01882   1.66558   0. 
 
 RdStrC is calling ZToCFu for IStruc=1 NZ=     3.
 PrtBox:  NBox=     1 Levels=  1 BoxLen=    8.00 SMaxX=        4.69
          Shift=            0.889094            1.544480            0.000000
 Box      1 Number                   0 centers from      1 to      3:
 After GenITR:
 ITRead=  0  0  0
 MicOpt= -1 -1 -1
 Add virtual bond connecting atoms O3         and H2         Dist= 2.27D+00.
 The following ModRedundant input section has been read:
 
 ITRead=  0  0  0
 MicOpt= -1 -1 -1
 NAtoms=      3 NQM=        3 NQMF=       0 NMMI=      0 NMMIF=      0
                NMic=       0 NMicF=      0.
                    Isotopes and Nuclear Properties:
 (Nuclear quadrupole moments (NQMom) in fm**2, nuclear magnetic moments (NMagM)
  in nuclear magnetons)

  Atom         1           2           3
 IAtWgt=          35           1          16
 AtmWgt=  34.9688527   1.0078250  15.9949146
 NucSpn=           3           1           0
 AtZEff=   0.0000000   0.0000000   0.0000000
 NQMom=   -8.1650000   0.0000000   0.0000000
 NMagM=    0.8218740   2.7928460   0.0000000
 AtZNuc=  17.0000000   1.0000000   8.0000000
 No MM parameters found.
 Leave Link  101 at Wed Oct 21 14:40:29 2020, MaxMem=  2684354560 cpu:              16.4 elap:               2.1
 (Enter /udrive/faculty/rpeverati/g16/g16/l103.exe)

 GradGradGradGradGradGradGradGradGradGradGradGradGradGradGradGradGradGrad
 Berny optimization.
 Optmz: redundant internal coordinate code flag= 1
 Initialization pass.
                           ----------------------------
                           !    Initial Parameters    !
                           ! (Angstroms and Degrees)  !
 --------------------------                            --------------------------
 ! Name  Definition              Value          Derivative Info.                !
 --------------------------------------------------------------------------------
 ! R1    R(1,2)                  1.4706         estimate D2E/DX2                !
 ! R2    R(2,3)                  1.2004         estimate D2E/DX2                !
 ! A1    A(1,2,3)              136.5089         estimate D2E/DX2                !
 --------------------------------------------------------------------------------
 Maximum allowed force set to 1.00D+20.
 Trust Radius=1.00D-01 FncErr=1.00D-07 GrdErr=1.00D-07 EigMax=2.50D+02 EigMin=1.00D-04
 Number of steps in this run=     50 maximum allowed number of steps=    100.
 Search for a saddle point of order  1.
 GradGradGradGradGradGradGradGradGradGradGradGradGradGradGradGradGradGrad

 Leave Link  103 at Wed Oct 21 14:40:31 2020, MaxMem=  2684354560 cpu:               1.1 elap:               1.2
 (Enter /udrive/faculty/rpeverati/g16/g16/l202.exe)
                          Input orientation:                          
 ---------------------------------------------------------------------
 Center     Atomic      Atomic             Coordinates (Angstroms)
 Number     Number       Type             X           Y           Z
 ---------------------------------------------------------------------
      1         17           0        0.018820   -0.817304    0.000000
      2          1           0       -0.470488    0.569479    0.000000
      3          8           0        0.018820    1.665580    0.000000
 ---------------------------------------------------------------------
                    Distance matrix (angstroms):
                    1          2          3
     1  Cl   0.000000
     2  H    1.470575   0.000000
     3  O    2.482884   1.200358   0.000000
 Stoichiometry    ClHO(3)
 Framework group  CS[SG(ClHO)]
 Deg. of freedom     3
 Full point group                 CS      NOp   2
 Largest Abelian subgroup         CS      NOp   2
 Largest concise Abelian subgroup C1      NOp   1
                         Standard orientation:                         
 ---------------------------------------------------------------------
 Center     Atomic      Atomic             Coordinates (Angstroms)
 Number     Number       Type             X           Y           Z
 ---------------------------------------------------------------------
      1         17           0        0.018820   -0.817302    0.000000
      2          1           0       -0.470489    0.569481    0.000000
      3          8           0        0.018820    1.665582    0.000000
 ---------------------------------------------------------------------
 Rotational constants (GHZ):        2147.4086014           7.4294964           7.4038808
 Leave Link  202 at Wed Oct 21 14:40:33 2020, MaxMem=  2684354560 cpu:               3.0 elap:               1.6
 (Enter /udrive/faculty/rpeverati/g16/g16/l301.exe)
 Standard basis: VSTO-6G (5D, 7F)
 Ernie: Thresh=  0.10000D-02 Tol=  0.10000D-05 Strict=F.
 EHB=         0.000000000 Number of Hydrogen Bonds=     0
  NNHCO=     0 NNPyr=     0 NCTC=     0               EPep=         0.000000000
    EC=        12.223426459  ECS=         0.167302451   EG=         0.047021859
   EHC=         0.000037821  EAt=       -20.845789284  AtH=         0.224141636
 EPDDG=         0.000000000  ECC=        12.437788590 EAtT=        21.069930919
  EHyb=         0.000000000
 There are    11 symmetry adapted cartesian basis functions of A'  symmetry.
 There are     4 symmetry adapted cartesian basis functions of A"  symmetry.
 There are    10 symmetry adapted basis functions of A'  symmetry.
 There are     4 symmetry adapted basis functions of A"  symmetry.
    14 basis functions,    90 primitive gaussians,    15 cartesian basis functions
     8 alpha electrons        6 beta electrons
       nuclear repulsion energy        33.5077195096 Hartrees.
 IExCor=    0 DFT=F Ex=HF Corr=None ExCW=0 ScaHFX=  1.000000
 ScaDFX=  1.000000  1.000000  1.000000  1.000000 ScalE2=  1.000000  1.000000
 IRadAn=      5 IRanWt=     -1 IRanGd=            0 ICorTp=0 IEmpDi=251
 Integral buffers will be    131072 words long.
 Regular integral format.
 Two-electron integral symmetry is turned off.
 R6Disp:  PM7 Dispersion energy=       -0.0000255913 Hartrees.
 Nuclear repulsion after empirical dispersion term =       33.5076939183 Hartrees.
 Leave Link  301 at Wed Oct 21 14:40:35 2020, MaxMem=  2684354560 cpu:               4.0 elap:               1.6
 (Enter /udrive/faculty/rpeverati/g16/g16/l302.exe)
 Do NDO integrals.
 NPDir=0 NMtPBC=     1 NCelOv=     1 NCel=       1 NClECP=     1 NCelD=      1
         NCelK=      1 NCelE2=     1 NClLst=     1 CellRange=     0.0.
 One-electron integrals computed using PRISM.
 NBasis=    14 RedAO= T EigKep=  1.00D+00  NBF=    10     4
 NBsUse=    14 1.00D-06 EigRej= -1.00D+00 NBFU=    10     4
 Leave Link  302 at Wed Oct 21 14:40:37 2020, MaxMem=  2684354560 cpu:               7.0 elap:               1.4
 (Enter /udrive/faculty/rpeverati/g16/g16/l303.exe)
 DipDrv:  MaxL=1.
 Leave Link  303 at Wed Oct 21 14:40:38 2020, MaxMem=  2684354560 cpu:               2.9 elap:               1.0
 (Enter /udrive/faculty/rpeverati/g16/g16/l401.exe)
 SCF N**3 symmetry information disabled.
 Nonelectrostatic core Hamiltonian diagonalized for initial guess.
 JPrj=0 DoOrth=F DoCkMO=F.
 Initial guess orbital symmetries:
 Alpha Orbitals:
       Occupied  (A') (A') (A') (A') (A") (A') (A") (A')
       Virtual   (A') (A") (A') (A') (A") (A')
 Beta  Orbitals:
       Occupied  (A') (A') (A') (A') (A") (A')
       Virtual   (A") (A') (A') (A") (A') (A') (A") (A')
 The electronic state of the initial guess is 3-A".
 Initial guess <Sx>= 0.0000 <Sy>= 0.0000 <Sz>= 1.0000 <S**2>= 2.0000 S= 1.0000
 Leave Link  401 at Wed Oct 21 14:40:40 2020, MaxMem=  2684354560 cpu:               3.7 elap:               1.0
 (Enter /udrive/faculty/rpeverati/g16/g16/l502.exe)
 Keep J ints in memory in canonical form, NReq=1848261.
 FoFCou: FMM=F IPFlag=           0 FMFlag=           0 FMFlg1=           0
         NFxFlg=           0 DoJE=F BraDBF=F KetDBF=F FulRan=T
         wScrn=  0.000000 ICntrl=       600 IOpCl=  2 I1Cent=           0 NGrid=           0
         NMat0=    1 NMatS0=     56 NMatT0=    0 NMatD0=    1 NMtDS0=    0 NMtDT0=    0
 Symmetry not used in FoFCou.
 Two-electron integral symmetry not used.
 UHF open shell SCF:
 Using DIIS extrapolation, IDIIS=  1040.
 Overlap will be assumed to be unity.
 NGot=  2684354560 LenX=  2684292602 LenY=  2684291720
 Requested convergence on RMS density matrix=1.00D-08 within 120 cycles.
 Requested convergence on MAX density matrix=1.00D-06.
 Requested convergence on             energy=1.00D-06.
 No special actions if energy rises.

 Cycle   1  Pass 1  IDiag  1:
 E= 0.206292656768930    
 DIIS: error= 7.27D-02 at cycle   1 NSaved=   1.
 NSaved= 1 IEnMin= 1 EnMin= 0.206292656768930     IErMin= 1 ErrMin= 7.27D-02
 ErrMax= 7.27D-02  0.00D+00 EMaxC= 1.00D-01 BMatC= 1.21D-01 BMatP= 1.21D-01
 IDIUse=3 WtCom= 2.73D-01 WtEn= 7.27D-01
 Coeff-Com:  0.100D+01
 Coeff-En:   0.100D+01
 Coeff:      0.100D+01
 GapD=    2.000 DampG=2.000 DampE=0.500 DampFc=1.0000 IDamp=-1.
 RMSDP=2.48D-02 MaxDP=2.48D-01              OVMax= 0.00D+00

 Cycle   2  Pass 1  IDiag  1:
 E= 0.917468494170350E-01 Delta-E=       -0.114545807352 Rises=F Damp=F
 DIIS: error= 2.72D-02 at cycle   2 NSaved=   2.
 NSaved= 2 IEnMin= 2 EnMin= 0.917468494170350E-01 IErMin= 2 ErrMin= 2.72D-02
 ErrMax= 2.72D-02  0.00D+00 EMaxC= 1.00D-01 BMatC= 1.61D-02 BMatP= 1.21D-01
 IDIUse=3 WtCom= 7.28D-01 WtEn= 2.72D-01
 Coeff-Com: -0.421D+00 0.142D+01
 Coeff-En:   0.000D+00 0.100D+01
 Coeff:     -0.307D+00 0.131D+01
 RMSDP=1.13D-02 MaxDP=1.07D-01 DE=-1.15D-01 OVMax= 0.00D+00

 Cycle   3  Pass 1  IDiag  1:
 E= 0.750756457093473E-01 Delta-E=       -0.016671203708 Rises=F Damp=F
 DIIS: error= 6.98D-03 at cycle   3 NSaved=   3.
 NSaved= 3 IEnMin= 3 EnMin= 0.750756457093473E-01 IErMin= 3 ErrMin= 6.98D-03
 ErrMax= 6.98D-03  0.00D+00 EMaxC= 1.00D-01 BMatC= 1.02D-03 BMatP= 1.61D-02
 IDIUse=3 WtCom= 9.30D-01 WtEn= 6.98D-02
 Coeff-Com:  0.694D-01-0.463D+00 0.139D+01
 Coeff-En:   0.000D+00 0.000D+00 0.100D+01
 Coeff:      0.645D-01-0.430D+00 0.137D+01
 RMSDP=4.01D-03 MaxDP=3.15D-02 DE=-1.67D-02 OVMax= 0.00D+00

 Cycle   4  Pass 1  IDiag  3:
 E= 0.735922389818811E-01 Delta-E=       -0.001483406727 Rises=F Damp=F
 DIIS: error= 1.55D-03 at cycle   4 NSaved=   4.
 NSaved= 4 IEnMin= 4 EnMin= 0.735922389818811E-01 IErMin= 4 ErrMin= 1.55D-03
 ErrMax= 1.55D-03  0.00D+00 EMaxC= 1.00D-01 BMatC= 9.41D-05 BMatP= 1.02D-03
 IDIUse=3 WtCom= 9.84D-01 WtEn= 1.55D-02
 Coeff-Com: -0.318D-01 0.267D+00-0.104D+01 0.181D+01
 Coeff-En:   0.000D+00 0.000D+00 0.000D+00 0.100D+01
 Coeff:     -0.313D-01 0.263D+00-0.103D+01 0.179D+01
 Gap=     0.520 Goal=   None    Shift=    0.000
 Gap=     0.288 Goal=   None    Shift=    0.000
 RMSDP=1.97D-03 MaxDP=1.53D-02 DE=-1.48D-03 OVMax= 1.54D-02

 Cycle   5  Pass 1  IDiag  3:
 E= 0.733574479564751E-01 Delta-E=       -0.000234791025 Rises=F Damp=F
 DIIS: error= 6.37D-04 at cycle   5 NSaved=   5.
 NSaved= 5 IEnMin= 5 EnMin= 0.733574479564751E-01 IErMin= 5 ErrMin= 6.37D-04
 ErrMax= 6.37D-04  0.00D+00 EMaxC= 1.00D-01 BMatC= 1.25D-05 BMatP= 9.41D-05
 IDIUse=3 WtCom= 9.94D-01 WtEn= 6.37D-03
 Coeff-Com:  0.796D-02-0.915D-01 0.425D+00-0.107D+01 0.172D+01
 Coeff-En:   0.000D+00 0.000D+00 0.000D+00 0.000D+00 0.100D+01
 Coeff:      0.791D-02-0.909D-01 0.422D+00-0.106D+01 0.172D+01
 Gap=     0.519 Goal=   None    Shift=    0.000
 Gap=     0.289 Goal=   None    Shift=    0.000
 RMSDP=9.29D-04 MaxDP=7.50D-03 DE=-2.35D-04 OVMax= 7.64D-03

 Cycle   6  Pass 1  IDiag  3:
 E= 0.733150261852913E-01 Delta-E=       -0.000042421771 Rises=F Damp=F
 DIIS: error= 2.62D-04 at cycle   6 NSaved=   6.
 NSaved= 6 IEnMin= 6 EnMin= 0.733150261852913E-01 IErMin= 6 ErrMin= 2.62D-04
 ErrMax= 2.62D-04  0.00D+00 EMaxC= 1.00D-01 BMatC= 2.96D-06 BMatP= 1.25D-05
 IDIUse=3 WtCom= 9.97D-01 WtEn= 2.62D-03
 Coeff-Com: -0.599D-02 0.661D-01-0.310D+00 0.823D+00-0.158D+01 0.200D+01
 Coeff-En:   0.000D+00 0.000D+00 0.000D+00 0.000D+00 0.000D+00 0.100D+01
 Coeff:     -0.598D-02 0.659D-01-0.309D+00 0.821D+00-0.157D+01 0.200D+01
 Gap=     0.519 Goal=   None    Shift=    0.000
 Gap=     0.289 Goal=   None    Shift=    0.000
 RMSDP=5.78D-04 MaxDP=5.39D-03 DE=-4.24D-05 OVMax= 6.20D-03

 Cycle   7  Pass 1  IDiag  3:
 E= 0.732996374191472E-01 Delta-E=       -0.000015388766 Rises=F Damp=F
 DIIS: error= 2.51D-04 at cycle   7 NSaved=   7.
 NSaved= 7 IEnMin= 7 EnMin= 0.732996374191472E-01 IErMin= 7 ErrMin= 2.51D-04
 ErrMax= 2.51D-04  0.00D+00 EMaxC= 1.00D-01 BMatC= 1.36D-06 BMatP= 2.96D-06
 IDIUse=3 WtCom= 9.97D-01 WtEn= 2.51D-03
 Coeff-Com:  0.249D-02-0.271D-01 0.124D+00-0.351D+00 0.769D+00-0.169D+01
 Coeff-Com:  0.217D+01
 Coeff-En:   0.000D+00 0.000D+00 0.000D+00 0.000D+00 0.000D+00 0.000D+00
 Coeff-En:   0.100D+01
 Coeff:      0.249D-02-0.270D-01 0.124D+00-0.350D+00 0.767D+00-0.169D+01
 Coeff:      0.217D+01
 Gap=     0.518 Goal=   None    Shift=    0.000
 Gap=     0.289 Goal=   None    Shift=    0.000
 RMSDP=5.86D-04 MaxDP=5.00D-03 DE=-1.54D-05 OVMax= 5.99D-03

 Cycle   8  Pass 1  IDiag  3:
 E= 0.732888949003865E-01 Delta-E=       -0.000010742519 Rises=F Damp=F
 DIIS: error= 2.45D-04 at cycle   8 NSaved=   8.
 NSaved= 8 IEnMin= 8 EnMin= 0.732888949003865E-01 IErMin= 8 ErrMin= 2.45D-04
 ErrMax= 2.45D-04  0.00D+00 EMaxC= 1.00D-01 BMatC= 7.69D-07 BMatP= 1.36D-06
 IDIUse=3 WtCom= 9.98D-01 WtEn= 2.45D-03
 Coeff-Com: -0.309D-02 0.280D-01-0.122D+00 0.355D+00-0.800D+00 0.227D+01
 Coeff-Com: -0.400D+01 0.327D+01
 Coeff-En:   0.000D+00 0.000D+00 0.000D+00 0.000D+00 0.000D+00 0.000D+00
 Coeff-En:   0.000D+00 0.100D+01
 Coeff:     -0.309D-02 0.279D-01-0.122D+00 0.355D+00-0.798D+00 0.227D+01
 Coeff:     -0.399D+01 0.327D+01
 Gap=     0.518 Goal=   None    Shift=    0.000
 Gap=     0.289 Goal=   None    Shift=    0.000
 RMSDP=6.81D-04 MaxDP=6.97D-03 DE=-1.07D-05 OVMax= 7.40D-03

 Cycle   9  Pass 1  IDiag  3:
 E= 0.732796726739480E-01 Delta-E=       -0.000009222226 Rises=F Damp=F
 DIIS: error= 1.73D-04 at cycle   9 NSaved=   9.
 NSaved= 9 IEnMin= 9 EnMin= 0.732796726739480E-01 IErMin= 9 ErrMin= 1.73D-04
 ErrMax= 1.73D-04  0.00D+00 EMaxC= 1.00D-01 BMatC= 4.01D-07 BMatP= 7.69D-07
 IDIUse=3 WtCom= 9.98D-01 WtEn= 1.73D-03
 Coeff-Com:  0.103D-02-0.796D-02 0.296D-01-0.108D+00 0.299D+00-0.145D+01
 Coeff-Com:  0.318D+01-0.357D+01 0.263D+01
 Coeff-En:   0.000D+00 0.000D+00 0.000D+00 0.000D+00 0.000D+00 0.000D+00
 Coeff-En:   0.000D+00 0.000D+00 0.100D+01
 Coeff:      0.103D-02-0.794D-02 0.296D-01-0.107D+00 0.299D+00-0.144D+01
 Coeff:      0.317D+01-0.357D+01 0.263D+01
 Gap=     0.517 Goal=   None    Shift=    0.000
 Gap=     0.289 Goal=   None    Shift=    0.000
 RMSDP=6.25D-04 MaxDP=6.67D-03 DE=-9.22D-06 OVMax= 7.67D-03

 Cycle  10  Pass 1  IDiag  3:
 E= 0.732737916038602E-01 Delta-E=       -0.000005881070 Rises=F Damp=F
 DIIS: error= 1.04D-04 at cycle  10 NSaved=  10.
 NSaved=10 IEnMin=10 EnMin= 0.732737916038602E-01 IErMin=10 ErrMin= 1.04D-04
 ErrMax= 1.04D-04  0.00D+00 EMaxC= 1.00D-01 BMatC= 2.27D-07 BMatP= 4.01D-07
 IDIUse=3 WtCom= 9.99D-01 WtEn= 1.04D-03
 Coeff-Com: -0.299D-03 0.836D-03 0.229D-03 0.306D-01-0.118D+00 0.110D+01
 Coeff-Com: -0.285D+01 0.383D+01-0.400D+01 0.301D+01
 Coeff-En:   0.000D+00 0.000D+00 0.000D+00 0.000D+00 0.000D+00 0.000D+00
 Coeff-En:   0.000D+00 0.000D+00 0.000D+00 0.100D+01
 Coeff:     -0.299D-03 0.835D-03 0.228D-03 0.306D-01-0.118D+00 0.110D+01
 Coeff:     -0.284D+01 0.382D+01-0.399D+01 0.300D+01
 Gap=     0.517 Goal=   None    Shift=    0.000
 Gap=     0.288 Goal=   None    Shift=    0.000
 RMSDP=5.15D-04 MaxDP=5.39D-03 DE=-5.88D-06 OVMax= 6.94D-03

 Cycle  11  Pass 1  IDiag  3:
 E= 0.732702001863785E-01 Delta-E=       -0.000003591417 Rises=F Damp=F
 DIIS: error= 6.11D-05 at cycle  11 NSaved=  11.
 NSaved=11 IEnMin=11 EnMin= 0.732702001863785E-01 IErMin=11 ErrMin= 6.11D-05
 ErrMax= 6.11D-05  0.00D+00 EMaxC= 1.00D-01 BMatC= 1.08D-07 BMatP= 2.27D-07
 IDIUse=1 WtCom= 1.00D+00 WtEn= 0.00D+00
 Coeff-Com: -0.828D-03 0.666D-02-0.277D-01 0.447D-01-0.427D-01-0.564D+00
 Coeff-Com:  0.171D+01-0.241D+01 0.298D+01-0.419D+01 0.350D+01
 Coeff:     -0.828D-03 0.666D-02-0.277D-01 0.447D-01-0.427D-01-0.564D+00
 Coeff:      0.171D+01-0.241D+01 0.298D+01-0.419D+01 0.350D+01
 Gap=     0.517 Goal=   None    Shift=    0.000
 Gap=     0.288 Goal=   None    Shift=    0.000
 RMSDP=7.88D-04 MaxDP=8.00D-03 DE=-3.59D-06 OVMax= 1.07D-02

 Cycle  12  Pass 1  IDiag  3:
 E= 0.732676385392992E-01 Delta-E=       -0.000002561647 Rises=F Damp=F
 DIIS: error= 1.30D-05 at cycle  12 NSaved=  12.
 NSaved=12 IEnMin=12 EnMin= 0.732676385392992E-01 IErMin=12 ErrMin= 1.30D-05
 ErrMax= 1.30D-05  0.00D+00 EMaxC= 1.00D-01 BMatC= 8.88D-09 BMatP= 1.08D-07
 IDIUse=1 WtCom= 1.00D+00 WtEn= 0.00D+00
 Coeff-Com: -0.208D-03 0.126D-02-0.372D-02-0.101D-02 0.226D-01-0.185D+00
 Coeff-Com:  0.415D+00-0.501D+00 0.554D+00-0.531D+00 0.174D+00 0.105D+01
 Coeff:     -0.208D-03 0.126D-02-0.372D-02-0.101D-02 0.226D-01-0.185D+00
 Coeff:      0.415D+00-0.501D+00 0.554D+00-0.531D+00 0.174D+00 0.105D+01
 Gap=     0.517 Goal=   None    Shift=    0.000
 Gap=     0.288 Goal=   None    Shift=    0.000
 RMSDP=8.12D-05 MaxDP=7.86D-04 DE=-2.56D-06 OVMax= 1.11D-03

 Cycle  13  Pass 1  IDiag  3:
 E= 0.732675876197035E-01 Delta-E=       -0.000000050920 Rises=F Damp=F
 DIIS: error= 4.16D-06 at cycle  13 NSaved=  13.
 NSaved=13 IEnMin=13 EnMin= 0.732675876197035E-01 IErMin=13 ErrMin= 4.16D-06
 ErrMax= 4.16D-06  0.00D+00 EMaxC= 1.00D-01 BMatC= 8.96D-10 BMatP= 8.88D-09
 IDIUse=1 WtCom= 1.00D+00 WtEn= 0.00D+00
 Coeff-Com:  0.830D-04-0.617D-03 0.235D-02-0.263D-02-0.111D-02 0.694D-01
 Coeff-Com: -0.187D+00 0.245D+00-0.280D+00 0.383D+00-0.338D+00-0.176D+00
 Coeff-Com:  0.129D+01
 Coeff:      0.830D-04-0.617D-03 0.235D-02-0.263D-02-0.111D-02 0.694D-01
 Coeff:     -0.187D+00 0.245D+00-0.280D+00 0.383D+00-0.338D+00-0.176D+00
 Coeff:      0.129D+01
 Gap=     0.517 Goal=   None    Shift=    0.000
 Gap=     0.288 Goal=   None    Shift=    0.000
 RMSDP=4.05D-05 MaxDP=3.97D-04 DE=-5.09D-08 OVMax= 5.53D-04

 Cycle  14  Pass 1  IDiag  3:
 E= 0.732675795991682E-01 Delta-E=       -0.000000008021 Rises=F Damp=F
 DIIS: error= 1.55D-06 at cycle  14 NSaved=  14.
 NSaved=14 IEnMin=14 EnMin= 0.732675795991682E-01 IErMin=14 ErrMin= 1.55D-06
 ErrMax= 1.55D-06  0.00D+00 EMaxC= 1.00D-01 BMatC= 8.47D-11 BMatP= 8.96D-10
 IDIUse=1 WtCom= 1.00D+00 WtEn= 0.00D+00
 Coeff-Com:  0.192D-04-0.153D-03 0.644D-03-0.250D-02 0.657D-02-0.286D-01
 Coeff-Com:  0.591D-01-0.587D-01 0.407D-01-0.436D-01 0.495D-01 0.498D-01
 Coeff-Com: -0.560D+00 0.149D+01
 Coeff:      0.192D-04-0.153D-03 0.644D-03-0.250D-02 0.657D-02-0.286D-01
 Coeff:      0.591D-01-0.587D-01 0.407D-01-0.436D-01 0.495D-01 0.498D-01
 Coeff:     -0.560D+00 0.149D+01
 Gap=     0.517 Goal=   None    Shift=    0.000
 Gap=     0.288 Goal=   None    Shift=    0.000
 RMSDP=6.02D-06 MaxDP=5.70D-05 DE=-8.02D-09 OVMax= 8.11D-05

 Cycle  15  Pass 1  IDiag  3:
 E= 0.732675792993405E-01 Delta-E=       -0.000000000300 Rises=F Damp=F
 DIIS: error= 2.94D-07 at cycle  15 NSaved=  15.
 NSaved=15 IEnMin=15 EnMin= 0.732675792993405E-01 IErMin=15 ErrMin= 2.94D-07
 ErrMax= 2.94D-07  0.00D+00 EMaxC= 1.00D-01 BMatC= 4.79D-12 BMatP= 8.47D-11
 IDIUse=1 WtCom= 1.00D+00 WtEn= 0.00D+00
 Coeff-Com: -0.908D-05 0.919D-04-0.424D-03 0.124D-02-0.259D-02 0.620D-02
 Coeff-Com: -0.104D-01 0.750D-02 0.819D-03-0.106D-01 0.814D-02-0.101D-01
 Coeff-Com:  0.112D+00-0.479D+00 0.138D+01
 Coeff:     -0.908D-05 0.919D-04-0.424D-03 0.124D-02-0.259D-02 0.620D-02
 Coeff:     -0.104D-01 0.750D-02 0.819D-03-0.106D-01 0.814D-02-0.101D-01
 Coeff:      0.112D+00-0.479D+00 0.138D+01
 Gap=     0.517 Goal=   None    Shift=    0.000
 Gap=     0.288 Goal=   None    Shift=    0.000
 RMSDP=2.07D-06 MaxDP=2.08D-05 DE=-3.00D-10 OVMax= 2.75D-05

 Cycle  16  Pass 1  IDiag  3:
 E= 0.732675792792392E-01 Delta-E=       -0.000000000020 Rises=F Damp=F
 DIIS: error= 6.51D-08 at cycle  16 NSaved=  16.
 NSaved=16 IEnMin=16 EnMin= 0.732675792792392E-01 IErMin=16 ErrMin= 6.51D-08
 ErrMax= 6.51D-08  0.00D+00 EMaxC= 1.00D-01 BMatC= 2.15D-13 BMatP= 4.79D-12
 IDIUse=1 WtCom= 1.00D+00 WtEn= 0.00D+00
 Coeff-Com:  0.145D-06-0.909D-06 0.388D-05-0.611D-04 0.206D-03-0.143D-02
 Coeff-Com:  0.337D-02-0.347D-02 0.217D-02-0.152D-03-0.388D-03 0.143D-02
 Coeff-Com: -0.188D-01 0.852D-01-0.388D+00 0.132D+01
 Coeff:      0.145D-06-0.909D-06 0.388D-05-0.611D-04 0.206D-03-0.143D-02
 Coeff:      0.337D-02-0.347D-02 0.217D-02-0.152D-03-0.388D-03 0.143D-02
 Coeff:     -0.188D-01 0.852D-01-0.388D+00 0.132D+01
 Gap=     0.517 Goal=   None    Shift=    0.000
 Gap=     0.288 Goal=   None    Shift=    0.000
 RMSDP=1.80D-07 MaxDP=1.60D-06 DE=-2.01D-11 OVMax= 2.31D-06

 Cycle  17  Pass 1  IDiag  3:
 E= 0.732675792789053E-01 Delta-E=       -0.000000000000 Rises=F Damp=F
 DIIS: error= 1.93D-08 at cycle  17 NSaved=  17.
 NSaved=17 IEnMin=17 EnMin= 0.732675792789053E-01 IErMin=17 ErrMin= 1.93D-08
 ErrMax= 1.93D-08  0.00D+00 EMaxC= 1.00D-01 BMatC= 1.26D-14 BMatP= 2.15D-13
 IDIUse=1 WtCom= 1.00D+00 WtEn= 0.00D+00
 Coeff-Com:  0.453D-06-0.501D-05 0.236D-04-0.458D-04 0.540D-04 0.287D-03
 Coeff-Com: -0.875D-03 0.991D-03-0.638D-03 0.870D-04 0.245D-04-0.409D-03
 Coeff-Com:  0.504D-02-0.202D-01 0.975D-01-0.450D+00 0.137D+01
 Coeff:      0.453D-06-0.501D-05 0.236D-04-0.458D-04 0.540D-04 0.287D-03
 Coeff:     -0.875D-03 0.991D-03-0.638D-03 0.870D-04 0.245D-04-0.409D-03
 Coeff:      0.504D-02-0.202D-01 0.975D-01-0.450D+00 0.137D+01
 Gap=     0.517 Goal=   None    Shift=    0.000
 Gap=     0.288 Goal=   None    Shift=    0.000
 RMSDP=3.66D-08 MaxDP=2.96D-07 DE=-3.34D-13 OVMax= 3.86D-07

 Cycle  18  Pass 1  IDiag  3:
 E= 0.732675792788697E-01 Delta-E=       -0.000000000000 Rises=F Damp=F
 DIIS: error= 4.00D-09 at cycle  18 NSaved=  18.
 NSaved=18 IEnMin=18 EnMin= 0.732675792788697E-01 IErMin=18 ErrMin= 4.00D-09
 ErrMax= 4.00D-09  0.00D+00 EMaxC= 1.00D-01 BMatC= 7.84D-16 BMatP= 1.26D-14
 IDIUse=1 WtCom= 1.00D+00 WtEn= 0.00D+00
 Large coefficients: NSaved= 18 BigCof=    0.00 CofMax=   10.00 Det=-1.19D-15
 Inversion failed.  Reducing to 17 matrices.
 Large coefficients: NSaved= 17 BigCof=    0.00 CofMax=   10.00 Det=-1.39D-15
 Inversion failed.  Reducing to 16 matrices.
 Large coefficients: NSaved= 16 BigCof=    0.00 CofMax=   10.00 Det=-1.60D-15
 Inversion failed.  Reducing to 15 matrices.
 Coeff-Com: -0.545D-05 0.225D-04-0.136D-03 0.288D-03-0.277D-03 0.130D-03
 Coeff-Com: -0.538D-05 0.159D-04 0.144D-03-0.151D-02 0.490D-02-0.175D-01
 Coeff-Com:  0.734D-01-0.407D+00 0.135D+01
 Coeff:     -0.545D-05 0.225D-04-0.136D-03 0.288D-03-0.277D-03 0.130D-03
 Coeff:     -0.538D-05 0.159D-04 0.144D-03-0.151D-02 0.490D-02-0.175D-01
 Coeff:      0.734D-01-0.407D+00 0.135D+01
 Gap=     0.517 Goal=   None    Shift=    0.000
 Gap=     0.288 Goal=   None    Shift=    0.000
 RMSDP=1.22D-08 MaxDP=1.15D-07 DE=-3.55D-14 OVMax= 1.51D-07

 Cycle  19  Pass 1  IDiag  3:
 E= 0.732675792788982E-01 Delta-E=        0.000000000000 Rises=F Damp=F
 DIIS: error= 1.11D-09 at cycle  19 NSaved=  16.
 NSaved=16 IEnMin=15 EnMin= 0.732675792788697E-01 IErMin=16 ErrMin= 1.11D-09
 ErrMax= 1.11D-09  0.00D+00 EMaxC= 1.00D-01 BMatC= 3.68D-17 BMatP= 7.84D-16
 IDIUse=1 WtCom= 1.00D+00 WtEn= 0.00D+00
 Large coefficients: NSaved= 16 BigCof=    0.00 CofMax=   10.00 Det=-1.04D-16
 Inversion failed.  Reducing to 15 matrices.
 Coeff-Com: -0.115D-06-0.443D-05 0.166D-04-0.275D-04 0.408D-04-0.519D-04
 Coeff-Com:  0.354D-04 0.340D-05-0.350D-04-0.259D-04 0.583D-03-0.642D-03
 Coeff-Com:  0.233D-01-0.292D+00 0.127D+01
 Coeff:     -0.115D-06-0.443D-05 0.166D-04-0.275D-04 0.408D-04-0.519D-04
 Coeff:      0.354D-04 0.340D-05-0.350D-04-0.259D-04 0.583D-03-0.642D-03
 Coeff:      0.233D-01-0.292D+00 0.127D+01
 Gap=     0.517 Goal=   None    Shift=    0.000
 Gap=     0.288 Goal=   None    Shift=    0.000
 RMSDP=1.28D-09 MaxDP=1.08D-08 DE= 2.84D-14 OVMax= 1.09D-08

 Cycle  20  Pass 2  IDiag  1:
 SCF Done:  E(UPM7) =  0.732675792789E-01 A.U. after   20 cycles
            NFock= 19  Conv=0.13D-08     -V/T= 1.0021
 <Sx>= 0.0000 <Sy>= 0.0000 <Sz>= 1.0000 <S**2>= 2.0141 S= 1.0047
 <L.S>= 0.000000000000E+00
 KE=-3.429898704660D+01 PE=-2.363584131172D+01 EE= 2.450040201930D+01
 Annihilation of the first spin contaminant:
 S**2 before annihilation     2.0141,   after     2.0000
 Leave Link  502 at Wed Oct 21 14:40:45 2020, MaxMem=  2684354560 cpu:              37.8 elap:               4.5
 (Enter /udrive/faculty/rpeverati/g16/g16/l508.exe)
 QCSCF skips out because SCF is already converged.
 Leave Link  508 at Wed Oct 21 14:40:46 2020, MaxMem=  2684354560 cpu:               1.0 elap:               0.6
 (Enter /udrive/faculty/rpeverati/g16/g16/l601.exe)
 Copying SCF densities to generalized density rwf, IOpCl= 1 IROHF=0.

 **********************************************************************

            Population analysis using the SCF density.

 **********************************************************************

 Orbital symmetries:
 Alpha Orbitals:
       Occupied  (A') (A') (A') (A") (A') (A') (A") (A')
       Virtual   (A') (A') (A") (A') (A") (A')
 Beta  Orbitals:
       Occupied  (A') (A') (A') (A') (A") (A')
       Virtual   (A') (A") (A') (A') (A") (A') (A') (A")
 The electronic state is 3-A".
 Alpha  occ. eigenvalues --   -1.21237  -0.97968  -0.66667  -0.56801  -0.51346
 Alpha  occ. eigenvalues --   -0.44300  -0.43063  -0.43011
 Alpha virt. eigenvalues --    0.08646   2.55856   2.56909   2.56999   2.61018
 Alpha virt. eigenvalues --    2.61019
  Beta  occ. eigenvalues --   -0.95066  -0.87749  -0.58506  -0.42869  -0.42778
  Beta  occ. eigenvalues --   -0.42043
  Beta virt. eigenvalues --   -0.13213  -0.08737   0.11063   2.57220   2.57987
  Beta virt. eigenvalues --    2.58117   2.61154   2.61155
          Condensed to atoms (all electrons):
               1          2          3
     1  Cl   7.249767   0.000000   0.000000
     2  H    0.000000   0.737007   0.000000
     3  O    0.000000   0.000000   6.013226
          Atomic-Atomic Spin Densities.
               1          2          3
     1  Cl   0.418969   0.000000   0.000000
     2  H    0.000000  -0.103510   0.000000
     3  O    0.000000   0.000000   1.684541
 Mulliken charges and spin densities:
               1          2
     1  Cl  -0.249767   0.418969
     2  H    0.262993  -0.103510
     3  O   -0.013226   1.684541
 Sum of Mulliken charges =   0.00000   2.00000
 Mulliken charges and spin densities with hydrogens summed into heavy atoms:
               1          2
     1  Cl  -0.249767   0.418969
     3  O    0.249767   1.581031
 Charge=              0.0000 electrons
 Dipole moment (field-independent basis, Debye):
    X=             -0.7280    Y=              1.8021    Z=              0.0000  Tot=              1.9436
 N-N= 3.350769391830D+01 E-N=-2.363584131444D+01  KE=-3.429898704660D+01
 Leave Link  601 at Wed Oct 21 14:40:48 2020, MaxMem=  2684354560 cpu:               3.4 elap:               1.5
 (Enter /udrive/faculty/rpeverati/g16/g16/l701.exe)
 ... and contract with generalized density number  0.
 Compute integral first derivatives.
 R6Disp: Adding PM7 dispersion energy 1st derivatives to the gradient.
 Leave Link  701 at Wed Oct 21 14:40:51 2020, MaxMem=  2684354560 cpu:               5.8 elap:               1.6
 (Enter /udrive/faculty/rpeverati/g16/g16/l702.exe)
 L702 exits ... SP integral derivatives will be done elsewhere.
 Leave Link  702 at Wed Oct 21 14:40:52 2020, MaxMem=  2684354560 cpu:               3.2 elap:               1.0
 (Enter /udrive/faculty/rpeverati/g16/g16/l703.exe)
 Integral derivatives from FoFJK, PRISM(SPDF).
 Compute integral first derivatives, UseDBF=F ICtDFT=           0.
 Calling FoFJK, ICntrl=      2127 FMM=F ISym2X=1 I1Cent= 0 IOpClX= 1 NMat=1 NMatS=1 NMatT=0.
 FoFJK:  IHMeth=43 ICntrl=    2127 DoSepK=F KAlg= 0 I1Cent=           0 FoldK=F
 IRaf=         0 NMat=       1 IRICut=       1 DoRegI=T DoRafI=F ISym2E= 1 IDoP0=3 IntGTp=3.
 FoFCou: FMM=F IPFlag=           0 FMFlag=      100000 FMFlg1=         800
         NFxFlg=           0 DoJE=F BraDBF=F KetDBF=F FulRan=T
         wScrn=  0.000000 ICntrl=      2127 IOpCl=  1 I1Cent=           0 NGrid=           0
         NMat0=    1 NMatS0=      1 NMatT0=    0 NMatD0=    1 NMtDS0=    0 NMtDT0=    0
 Petite list used in FoFCou.
 Leave Link  703 at Wed Oct 21 14:40:54 2020, MaxMem=  2684354560 cpu:               4.1 elap:               1.2
 (Enter /udrive/faculty/rpeverati/g16/g16/l716.exe)
 Dipole        =-2.86434078D-01 7.09014674D-01 6.23782805D-18
 ***** Axes restored to original set *****
 -------------------------------------------------------------------
 Center     Atomic                   Forces (Hartrees/Bohr)
 Number     Number              X              Y              Z
 -------------------------------------------------------------------
      1       17          -0.000772789    0.009713758    0.000000000
      2        1          -0.000325744   -0.004651042   -0.000000000
      3        8           0.001098533   -0.005062716    0.000000000
 -------------------------------------------------------------------
 Cartesian Forces:  Max     0.009713758 RMS     0.003993473
 Leave Link  716 at Wed Oct 21 14:40:56 2020, MaxMem=  2684354560 cpu:               3.2 elap:               1.1
 (Enter /udrive/faculty/rpeverati/g16/g16/l103.exe)

 GradGradGradGradGradGradGradGradGradGradGradGradGradGradGradGradGradGrad
 Berny optimization.
 Optmz: redundant internal coordinate code flag= 1
 FormGI is forming the generalized inverse of G from B-inverse, IUseBI=4.
 Internal  Forces:  Max     0.009417412 RMS     0.007176714
 Search for a saddle point.
 Step number   1 out of a maximum of   50
 All quantities printed in internal units (Hartrees-Bohrs-Radians)
 Swapping is turned off.
 Second derivative matrix not updated -- first step.
 The second derivative matrix:
                          R1        R2        A1
           R1           0.18225
           R2           0.00000   0.24639
           A1           0.00000   0.00000   0.25000
 ITU=  0
 Eigenvectors of the second derivative matrix:
                           1         2         3
     Eigenvalues --     0.18225   0.24639   0.25000
   1         R1        -1.00000   0.00000   0.00000
   2         R2         0.00000   1.00000   0.00000
   3         A1        -0.00000   0.00000  -1.00000
 Eigenvalue     1 is   1.82D-01 should be less than     0.000000 Eigenvector:
                          R1        A1        R2
   1                   -1.00000  -0.00000   0.00000
 RLam0= 1.83D-01.
 Iter=   1 RLamda= 0.00000000D+00 Sum=-2.64333249D-04.
 Iter=   2 RLamda=-2.64333249D-04 Sum=-2.64052963D-04.
 Iter=   3 RLamda=-2.64052963D-04 Sum=-2.64053260D-04.
 RFO step:  Lambda0=1.827349176D-01 Lambda=-2.64052963D-04.
 Linear search not attempted -- option 19 set.
 Iteration  1 RMS(Cart)=  0.02080938 RMS(Int)=  0.00023338
 Iteration  2 RMS(Cart)=  0.00020083 RMS(Int)=  0.00000000
 Iteration  3 RMS(Cart)=  0.00000000 RMS(Int)=  0.00000000
 ITry= 1 IFail=0 DXMaxC= 2.21D-02 DCOld= 1.00D+10 DXMaxT= 1.00D-01 DXLimC= 3.00D+00 Rises=F
 ClnCor:  largest displacement from symmetrization is 0.00D+00 for atom     0.
 Variable       Old X    -DE/DX   Delta X   Delta X   Delta X     New X
                                 (Linear)    (Quad)   (Total)
    R1        2.77898  -0.00942   0.00000   0.03255   0.03255   2.81153
    R2        2.26835  -0.00418   0.00000  -0.01693  -0.01693   2.25142
    A1        2.38253  -0.00696   0.00000  -0.02780  -0.02780   2.35473
         Item               Value     Threshold  Converged?
 Maximum Force            0.009417     0.000450     NO 
 RMS     Force            0.007177     0.000300     NO 
 Maximum Displacement     0.022143     0.001800     NO 
 RMS     Displacement     0.020838     0.001200     NO 
 Predicted change in Energy= 2.708529D-04
 Lowest energy point so far.  Saving SCF results.
 Largest change from initial coordinates is atom    2       0.009 Angstoms.
 GradGradGradGradGradGradGradGradGradGradGradGradGradGradGradGradGradGrad

 Leave Link  103 at Wed Oct 21 14:40:58 2020, MaxMem=  2684354560 cpu:               9.8 elap:               1.7
 (Enter /udrive/faculty/rpeverati/g16/g16/l202.exe)
                          Input orientation:                          
 ---------------------------------------------------------------------
 Center     Atomic      Atomic             Coordinates (Angstroms)
 Number     Number       Type             X           Y           Z
 ---------------------------------------------------------------------
      1         17           0        0.025892   -0.819235    0.000000
      2          1           0       -0.482206    0.579113    0.000000
      3          8           0        0.023466    1.657877    0.000000
 ---------------------------------------------------------------------
                    Distance matrix (angstroms):
                    1          2          3
     1  Cl   0.000000
     2  H    1.487797   0.000000
     3  O    2.477113   1.191400   0.000000
 Stoichiometry    ClHO(3)
 Framework group  CS[SG(ClHO)]
 Deg. of freedom     3
 Full point group                 CS      NOp   2
 RotChk:  IX=0 Diff= 1.39D-03
 Largest Abelian subgroup         CS      NOp   2
 Largest concise Abelian subgroup C1      NOp   1
                         Standard orientation:                         
 ---------------------------------------------------------------------
 Center     Atomic      Atomic             Coordinates (Angstroms)
 Number     Number       Type             X           Y           Z
 ---------------------------------------------------------------------
      1         17           0        0.019490   -0.815990    0.000000
      2          1           0       -0.487238    0.582855    0.000000
      3          8           0        0.019490    1.661123    0.000000
 ---------------------------------------------------------------------
 Rotational constants (GHZ):        2002.8587063           7.4620900           7.4343915
 Leave Link  202 at Wed Oct 21 14:41:00 2020, MaxMem=  2684354560 cpu:               4.2 elap:               1.1
 (Enter /udrive/faculty/rpeverati/g16/g16/l301.exe)
 Standard basis: VSTO-6G (5D, 7F)
 Ernie: Thresh=  0.10000D-02 Tol=  0.10000D-05 Strict=F.
 EHB=         0.000000000 Number of Hydrogen Bonds=     0
  NNHCO=     0 NNPyr=     0 NCTC=     0               EPep=         0.000000000
    EC=        12.233773526  ECS=         0.167140639   EG=         0.046573352
   EHC=         0.000037874  EAt=       -20.845789284  AtH=         0.224141636
 EPDDG=         0.000000000  ECC=        12.447525391 EAtT=        21.069930919
  EHyb=         0.000000000
 There are    11 symmetry adapted cartesian basis functions of A'  symmetry.
 There are     4 symmetry adapted cartesian basis functions of A"  symmetry.
 There are    10 symmetry adapted basis functions of A'  symmetry.
 There are     4 symmetry adapted basis functions of A"  symmetry.
    14 basis functions,    90 primitive gaussians,    15 cartesian basis functions
     8 alpha electrons        6 beta electrons
       nuclear repulsion energy        33.5174563107 Hartrees.
 IExCor=    0 DFT=F Ex=HF Corr=None ExCW=0 ScaHFX=  1.000000
 ScaDFX=  1.000000  1.000000  1.000000  1.000000 ScalE2=  1.000000  1.000000
 IRadAn=      5 IRanWt=     -1 IRanGd=            0 ICorTp=0 IEmpDi=251
 Integral buffers will be    131072 words long.
 Regular integral format.
 Two-electron integral symmetry is turned off.
 R6Disp:  PM7 Dispersion energy=       -0.0000254422 Hartrees.
 Nuclear repulsion after empirical dispersion term =       33.5174308684 Hartrees.
 Leave Link  301 at Wed Oct 21 14:41:02 2020, MaxMem=  2684354560 cpu:               4.8 elap:               1.6
 (Enter /udrive/faculty/rpeverati/g16/g16/l302.exe)
 Do NDO integrals.
 NPDir=0 NMtPBC=     1 NCelOv=     1 NCel=       1 NClECP=     1 NCelD=      1
         NCelK=      1 NCelE2=     1 NClLst=     1 CellRange=     0.0.
 One-electron integrals computed using PRISM.
 NBasis=    14 RedAO= T EigKep=  1.00D+00  NBF=    10     4
 NBsUse=    14 1.00D-06 EigRej= -1.00D+00 NBFU=    10     4
 Leave Link  302 at Wed Oct 21 14:41:04 2020, MaxMem=  2684354560 cpu:               7.1 elap:               1.6
 (Enter /udrive/faculty/rpeverati/g16/g16/l303.exe)
 DipDrv:  MaxL=1.
 Leave Link  303 at Wed Oct 21 14:41:06 2020, MaxMem=  2684354560 cpu:               2.9 elap:               1.4
 (Enter /udrive/faculty/rpeverati/g16/g16/l401.exe)
 Initial guess from the checkpoint file:  "MN_91_RKT17_BH76_PM7_SE.chk"
 SCF N**3 symmetry information disabled.
 B after Tr=    -0.000000    0.000000    0.000000
         Rot=    1.000000    0.000000    0.000000   -0.000050 Ang=  -0.01 deg.
 Guess basis will be translated and rotated to current coordinates.
 JPrj=0 DoOrth=T DoCkMO=T.
 Initial guess orbital symmetries:
 Alpha Orbitals:
       Occupied  (A') (A') (A') (A") (A') (A') (A") (A')
       Virtual   (A') (A') (A") (A') (A") (A')
 Beta  Orbitals:
       Occupied  (A') (A') (A') (A') (A") (A')
       Virtual   (A') (A") (A') (A') (A") (A') (A') (A")
 The electronic state of the initial guess is 3-A".
 Initial guess <Sx>= 0.0000 <Sy>= 0.0000 <Sz>= 1.0000 <S**2>= 2.0141 S= 1.0047
 Leave Link  401 at Wed Oct 21 14:41:09 2020, MaxMem=  2684354560 cpu:               5.3 elap:               1.6
 (Enter /udrive/faculty/rpeverati/g16/g16/l502.exe)
 Keep J ints in memory in canonical form, NReq=1848261.
 FoFCou: FMM=F IPFlag=           0 FMFlag=           0 FMFlg1=           0
         NFxFlg=           0 DoJE=F BraDBF=F KetDBF=F FulRan=T
         wScrn=  0.000000 ICntrl=       600 IOpCl=  2 I1Cent=           0 NGrid=           0
         NMat0=    1 NMatS0=     56 NMatT0=    0 NMatD0=    1 NMtDS0=    0 NMtDT0=    0
 Symmetry not used in FoFCou.
 Two-electron integral symmetry not used.
 UHF open shell SCF:
 Using DIIS extrapolation, IDIIS=  1040.
 Overlap will be assumed to be unity.
 NGot=  2684354560 LenX=  2684292602 LenY=  2684291720
 Requested convergence on RMS density matrix=1.00D-08 within 120 cycles.
 Requested convergence on MAX density matrix=1.00D-06.
 Requested convergence on             energy=1.00D-06.
 No special actions if energy rises.

 Cycle   1  Pass 1  IDiag  1:
 E= 0.734625826115618E-01
 DIIS: error= 1.28D-03 at cycle   1 NSaved=   1.
 NSaved= 1 IEnMin= 1 EnMin= 0.734625826115618E-01 IErMin= 1 ErrMin= 1.28D-03
 ErrMax= 1.28D-03  0.00D+00 EMaxC= 1.00D-01 BMatC= 9.86D-05 BMatP= 9.86D-05
 IDIUse=3 WtCom= 9.87D-01 WtEn= 1.28D-02
 Coeff-Com:  0.100D+01
 Coeff-En:   0.100D+01
 Coeff:      0.100D+01
 GapD=    2.000 DampG=2.000 DampE=1.000 DampFc=2.0000 IDamp=-1.
 RMSDP=8.15D-04 MaxDP=4.58D-03              OVMax= 0.00D+00

 Cycle   2  Pass 1  IDiag  3:
 E= 0.733480666332298E-01 Delta-E=       -0.000114515978 Rises=F Damp=F
 DIIS: error= 6.94D-04 at cycle   2 NSaved=   2.
 NSaved= 2 IEnMin= 2 EnMin= 0.733480666332298E-01 IErMin= 2 ErrMin= 6.94D-04
 ErrMax= 6.94D-04  0.00D+00 EMaxC= 1.00D-01 BMatC= 2.33D-05 BMatP= 9.86D-05
 IDIUse=3 WtCom= 9.93D-01 WtEn= 6.94D-03
 Coeff-Com: -0.658D+00 0.166D+01
 Coeff-En:   0.000D+00 0.100D+01
 Coeff:     -0.654D+00 0.165D+01
 Gap=     0.515 Goal=   None    Shift=    0.000
 Gap=     0.287 Goal=   None    Shift=    0.000
 RMSDP=7.40D-04 MaxDP=4.68D-03 DE=-1.15D-04 OVMax= 5.52D-03

 Cycle   3  Pass 1  IDiag  3:
 E= 0.733026394947700E-01 Delta-E=       -0.000045427138 Rises=F Damp=F
 DIIS: error= 3.72D-04 at cycle   3 NSaved=   3.
 NSaved= 3 IEnMin= 3 EnMin= 0.733026394947700E-01 IErMin= 3 ErrMin= 3.72D-04
 ErrMax= 3.72D-04  0.00D+00 EMaxC= 1.00D-01 BMatC= 2.86D-06 BMatP= 2.33D-05
 IDIUse=3 WtCom= 9.96D-01 WtEn= 3.72D-03
 Coeff-Com:  0.211D+00-0.783D+00 0.157D+01
 Coeff-En:   0.000D+00 0.000D+00 0.100D+01
 Coeff:      0.210D+00-0.780D+00 0.157D+01
 Gap=     0.516 Goal=   None    Shift=    0.000
 Gap=     0.287 Goal=   None    Shift=    0.000
 RMSDP=3.69D-04 MaxDP=2.97D-03 DE=-4.54D-05 OVMax= 2.70D-03

 Cycle   4  Pass 1  IDiag  3:
 E= 0.732940064212713E-01 Delta-E=       -0.000008633073 Rises=F Damp=F
 DIIS: error= 1.65D-04 at cycle   4 NSaved=   4.
 NSaved= 4 IEnMin= 4 EnMin= 0.732940064212713E-01 IErMin= 4 ErrMin= 1.65D-04
 ErrMax= 1.65D-04  0.00D+00 EMaxC= 1.00D-01 BMatC= 7.66D-07 BMatP= 2.86D-06
 IDIUse=3 WtCom= 9.98D-01 WtEn= 1.65D-03
 Coeff-Com: -0.168D+00 0.589D+00-0.137D+01 0.195D+01
 Coeff-En:   0.000D+00 0.000D+00 0.000D+00 0.100D+01
 Coeff:     -0.168D+00 0.588D+00-0.137D+01 0.195D+01
 Gap=     0.516 Goal=   None    Shift=    0.000
 Gap=     0.287 Goal=   None    Shift=    0.000
 RMSDP=2.78D-04 MaxDP=2.77D-03 DE=-8.63D-06 OVMax= 2.58D-03

 Cycle   5  Pass 1  IDiag  3:
 E= 0.732902096885653E-01 Delta-E=       -0.000003796733 Rises=F Damp=F
 DIIS: error= 1.33D-04 at cycle   5 NSaved=   5.
 NSaved= 5 IEnMin= 5 EnMin= 0.732902096885653E-01 IErMin= 5 ErrMin= 1.33D-04
 ErrMax= 1.33D-04  0.00D+00 EMaxC= 1.00D-01 BMatC= 3.82D-07 BMatP= 7.66D-07
 IDIUse=3 WtCom= 9.99D-01 WtEn= 1.33D-03
 Coeff-Com:  0.904D-01-0.368D+00 0.105D+01-0.207D+01 0.229D+01
 Coeff-En:   0.000D+00 0.000D+00 0.000D+00 0.000D+00 0.100D+01
 Coeff:      0.902D-01-0.367D+00 0.105D+01-0.207D+01 0.229D+01
 Gap=     0.516 Goal=   None    Shift=    0.000
 Gap=     0.287 Goal=   None    Shift=    0.000
 RMSDP=2.82D-04 MaxDP=2.63D-03 DE=-3.80D-06 OVMax= 3.05D-03

 Cycle   6  Pass 1  IDiag  3:
 E= 0.732872731877450E-01 Delta-E=       -0.000002936501 Rises=F Damp=F
 DIIS: error= 1.32D-04 at cycle   6 NSaved=   6.
 NSaved= 6 IEnMin= 6 EnMin= 0.732872731877450E-01 IErMin= 6 ErrMin= 1.32D-04
 ErrMax= 1.32D-04  0.00D+00 EMaxC= 1.00D-01 BMatC= 2.52D-07 BMatP= 3.82D-07
 IDIUse=3 WtCom= 9.99D-01 WtEn= 1.32D-03
 Coeff-Com: -0.210D+00 0.782D+00-0.214D+01 0.447D+01-0.625D+01 0.435D+01
 Coeff-En:   0.000D+00 0.000D+00 0.000D+00 0.000D+00 0.000D+00 0.100D+01
 Coeff:     -0.210D+00 0.781D+00-0.214D+01 0.446D+01-0.624D+01 0.435D+01
 Gap=     0.517 Goal=   None    Shift=    0.000
 Gap=     0.287 Goal=   None    Shift=    0.000
 RMSDP=5.19D-04 MaxDP=5.26D-03 DE=-2.94D-06 OVMax= 6.01D-03

 Cycle   7  Pass 1  IDiag  3:
 E= 0.732833225268337E-01 Delta-E=       -0.000003950661 Rises=F Damp=F
 DIIS: error= 9.21D-05 at cycle   7 NSaved=   7.
 NSaved= 7 IEnMin= 7 EnMin= 0.732833225268337E-01 IErMin= 7 ErrMin= 9.21D-05
 ErrMax= 9.21D-05  0.00D+00 EMaxC= 1.00D-01 BMatC= 1.14D-07 BMatP= 2.52D-07
 IDIUse=1 WtCom= 1.00D+00 WtEn= 0.00D+00
 Coeff-Com:  0.149D+00-0.576D+00 0.167D+01-0.368D+01 0.553D+01-0.487D+01
 Coeff-Com:  0.277D+01
 Coeff:      0.149D+00-0.576D+00 0.167D+01-0.368D+01 0.553D+01-0.487D+01
 Coeff:      0.277D+01
 Gap=     0.517 Goal=   None    Shift=    0.000
 Gap=     0.287 Goal=   None    Shift=    0.000
 RMSDP=4.81D-04 MaxDP=5.04D-03 DE=-3.95D-06 OVMax= 5.90D-03

 Cycle   8  Pass 1  IDiag  3:
 E= 0.732812215896104E-01 Delta-E=       -0.000002100937 Rises=F Damp=F
 DIIS: error= 4.36D-05 at cycle   8 NSaved=   8.
 NSaved= 8 IEnMin= 8 EnMin= 0.732812215896104E-01 IErMin= 8 ErrMin= 4.36D-05
 ErrMax= 4.36D-05  0.00D+00 EMaxC= 1.00D-01 BMatC= 4.12D-08 BMatP= 1.14D-07
 IDIUse=1 WtCom= 1.00D+00 WtEn= 0.00D+00
 Coeff-Com: -0.973D-01 0.377D+00-0.108D+01 0.228D+01-0.324D+01 0.304D+01
 Coeff-Com: -0.258D+01 0.231D+01
 Coeff:     -0.973D-01 0.377D+00-0.108D+01 0.228D+01-0.324D+01 0.304D+01
 Coeff:     -0.258D+01 0.231D+01
 Gap=     0.517 Goal=   None    Shift=    0.000
 Gap=     0.287 Goal=   None    Shift=    0.000
 RMSDP=2.45D-04 MaxDP=2.56D-03 DE=-2.10D-06 OVMax= 3.24D-03

 Cycle   9  Pass 1  IDiag  3:
 E= 0.732806311867336E-01 Delta-E=       -0.000000590403 Rises=F Damp=F
 DIIS: error= 2.50D-05 at cycle   9 NSaved=   9.
 NSaved= 9 IEnMin= 9 EnMin= 0.732806311867336E-01 IErMin= 9 ErrMin= 2.50D-05
 ErrMax= 2.50D-05  0.00D+00 EMaxC= 1.00D-01 BMatC= 1.51D-08 BMatP= 4.12D-08
 IDIUse=1 WtCom= 1.00D+00 WtEn= 0.00D+00
 Coeff-Com:  0.313D-01-0.134D+00 0.407D+00-0.823D+00 0.108D+01-0.103D+01
 Coeff-Com:  0.112D+01-0.179D+01 0.214D+01
 Coeff:      0.313D-01-0.134D+00 0.407D+00-0.823D+00 0.108D+01-0.103D+01
 Coeff:      0.112D+01-0.179D+01 0.214D+01
 Gap=     0.517 Goal=   None    Shift=    0.000
 Gap=     0.287 Goal=   None    Shift=    0.000
 RMSDP=1.36D-04 MaxDP=1.32D-03 DE=-5.90D-07 OVMax= 1.85D-03

 Cycle  10  Pass 1  IDiag  3:
 E= 0.732804435876204E-01 Delta-E=       -0.000000187599 Rises=F Damp=F
 DIIS: error= 1.48D-05 at cycle  10 NSaved=  10.
 NSaved=10 IEnMin=10 EnMin= 0.732804435876204E-01 IErMin=10 ErrMin= 1.48D-05
 ErrMax= 1.48D-05  0.00D+00 EMaxC= 1.00D-01 BMatC= 4.87D-09 BMatP= 1.51D-08
 IDIUse=1 WtCom= 1.00D+00 WtEn= 0.00D+00
 Coeff-Com: -0.180D-01 0.783D-01-0.240D+00 0.480D+00-0.605D+00 0.510D+00
 Coeff-Com: -0.467D+00 0.913D+00-0.196D+01 0.231D+01
 Coeff:     -0.180D-01 0.783D-01-0.240D+00 0.480D+00-0.605D+00 0.510D+00
 Coeff:     -0.467D+00 0.913D+00-0.196D+01 0.231D+01
 Gap=     0.517 Goal=   None    Shift=    0.000
 Gap=     0.287 Goal=   None    Shift=    0.000
 RMSDP=8.23D-05 MaxDP=7.07D-04 DE=-1.88D-07 OVMax= 1.11D-03

 Cycle  11  Pass 1  IDiag  3:
 E= 0.732803896808392E-01 Delta-E=       -0.000000053907 Rises=F Damp=F
 DIIS: error= 4.34D-06 at cycle  11 NSaved=  11.
 NSaved=11 IEnMin=11 EnMin= 0.732803896808392E-01 IErMin=11 ErrMin= 4.34D-06
 ErrMax= 4.34D-06  0.00D+00 EMaxC= 1.00D-01 BMatC= 6.67D-10 BMatP= 4.87D-09
 IDIUse=1 WtCom= 1.00D+00 WtEn= 0.00D+00
 Coeff-Com:  0.324D-02-0.165D-01 0.562D-01-0.117D+00 0.160D+00-0.148D+00
 Coeff-Com:  0.115D+00-0.154D+00 0.492D+00-0.108D+01 0.169D+01
 Coeff:      0.324D-02-0.165D-01 0.562D-01-0.117D+00 0.160D+00-0.148D+00
 Coeff:      0.115D+00-0.154D+00 0.492D+00-0.108D+01 0.169D+01
 Gap=     0.517 Goal=   None    Shift=    0.000
 Gap=     0.287 Goal=   None    Shift=    0.000
 RMSDP=2.26D-05 MaxDP=1.66D-04 DE=-5.39D-08 OVMax= 2.93D-04

 Cycle  12  Pass 1  IDiag  3:
 E= 0.732803853037112E-01 Delta-E=       -0.000000004377 Rises=F Damp=F
 DIIS: error= 1.11D-06 at cycle  12 NSaved=  12.
 NSaved=12 IEnMin=12 EnMin= 0.732803853037112E-01 IErMin=12 ErrMin= 1.11D-06
 ErrMax= 1.11D-06  0.00D+00 EMaxC= 1.00D-01 BMatC= 3.96D-11 BMatP= 6.67D-10
 IDIUse=1 WtCom= 1.00D+00 WtEn= 0.00D+00
 Coeff-Com:  0.114D-03 0.494D-03-0.310D-02 0.437D-02-0.553D-02 0.166D-01
 Coeff-Com: -0.269D-01 0.196D-01-0.737D-01 0.265D+00-0.697D+00 0.150D+01
 Coeff:      0.114D-03 0.494D-03-0.310D-02 0.437D-02-0.553D-02 0.166D-01
 Coeff:     -0.269D-01 0.196D-01-0.737D-01 0.265D+00-0.697D+00 0.150D+01
 Gap=     0.517 Goal=   None    Shift=    0.000
 Gap=     0.287 Goal=   None    Shift=    0.000
 RMSDP=3.98D-06 MaxDP=3.10D-05 DE=-4.38D-09 OVMax= 5.27D-05

 Cycle  13  Pass 1  IDiag  3:
 E= 0.732803851555772E-01 Delta-E=       -0.000000000148 Rises=F Damp=F
 DIIS: error= 2.63D-07 at cycle  13 NSaved=  13.
 NSaved=13 IEnMin=13 EnMin= 0.732803851555772E-01 IErMin=13 ErrMin= 2.63D-07
 ErrMax= 2.63D-07  0.00D+00 EMaxC= 1.00D-01 BMatC= 1.73D-12 BMatP= 3.96D-11
 IDIUse=1 WtCom= 1.00D+00 WtEn= 0.00D+00
 Coeff-Com: -0.574D-03 0.175D-02-0.421D-02 0.103D-01-0.147D-01 0.588D-02
 Coeff-Com:  0.422D-02-0.312D-03 0.269D-01-0.128D+00 0.358D+00-0.894D+00
 Coeff-Com:  0.163D+01
 Coeff:     -0.574D-03 0.175D-02-0.421D-02 0.103D-01-0.147D-01 0.588D-02
 Coeff:      0.422D-02-0.312D-03 0.269D-01-0.128D+00 0.358D+00-0.894D+00
 Coeff:      0.163D+01
 Gap=     0.517 Goal=   None    Shift=    0.000
 Gap=     0.287 Goal=   None    Shift=    0.000
 RMSDP=7.13D-07 MaxDP=5.86D-06 DE=-1.48D-10 OVMax= 9.57D-06

 Cycle  14  Pass 1  IDiag  3:
 E= 0.732803851505395E-01 Delta-E=       -0.000000000005 Rises=F Damp=F
 DIIS: error= 3.51D-08 at cycle  14 NSaved=  14.
 NSaved=14 IEnMin=14 EnMin= 0.732803851505395E-01 IErMin=14 ErrMin= 3.51D-08
 ErrMax= 3.51D-08  0.00D+00 EMaxC= 1.00D-01 BMatC= 6.84D-14 BMatP= 1.73D-12
 IDIUse=1 WtCom= 1.00D+00 WtEn= 0.00D+00
 Coeff-Com:  0.219D-03-0.688D-03 0.169D-02-0.400D-02 0.567D-02-0.264D-02
 Coeff-Com: -0.867D-03-0.442D-03-0.801D-02 0.404D-01-0.113D+00 0.294D+00
 Coeff-Com: -0.666D+00 0.145D+01
 Coeff:      0.219D-03-0.688D-03 0.169D-02-0.400D-02 0.567D-02-0.264D-02
 Coeff:     -0.867D-03-0.442D-03-0.801D-02 0.404D-01-0.113D+00 0.294D+00
 Coeff:     -0.666D+00 0.145D+01
 Gap=     0.517 Goal=   None    Shift=    0.000
 Gap=     0.287 Goal=   None    Shift=    0.000
 RMSDP=8.84D-08 MaxDP=7.28D-07 DE=-5.04D-12 OVMax= 1.12D-06

 Cycle  15  Pass 1  IDiag  3:
 E= 0.732803851503760E-01 Delta-E=       -0.000000000000 Rises=F Damp=F
 DIIS: error= 9.89D-09 at cycle  15 NSaved=  15.
 NSaved=15 IEnMin=15 EnMin= 0.732803851503760E-01 IErMin=15 ErrMin= 9.89D-09
 ErrMax= 9.89D-09  0.00D+00 EMaxC= 1.00D-01 BMatC= 2.45D-15 BMatP= 6.84D-14
 IDIUse=1 WtCom= 1.00D+00 WtEn= 0.00D+00
 Coeff-Com: -0.619D-04 0.199D-03-0.489D-03 0.111D-02-0.156D-02 0.807D-03
 Coeff-Com:  0.649D-04 0.195D-03 0.160D-02-0.893D-02 0.255D-01-0.672D-01
 Coeff-Com:  0.157D+00-0.461D+00 0.135D+01
 Coeff:     -0.619D-04 0.199D-03-0.489D-03 0.111D-02-0.156D-02 0.807D-03
 Coeff:      0.649D-04 0.195D-03 0.160D-02-0.893D-02 0.255D-01-0.672D-01
 Coeff:      0.157D+00-0.461D+00 0.135D+01
 Gap=     0.517 Goal=   None    Shift=    0.000
 Gap=     0.287 Goal=   None    Shift=    0.000
 RMSDP=4.91D-08 MaxDP=4.83D-07 DE=-1.63D-13 OVMax= 6.54D-07

 Cycle  16  Pass 1  IDiag  3:
 E= 0.732803851503903E-01 Delta-E=        0.000000000000 Rises=F Damp=F
 DIIS: error= 3.49D-09 at cycle  16 NSaved=  16.
 NSaved=16 IEnMin=15 EnMin= 0.732803851503760E-01 IErMin=16 ErrMin= 3.49D-09
 ErrMax= 3.49D-09  0.00D+00 EMaxC= 1.00D-01 BMatC= 1.59D-16 BMatP= 2.45D-15
 IDIUse=1 WtCom= 1.00D+00 WtEn= 0.00D+00
 Large coefficients: NSaved= 16 BigCof=    0.00 CofMax=   10.00 Det=-1.98D-16
 Inversion failed.  Reducing to 15 matrices.
 Coeff-Com:  0.170D-05-0.988D-05 0.241D-04-0.220D-04 0.199D-05 0.211D-04
 Coeff-Com:  0.847D-05-0.561D-04 0.500D-04 0.104D-03-0.292D-03-0.740D-03
 Coeff-Com:  0.340D-01-0.297D+00 0.126D+01
 Coeff:      0.170D-05-0.988D-05 0.241D-04-0.220D-04 0.199D-05 0.211D-04
 Coeff:      0.847D-05-0.561D-04 0.500D-04 0.104D-03-0.292D-03-0.740D-03
 Coeff:      0.340D-01-0.297D+00 0.126D+01
 Gap=     0.517 Goal=   None    Shift=    0.000
 Gap=     0.287 Goal=   None    Shift=    0.000
 RMSDP=2.74D-09 MaxDP=3.04D-08 DE= 1.42D-14 OVMax= 3.05D-08

 Cycle  17  Pass 2  IDiag  1:
 SCF Done:  E(UPM7) =  0.732803851504E-01 A.U. after   17 cycles
            NFock= 16  Conv=0.27D-08     -V/T= 1.0021
 <Sx>= 0.0000 <Sy>= 0.0000 <Sz>= 1.0000 <S**2>= 2.0151 S= 1.0050
 <L.S>= 0.000000000000E+00
 KE=-3.430686369784D+01 PE=-2.365619795871D+01 EE= 2.451891117327D+01
 Annihilation of the first spin contaminant:
 S**2 before annihilation     2.0151,   after     2.0000
 Leave Link  502 at Wed Oct 21 14:41:14 2020, MaxMem=  2684354560 cpu:              33.5 elap:               4.7
 (Enter /udrive/faculty/rpeverati/g16/g16/l508.exe)
 QCSCF skips out because SCF is already converged.
 Leave Link  508 at Wed Oct 21 14:41:16 2020, MaxMem=  2684354560 cpu:               0.9 elap:               1.2
 (Enter /udrive/faculty/rpeverati/g16/g16/l701.exe)
 ... and contract with generalized density number  0.
 Compute integral first derivatives.
 R6Disp: Adding PM7 dispersion energy 1st derivatives to the gradient.
 Leave Link  701 at Wed Oct 21 14:41:18 2020, MaxMem=  2684354560 cpu:               5.2 elap:               1.7
 (Enter /udrive/faculty/rpeverati/g16/g16/l702.exe)
 L702 exits ... SP integral derivatives will be done elsewhere.
 Leave Link  702 at Wed Oct 21 14:41:19 2020, MaxMem=  2684354560 cpu:               2.0 elap:               0.8
 (Enter /udrive/faculty/rpeverati/g16/g16/l703.exe)
 Integral derivatives from FoFJK, PRISM(SPDF).
 Compute integral first derivatives, UseDBF=F ICtDFT=           0.
 Calling FoFJK, ICntrl=      2127 FMM=F ISym2X=1 I1Cent= 0 IOpClX= 1 NMat=1 NMatS=1 NMatT=0.
 FoFJK:  IHMeth=43 ICntrl=    2127 DoSepK=F KAlg= 0 I1Cent=           0 FoldK=F
 IRaf=         0 NMat=       1 IRICut=       1 DoRegI=T DoRafI=F ISym2E= 1 IDoP0=3 IntGTp=3.
 FoFCou: FMM=F IPFlag=           0 FMFlag=      100000 FMFlg1=         800
         NFxFlg=           0 DoJE=F BraDBF=F KetDBF=F FulRan=T
         wScrn=  0.000000 ICntrl=      2127 IOpCl=  1 I1Cent=           0 NGrid=           0
         NMat0=    1 NMatS0=      1 NMatT0=    0 NMatD0=    1 NMtDS0=    0 NMtDT0=    0
 Petite list used in FoFCou.
 Leave Link  703 at Wed Oct 21 14:41:22 2020, MaxMem=  2684354560 cpu:               5.4 elap:               1.4
 (Enter /udrive/faculty/rpeverati/g16/g16/l716.exe)
 Dipole        =-2.96533344D-01 6.71785090D-01 1.09326177D-16
 ***** Axes restored to original set *****
 -------------------------------------------------------------------
 Center     Atomic                   Forces (Hartrees/Bohr)
 Number     Number              X              Y              Z
 -------------------------------------------------------------------
      1       17          -0.000831222    0.010296734    0.000000000
      2        1           0.000987158   -0.001916530   -0.000000000
      3        8          -0.000155937   -0.008380204    0.000000000
 -------------------------------------------------------------------
 Cartesian Forces:  Max     0.010296734 RMS     0.004492134
 Leave Link  716 at Wed Oct 21 14:41:24 2020, MaxMem=  2684354560 cpu:               3.9 elap:               1.0
 (Enter /udrive/faculty/rpeverati/g16/g16/l103.exe)

 GradGradGradGradGradGradGradGradGradGradGradGradGradGradGradGradGradGrad
 Berny optimization.
 Optmz: redundant internal coordinate code flag= 1
 Red2BG:  D1=  6.29D-01 OD1=  7.03D-03 B2RMS=  0.00D+00 IAprox=0
 FormGI is forming the generalized inverse of G from B-inverse, IUseBI=4.
 Internal  Forces:  Max     0.009961546 RMS     0.008504020
 Search for a saddle point.
 Step number   2 out of a maximum of   50
 All quantities printed in internal units (Hartrees-Bohrs-Radians)
 Swapping is turned off.
 Update second derivatives using D2CorX and points    1    2
 The second derivative matrix:
                          R1        R2        A1
           R1           0.12798
           R2           0.08184   0.13670
           A1           0.08043  -0.11257   0.13634
 ITU=  0  0
 Eigenvectors of the second derivative matrix:
                           1         2         3
     Eigenvalues --    -0.05002   0.20194   0.24911
   1         R1        -0.54182  -0.84032  -0.01741
   2         R2         0.59524  -0.36900  -0.71381
   3         A1         0.59340  -0.39712   0.70012
 RLam0= 2.75D-04.
 Iter=   1 RLamda= 0.00000000D+00 Sum=-1.00571595D-03.
 Iter=   2 RLamda=-1.00571595D-03 Sum=-1.00073216D-03.
 Iter=   3 RLamda=-1.00073216D-03 Sum=-1.00075674D-03.
 Iter=   4 RLamda=-1.00075674D-03 Sum=-1.00075661D-03.
 RFO step:  Lambda0=2.754353985D-04 Lambda=-1.00075674D-03.
 Linear search not attempted -- option 19 set.
 Maximum step size (   0.100) exceeded in Quadratic search.
    -- Step size scaled by   0.980
 Iteration  1 RMS(Cart)=  0.04039073 RMS(Int)=  0.00014744
 Iteration  2 RMS(Cart)=  0.00011288 RMS(Int)=  0.00000000
 Iteration  3 RMS(Cart)=  0.00000000 RMS(Int)=  0.00000000
 ITry= 1 IFail=0 DXMaxC= 5.01D-02 DCOld= 1.00D+10 DXMaxT= 1.00D-01 DXLimC= 3.00D+00 Rises=F
 ClnCor:  largest displacement from symmetrization is 4.44D-16 for atom     3.
 Variable       Old X    -DE/DX   Delta X   Delta X   Delta X     New X
                                 (Linear)    (Quad)   (Total)
    R1        2.81153  -0.00996   0.00000  -0.09716  -0.09716   2.71437
    R2        2.25142  -0.00765   0.00000   0.01707   0.01707   2.26849
    A1        2.35473  -0.00769   0.00000   0.01641   0.01641   2.37114
         Item               Value     Threshold  Converged?
 Maximum Force            0.009962     0.000450     NO 
 RMS     Force            0.008504     0.000300     NO 
 Maximum Displacement     0.050076     0.001800     NO 
 RMS     Displacement     0.040425     0.001200     NO 
 Predicted change in Energy=-3.641651D-04
 Largest change from initial coordinates is atom    1       0.010 Angstoms.
 GradGradGradGradGradGradGradGradGradGradGradGradGradGradGradGradGradGrad

 Leave Link  103 at Wed Oct 21 14:41:26 2020, MaxMem=  2684354560 cpu:              12.4 elap:               2.1
 (Enter /udrive/faculty/rpeverati/g16/g16/l202.exe)
                          Input orientation:                          
 ---------------------------------------------------------------------
 Center     Atomic      Atomic             Coordinates (Angstroms)
 Number     Number       Type             X           Y           Z
 ---------------------------------------------------------------------
      1         17           0        0.016917   -0.792735    0.000000
      2          1           0       -0.471533    0.558048    0.000000
      3          8           0        0.021767    1.652443    0.000000
 ---------------------------------------------------------------------
                    Distance matrix (angstroms):
                    1          2          3
     1  Cl   0.000000
     2  H    1.436384   0.000000
     3  O    2.445183   1.200435   0.000000
 Stoichiometry    ClHO(3)
 Framework group  CS[SG(ClHO)]
 Deg. of freedom     3
 Full point group                 CS      NOp   2
 RotChk:  IX=0 Diff= 4.19D-03
 Largest Abelian subgroup         CS      NOp   2
 Largest concise Abelian subgroup C1      NOp   1
                         Standard orientation:                         
 ---------------------------------------------------------------------
 Center     Atomic      Atomic             Coordinates (Angstroms)
 Number     Number       Type             X           Y           Z
 ---------------------------------------------------------------------
      1         17           0        0.018890   -0.804280    0.000000
      2          1           0       -0.472238    0.545532    0.000000
      3          8           0        0.018890    1.640903    0.000000
 ---------------------------------------------------------------------
 Rotational constants (GHZ):        2130.9249423           7.6625217           7.6350670
 Leave Link  202 at Wed Oct 21 14:41:29 2020, MaxMem=  2684354560 cpu:               4.2 elap:               1.7
 (Enter /udrive/faculty/rpeverati/g16/g16/l301.exe)
 Standard basis: VSTO-6G (5D, 7F)
 Ernie: Thresh=  0.10000D-02 Tol=  0.10000D-05 Strict=F.
 EHB=         0.000000000 Number of Hydrogen Bonds=     0
  NNHCO=     0 NNPyr=     0 NCTC=     0               EPep=         0.000000000
    EC=        12.357298465  ECS=         0.177054002   EG=         0.048101833
   EHC=         0.000042956  EAt=       -20.845789284  AtH=         0.224141636
 EPDDG=         0.000000000  ECC=        12.582497256 EAtT=        21.069930919
  EHyb=         0.000000000
 There are    11 symmetry adapted cartesian basis functions of A'  symmetry.
 There are     4 symmetry adapted cartesian basis functions of A"  symmetry.
 There are    10 symmetry adapted basis functions of A'  symmetry.
 There are     4 symmetry adapted basis functions of A"  symmetry.
    14 basis functions,    90 primitive gaussians,    15 cartesian basis functions
     8 alpha electrons        6 beta electrons
       nuclear repulsion energy        33.6524281752 Hartrees.
 IExCor=    0 DFT=F Ex=HF Corr=None ExCW=0 ScaHFX=  1.000000
 ScaDFX=  1.000000  1.000000  1.000000  1.000000 ScalE2=  1.000000  1.000000
 IRadAn=      5 IRanWt=     -1 IRanGd=            0 ICorTp=0 IEmpDi=251
 Integral buffers will be    131072 words long.
 Regular integral format.
 Two-electron integral symmetry is turned off.
 R6Disp:  PM7 Dispersion energy=       -0.0000246947 Hartrees.
 Nuclear repulsion after empirical dispersion term =       33.6524034805 Hartrees.
 Leave Link  301 at Wed Oct 21 14:41:31 2020, MaxMem=  2684354560 cpu:               6.7 elap:               1.9
 (Enter /udrive/faculty/rpeverati/g16/g16/l302.exe)
 Do NDO integrals.
 NPDir=0 NMtPBC=     1 NCelOv=     1 NCel=       1 NClECP=     1 NCelD=      1
         NCelK=      1 NCelE2=     1 NClLst=     1 CellRange=     0.0.
 One-electron integrals computed using PRISM.
 NBasis=    14 RedAO= T EigKep=  1.00D+00  NBF=    10     4
 NBsUse=    14 1.00D-06 EigRej= -1.00D+00 NBFU=    10     4
 Leave Link  302 at Wed Oct 21 14:41:33 2020, MaxMem=  2684354560 cpu:               5.1 elap:               2.0
 (Enter /udrive/faculty/rpeverati/g16/g16/l303.exe)
 DipDrv:  MaxL=1.
 Leave Link  303 at Wed Oct 21 14:41:36 2020, MaxMem=  2684354560 cpu:               2.7 elap:               1.6
 (Enter /udrive/faculty/rpeverati/g16/g16/l401.exe)
 Initial guess from the checkpoint file:  "MN_91_RKT17_BH76_PM7_SE.chk"
 SCF N**3 symmetry information disabled.
 B after Tr=    -0.000000   -0.000000    0.000000
         Rot=    1.000000    0.000000    0.000000   -0.000146 Ang=  -0.02 deg.
 Guess basis will be translated and rotated to current coordinates.
 JPrj=0 DoOrth=T DoCkMO=T.
 Initial guess orbital symmetries:
 Alpha Orbitals:
       Occupied  (A') (A') (A') (A") (A') (A') (A") (A')
       Virtual   (A') (A') (A") (A') (A") (A')
 Beta  Orbitals:
       Occupied  (A') (A') (A') (A') (A") (A')
       Virtual   (A') (A") (A') (A') (A") (A') (A") (A')
 The electronic state of the initial guess is 3-A".
 Initial guess <Sx>= 0.0000 <Sy>= 0.0000 <Sz>= 1.0000 <S**2>= 2.0151 S= 1.0050
 Leave Link  401 at Wed Oct 21 14:41:38 2020, MaxMem=  2684354560 cpu:               9.4 elap:               1.9
 (Enter /udrive/faculty/rpeverati/g16/g16/l502.exe)
 Keep J ints in memory in canonical form, NReq=1848261.
 FoFCou: FMM=F IPFlag=           0 FMFlag=           0 FMFlg1=           0
         NFxFlg=           0 DoJE=F BraDBF=F KetDBF=F FulRan=T
         wScrn=  0.000000 ICntrl=       600 IOpCl=  2 I1Cent=           0 NGrid=           0
         NMat0=    1 NMatS0=     56 NMatT0=    0 NMatD0=    1 NMtDS0=    0 NMtDT0=    0
 Symmetry not used in FoFCou.
 Two-electron integral symmetry not used.
 UHF open shell SCF:
 Using DIIS extrapolation, IDIIS=  1040.
 Overlap will be assumed to be unity.
 NGot=  2684354560 LenX=  2684292602 LenY=  2684291720
 Requested convergence on RMS density matrix=1.00D-08 within 120 cycles.
 Requested convergence on MAX density matrix=1.00D-06.
 Requested convergence on             energy=1.00D-06.
 No special actions if energy rises.

 Cycle   1  Pass 1  IDiag  1:
 E= 0.734163496503513E-01
 DIIS: error= 2.53D-03 at cycle   1 NSaved=   1.
 NSaved= 1 IEnMin= 1 EnMin= 0.734163496503513E-01 IErMin= 1 ErrMin= 2.53D-03
 ErrMax= 2.53D-03  0.00D+00 EMaxC= 1.00D-01 BMatC= 3.56D-04 BMatP= 3.56D-04
 IDIUse=3 WtCom= 9.75D-01 WtEn= 2.53D-02
 Coeff-Com:  0.100D+01
 Coeff-En:   0.100D+01
 Coeff:      0.100D+01
 GapD=    2.000 DampG=2.000 DampE=1.000 DampFc=2.0000 IDamp=-1.
 RMSDP=1.42D-03 MaxDP=7.78D-03              OVMax= 0.00D+00

 Cycle   2  Pass 1  IDiag  3:
 E= 0.730554987474719E-01 Delta-E=       -0.000360850903 Rises=F Damp=F
 DIIS: error= 1.45D-03 at cycle   2 NSaved=   2.
 NSaved= 2 IEnMin= 2 EnMin= 0.730554987474719E-01 IErMin= 2 ErrMin= 1.45D-03
 ErrMax= 1.45D-03  0.00D+00 EMaxC= 1.00D-01 BMatC= 8.19D-05 BMatP= 3.56D-04
 IDIUse=3 WtCom= 9.85D-01 WtEn= 1.45D-02
 Coeff-Com: -0.513D+00 0.151D+01
 Coeff-En:   0.000D+00 0.100D+01
 Coeff:     -0.505D+00 0.151D+01
 Gap=     0.522 Goal=   None    Shift=    0.000
 Gap=     0.293 Goal=   None    Shift=    0.000
 RMSDP=1.27D-03 MaxDP=8.59D-03 DE=-3.61D-04 OVMax= 1.21D-02

 Cycle   3  Pass 1  IDiag  3:
 E= 0.728978497171937E-01 Delta-E=       -0.000157649030 Rises=F Damp=F
 DIIS: error= 7.95D-04 at cycle   3 NSaved=   3.
 NSaved= 3 IEnMin= 3 EnMin= 0.728978497171937E-01 IErMin= 3 ErrMin= 7.95D-04
 ErrMax= 7.95D-04  0.00D+00 EMaxC= 1.00D-01 BMatC= 1.59D-05 BMatP= 8.19D-05
 IDIUse=3 WtCom= 9.92D-01 WtEn= 7.95D-03
 Coeff-Com:  0.244D+00-0.116D+01 0.192D+01
 Coeff-En:   0.000D+00 0.000D+00 0.100D+01
 Coeff:      0.242D+00-0.115D+01 0.191D+01
 Gap=     0.521 Goal=   None    Shift=    0.000
 Gap=     0.294 Goal=   None    Shift=    0.000
 RMSDP=9.73D-04 MaxDP=8.02D-03 DE=-1.58D-04 OVMax= 8.41D-03

 Cycle   4  Pass 1  IDiag  3:
 E= 0.728508117845337E-01 Delta-E=       -0.000047037933 Rises=F Damp=F
 DIIS: error= 2.39D-04 at cycle   4 NSaved=   4.
 NSaved= 4 IEnMin= 4 EnMin= 0.728508117845337E-01 IErMin= 4 ErrMin= 2.39D-04
 ErrMax= 2.39D-04  0.00D+00 EMaxC= 1.00D-01 BMatC= 1.90D-06 BMatP= 1.59D-05
 IDIUse=3 WtCom= 9.98D-01 WtEn= 2.39D-03
 Coeff-Com: -0.569D-01 0.374D+00-0.875D+00 0.156D+01
 Coeff-En:   0.000D+00 0.000D+00 0.000D+00 0.100D+01
 Coeff:     -0.567D-01 0.373D+00-0.873D+00 0.156D+01
 Gap=     0.521 Goal=   None    Shift=    0.000
 Gap=     0.294 Goal=   None    Shift=    0.000
 RMSDP=3.68D-04 MaxDP=3.78D-03 DE=-4.70D-05 OVMax= 3.32D-03

 Cycle   5  Pass 1  IDiag  3:
 E= 0.728433615970445E-01 Delta-E=       -0.000007450187 Rises=F Damp=F
 DIIS: error= 1.95D-04 at cycle   5 NSaved=   5.
 NSaved= 5 IEnMin= 5 EnMin= 0.728433615970445E-01 IErMin= 5 ErrMin= 1.95D-04
 ErrMax= 1.95D-04  0.00D+00 EMaxC= 1.00D-01 BMatC= 8.16D-07 BMatP= 1.90D-06
 IDIUse=3 WtCom= 9.98D-01 WtEn= 1.95D-03
 Coeff-Com:  0.399D-01-0.265D+00 0.610D+00-0.128D+01 0.189D+01
 Coeff-En:   0.000D+00 0.000D+00 0.000D+00 0.000D+00 0.100D+01
 Coeff:      0.398D-01-0.264D+00 0.609D+00-0.128D+01 0.189D+01
 Gap=     0.520 Goal=   None    Shift=    0.000
 Gap=     0.294 Goal=   None    Shift=    0.000
 RMSDP=2.99D-04 MaxDP=2.77D-03 DE=-7.45D-06 OVMax= 2.96D-03

 Cycle   6  Pass 1  IDiag  3:
 E= 0.728387501711367E-01 Delta-E=       -0.000004611426 Rises=F Damp=F
 DIIS: error= 1.98D-04 at cycle   6 NSaved=   6.
 NSaved= 6 IEnMin= 6 EnMin= 0.728387501711367E-01 IErMin= 5 ErrMin= 1.95D-04
 ErrMax= 1.98D-04  0.00D+00 EMaxC= 1.00D-01 BMatC= 5.54D-07 BMatP= 8.16D-07
 IDIUse=3 WtCom= 9.98D-01 WtEn= 1.95D-03
 Coeff-Com: -0.394D-01 0.308D+00-0.798D+00 0.212D+01-0.448D+01 0.388D+01
 Coeff-En:   0.000D+00 0.000D+00 0.000D+00 0.000D+00 0.000D+00 0.100D+01
 Coeff:     -0.394D-01 0.307D+00-0.797D+00 0.212D+01-0.447D+01 0.388D+01
 Gap=     0.520 Goal=   None    Shift=    0.000
 Gap=     0.294 Goal=   None    Shift=    0.000
 RMSDP=5.93D-04 MaxDP=6.11D-03 DE=-4.61D-06 OVMax= 6.45D-03

 Cycle   7  Pass 1  IDiag  3:
 E= 0.728316970757916E-01 Delta-E=       -0.000007053095 Rises=F Damp=F
 DIIS: error= 1.56D-04 at cycle   7 NSaved=   7.
 NSaved= 7 IEnMin= 7 EnMin= 0.728316970757916E-01 IErMin= 7 ErrMin= 1.56D-04
 ErrMax= 1.56D-04  0.00D+00 EMaxC= 1.00D-01 BMatC= 2.99D-07 BMatP= 5.54D-07
 IDIUse=3 WtCom= 9.98D-01 WtEn= 1.56D-03
 Coeff-Com:  0.685D-01-0.484D+00 0.117D+01-0.277D+01 0.574D+01-0.592D+01
 Coeff-Com:  0.320D+01
 Coeff-En:   0.000D+00 0.000D+00 0.000D+00 0.000D+00 0.000D+00 0.000D+00
 Coeff-En:   0.100D+01
 Coeff:      0.684D-01-0.484D+00 0.117D+01-0.277D+01 0.573D+01-0.591D+01
 Coeff:      0.319D+01
 Gap=     0.520 Goal=   None    Shift=    0.000
 Gap=     0.294 Goal=   None    Shift=    0.000
 RMSDP=6.63D-04 MaxDP=7.15D-03 DE=-7.05D-06 OVMax= 7.85D-03

 Cycle   8  Pass 1  IDiag  3:
 E= 0.728265762022104E-01 Delta-E=       -0.000005120874 Rises=F Damp=F
 DIIS: error= 8.53D-05 at cycle   8 NSaved=   8.
 NSaved= 8 IEnMin= 8 EnMin= 0.728265762022104E-01 IErMin= 8 ErrMin= 8.53D-05
 ErrMax= 8.53D-05  0.00D+00 EMaxC= 1.00D-01 BMatC= 1.29D-07 BMatP= 2.99D-07
 IDIUse=1 WtCom= 1.00D+00 WtEn= 0.00D+00
 Coeff-Com: -0.370D-01 0.280D+00-0.692D+00 0.171D+01-0.387D+01 0.455D+01
 Coeff-Com: -0.355D+01 0.261D+01
 Coeff:     -0.370D-01 0.280D+00-0.692D+00 0.171D+01-0.387D+01 0.455D+01
 Coeff:     -0.355D+01 0.261D+01
 Gap=     0.519 Goal=   None    Shift=    0.000
 Gap=     0.294 Goal=   None    Shift=    0.000
 RMSDP=4.55D-04 MaxDP=4.90D-03 DE=-5.12D-06 OVMax= 5.87D-03

 Cycle   9  Pass 1  IDiag  3:
 E= 0.728244693733089E-01 Delta-E=       -0.000002106829 Rises=F Damp=F
 DIIS: error= 3.81D-05 at cycle   9 NSaved=   9.
 NSaved= 9 IEnMin= 9 EnMin= 0.728244693733089E-01 IErMin= 9 ErrMin= 3.81D-05
 ErrMax= 3.81D-05  0.00D+00 EMaxC= 1.00D-01 BMatC= 4.77D-08 BMatP= 1.29D-07
 IDIUse=1 WtCom= 1.00D+00 WtEn= 0.00D+00
 Coeff-Com:  0.146D-01-0.119D+00 0.299D+00-0.753D+00 0.180D+01-0.235D+01
 Coeff-Com:  0.236D+01-0.289D+01 0.265D+01
 Coeff:      0.146D-01-0.119D+00 0.299D+00-0.753D+00 0.180D+01-0.235D+01
 Coeff:      0.236D+01-0.289D+01 0.265D+01
 Gap=     0.519 Goal=   None    Shift=    0.000
 Gap=     0.294 Goal=   None    Shift=    0.000
 RMSDP=3.45D-04 MaxDP=3.54D-03 DE=-2.11D-06 OVMax= 4.66D-03

 Cycle  10  Pass 1  IDiag  3:
 E= 0.728236602481331E-01 Delta-E=       -0.000000809125 Rises=F Damp=F
 DIIS: error= 1.54D-05 at cycle  10 NSaved=  10.
 NSaved=10 IEnMin=10 EnMin= 0.728236602481331E-01 IErMin=10 ErrMin= 1.54D-05
 ErrMax= 1.54D-05  0.00D+00 EMaxC= 1.00D-01 BMatC= 9.94D-09 BMatP= 4.77D-08
 IDIUse=1 WtCom= 1.00D+00 WtEn= 0.00D+00
 Coeff-Com:  0.339D-03 0.965D-02-0.335D-01 0.106D+00-0.280D+00 0.383D+00
 Coeff-Com: -0.434D+00 0.778D+00-0.128D+01 0.175D+01
 Coeff:      0.339D-03 0.965D-02-0.335D-01 0.106D+00-0.280D+00 0.383D+00
 Coeff:     -0.434D+00 0.778D+00-0.128D+01 0.175D+01
 Gap=     0.519 Goal=   None    Shift=    0.000
 Gap=     0.294 Goal=   None    Shift=    0.000
 RMSDP=1.18D-04 MaxDP=1.12D-03 DE=-8.09D-07 OVMax= 1.62D-03

 Cycle  11  Pass 1  IDiag  3:
 E= 0.728235601614315E-01 Delta-E=       -0.000000100087 Rises=F Damp=F
 DIIS: error= 4.78D-06 at cycle  11 NSaved=  11.
 NSaved=11 IEnMin=11 EnMin= 0.728235601614315E-01 IErMin=11 ErrMin= 4.78D-06
 ErrMax= 4.78D-06  0.00D+00 EMaxC= 1.00D-01 BMatC= 1.19D-09 BMatP= 9.94D-09
 IDIUse=1 WtCom= 1.00D+00 WtEn= 0.00D+00
 Coeff-Com: -0.269D-03 0.107D-02-0.185D-02 0.142D-02-0.175D-01 0.533D-01
 Coeff-Com: -0.966D-01 0.111D+00-0.117D-02-0.522D+00 0.147D+01
 Coeff:     -0.269D-03 0.107D-02-0.185D-02 0.142D-02-0.175D-01 0.533D-01
 Coeff:     -0.966D-01 0.111D+00-0.117D-02-0.522D+00 0.147D+01
 Gap=     0.519 Goal=   None    Shift=    0.000
 Gap=     0.294 Goal=   None    Shift=    0.000
 RMSDP=3.92D-05 MaxDP=3.64D-04 DE=-1.00D-07 OVMax= 5.36D-04

 Cycle  12  Pass 1  IDiag  3:
 E= 0.728235513396669E-01 Delta-E=       -0.000000008822 Rises=F Damp=F
 DIIS: error= 1.53D-06 at cycle  12 NSaved=  12.
 NSaved=12 IEnMin=12 EnMin= 0.728235513396669E-01 IErMin=12 ErrMin= 1.53D-06
 ErrMax= 1.53D-06  0.00D+00 EMaxC= 1.00D-01 BMatC= 9.38D-11 BMatP= 1.19D-09
 IDIUse=1 WtCom= 1.00D+00 WtEn= 0.00D+00
 Coeff-Com:  0.548D-03-0.386D-02 0.948D-02-0.225D-01 0.522D-01-0.681D-01
 Coeff-Com:  0.737D-01-0.881D-01 0.659D-01 0.135D+00-0.753D+00 0.160D+01
 Coeff:      0.548D-03-0.386D-02 0.948D-02-0.225D-01 0.522D-01-0.681D-01
 Coeff:      0.737D-01-0.881D-01 0.659D-01 0.135D+00-0.753D+00 0.160D+01
 Gap=     0.519 Goal=   None    Shift=    0.000
 Gap=     0.294 Goal=   None    Shift=    0.000
 RMSDP=4.92D-06 MaxDP=3.55D-05 DE=-8.82D-09 OVMax= 6.44D-05

 Cycle  13  Pass 1  IDiag  3:
 E= 0.728235510835447E-01 Delta-E=       -0.000000000256 Rises=F Damp=F
 DIIS: error= 1.88D-07 at cycle  13 NSaved=  13.
 NSaved=13 IEnMin=13 EnMin= 0.728235510835447E-01 IErMin=13 ErrMin= 1.88D-07
 ErrMax= 1.88D-07  0.00D+00 EMaxC= 1.00D-01 BMatC= 1.51D-12 BMatP= 9.38D-11
 IDIUse=1 WtCom= 1.00D+00 WtEn= 0.00D+00
 Coeff-Com: -0.159D-03 0.116D-02-0.282D-02 0.658D-02-0.151D-01 0.190D-01
 Coeff-Com: -0.177D-01 0.180D-01-0.144D-01-0.875D-02 0.887D-01-0.289D+00
 Coeff-Com:  0.121D+01
 Coeff:     -0.159D-03 0.116D-02-0.282D-02 0.658D-02-0.151D-01 0.190D-01
 Coeff:     -0.177D-01 0.180D-01-0.144D-01-0.875D-02 0.887D-01-0.289D+00
 Coeff:      0.121D+01
 Gap=     0.519 Goal=   None    Shift=    0.000
 Gap=     0.294 Goal=   None    Shift=    0.000
 RMSDP=2.69D-07 MaxDP=2.05D-06 DE=-2.56D-10 OVMax= 2.80D-06

 Cycle  14  Pass 1  IDiag  3:
 E= 0.728235510814628E-01 Delta-E=       -0.000000000002 Rises=F Damp=F
 DIIS: error= 4.19D-08 at cycle  14 NSaved=  14.
 NSaved=14 IEnMin=14 EnMin= 0.728235510814628E-01 IErMin=14 ErrMin= 4.19D-08
 ErrMax= 4.19D-08  0.00D+00 EMaxC= 1.00D-01 BMatC= 6.80D-14 BMatP= 1.51D-12
 IDIUse=1 WtCom= 1.00D+00 WtEn= 0.00D+00
 Coeff-Com:  0.390D-04-0.290D-03 0.704D-03-0.163D-02 0.374D-02-0.477D-02
 Coeff-Com:  0.451D-02-0.477D-02 0.381D-02 0.275D-02-0.245D-01 0.805D-01
 Coeff-Com: -0.431D+00 0.137D+01
 Coeff:      0.390D-04-0.290D-03 0.704D-03-0.163D-02 0.374D-02-0.477D-02
 Coeff:      0.451D-02-0.477D-02 0.381D-02 0.275D-02-0.245D-01 0.805D-01
 Coeff:     -0.431D+00 0.137D+01
 Gap=     0.519 Goal=   None    Shift=    0.000
 Gap=     0.294 Goal=   None    Shift=    0.000
 RMSDP=6.26D-08 MaxDP=5.22D-07 DE=-2.08D-12 OVMax= 7.41D-07

 Cycle  15  Pass 1  IDiag  3:
 E= 0.728235510813420E-01 Delta-E=       -0.000000000000 Rises=F Damp=F
 DIIS: error= 1.52D-08 at cycle  15 NSaved=  15.
 NSaved=15 IEnMin=15 EnMin= 0.728235510813420E-01 IErMin=15 ErrMin= 1.52D-08
 ErrMax= 1.52D-08  0.00D+00 EMaxC= 1.00D-01 BMatC= 6.30D-15 BMatP= 6.80D-14
 IDIUse=1 WtCom= 1.00D+00 WtEn= 0.00D+00
 Coeff-Com: -0.183D-04 0.127D-03-0.300D-03 0.658D-03-0.140D-02 0.168D-02
 Coeff-Com: -0.151D-02 0.152D-02-0.107D-02-0.118D-02 0.828D-02-0.272D-01
 Coeff-Com:  0.157D+00-0.740D+00 0.160D+01
 Coeff:     -0.183D-04 0.127D-03-0.300D-03 0.658D-03-0.140D-02 0.168D-02
 Coeff:     -0.151D-02 0.152D-02-0.107D-02-0.118D-02 0.828D-02-0.272D-01
 Coeff:      0.157D+00-0.740D+00 0.160D+01
 Gap=     0.519 Goal=   None    Shift=    0.000
 Gap=     0.294 Goal=   None    Shift=    0.000
 RMSDP=2.60D-08 MaxDP=2.34D-07 DE=-1.21D-13 OVMax= 2.79D-07

 Cycle  16  Pass 1  IDiag  3:
 E= 0.728235510813207E-01 Delta-E=       -0.000000000000 Rises=F Damp=F
 DIIS: error= 1.77D-09 at cycle  16 NSaved=  16.
 NSaved=16 IEnMin=16 EnMin= 0.728235510813207E-01 IErMin=16 ErrMin= 1.77D-09
 ErrMax= 1.77D-09  0.00D+00 EMaxC= 1.00D-01 BMatC= 1.18D-16 BMatP= 6.30D-15
 IDIUse=1 WtCom= 1.00D+00 WtEn= 0.00D+00
 Large coefficients: NSaved= 16 BigCof=    0.00 CofMax=   10.00 Det=-1.85D-16
 Inversion failed.  Reducing to 15 matrices.
 Coeff-Com:  0.950D-06-0.398D-05 0.184D-04-0.510D-04 0.538D-04-0.158D-04
 Coeff-Com: -0.829D-05-0.618D-05 0.806D-04-0.413D-03 0.178D-02-0.147D-01
 Coeff-Com:  0.104D+00-0.336D+00 0.125D+01
 Coeff:      0.950D-06-0.398D-05 0.184D-04-0.510D-04 0.538D-04-0.158D-04
 Coeff:     -0.829D-05-0.618D-05 0.806D-04-0.413D-03 0.178D-02-0.147D-01
 Coeff:      0.104D+00-0.336D+00 0.125D+01
 Gap=     0.519 Goal=   None    Shift=    0.000
 Gap=     0.294 Goal=   None    Shift=    0.000
 RMSDP=3.72D-09 MaxDP=3.28D-08 DE=-2.13D-14 OVMax= 4.64D-08

 Cycle  17  Pass 2  IDiag  1:
 SCF Done:  E(UPM7) =  0.728235510813E-01 A.U. after   17 cycles
            NFock= 16  Conv=0.37D-08     -V/T= 1.0021
 <Sx>= 0.0000 <Sy>= 0.0000 <Sz>= 1.0000 <S**2>= 2.0121 S= 1.0040
 <L.S>= 0.000000000000E+00
 KE=-3.430256301788D+01 PE=-2.389802882695D+01 EE= 2.462101191539D+01
 Annihilation of the first spin contaminant:
 S**2 before annihilation     2.0121,   after     2.0000
 Leave Link  502 at Wed Oct 21 14:41:43 2020, MaxMem=  2684354560 cpu:              35.9 elap:               4.2
 (Enter /udrive/faculty/rpeverati/g16/g16/l508.exe)
 QCSCF skips out because SCF is already converged.
 Leave Link  508 at Wed Oct 21 14:41:45 2020, MaxMem=  2684354560 cpu:               1.6 elap:               0.9
 (Enter /udrive/faculty/rpeverati/g16/g16/l701.exe)
 ... and contract with generalized density number  0.
 Compute integral first derivatives.
[...]
                -3.32866251D-14
 Full mass-weighted force constant matrix:
 Low frequencies --- -868.7371   -1.9779   -0.6487   -0.0134    3.8280    4.9534
 Low frequencies ---   31.9804  298.0330 1819.9796
 ******    1 imaginary frequencies (negative Signs) ****** 
 Diagonal vibrational polarizability:
        5.8454395      23.0946267       0.0000000
 Harmonic frequencies (cm**-1), IR intensities (KM/Mole), Raman scattering
 activities (A**4/AMU), depolarization ratios for plane and unpolarized
 incident light, reduced masses (AMU), force constants (mDyne/A),
 and normal coordinates:
                      1                      2                      3
                     A'                     A'                     A'
 Frequencies --   -868.7371               298.0330              1819.9796
 Red. masses --      1.2035                 4.3312                 1.0814
 Frc consts  --      0.5351                 0.2267                 2.1104
 IR Inten    --    136.4217                68.6091               404.7985
  Atom  AN      X      Y      Z        X      Y      Z        X      Y      Z
     1  17     0.01   0.02   0.00    -0.00  -0.19  -0.00    -0.02   0.03   0.00
     2   1     0.25   0.96   0.00     0.68   0.60  -0.00     0.94  -0.35   0.00
     3   8    -0.03  -0.11   0.00    -0.04   0.37   0.00    -0.02  -0.04   0.00

 -------------------
 - Thermochemistry -
 -------------------
 Temperature   298.150 Kelvin.  Pressure   1.00000 Atm.
 Atom     1 has atomic number 17 and mass  34.96885
 Atom     2 has atomic number  1 and mass   1.00783
 Atom     3 has atomic number  8 and mass  15.99491
 Molecular mass:    51.97159 amu.
 Principal axes and moments of inertia in atomic units:
                           1         2         3
     Eigenvalues --     2.03579 198.76957 200.80536
           X           -0.00656   0.99998   0.00000
           Y            0.99998   0.00656   0.00000
           Z            0.00000   0.00000   1.00000
 This molecule is an asymmetric top.
 Rotational symmetry number  1.
 Rotational temperatures (Kelvin)     42.54562     0.43575     0.43133
 Rotational constants (GHZ):         886.50691     9.07957     8.98752
    1 imaginary frequencies ignored.
 Zero-point vibrational energy      12668.5 (Joules/Mol)
                                    3.02785 (Kcal/Mol)
 Warning -- explicit consideration of   1 degrees of freedom as
           vibrations may cause significant error
 Vibrational temperatures:    428.80  2618.54
          (Kelvin)
 
 Zero-point correction=                           0.004825 (Hartree/Particle)
 Thermal correction to Energy=                    0.008082
 Thermal correction to Enthalpy=                  0.009026
 Thermal correction to Gibbs Free Energy=        -0.019680
 Sum of electronic and zero-point Energies=              0.075506
 Sum of electronic and thermal Energies=                 0.078762
 Sum of electronic and thermal Enthalpies=               0.079706
 Sum of electronic and thermal Free Energies=            0.051000
 
                     E (Thermal)             CV                S
                      KCal/Mol        Cal/Mol-Kelvin    Cal/Mol-Kelvin
 Total                    5.071              7.663             60.417
 Electronic               0.000              0.000              2.183
 Translational            0.889              2.981             37.767
 Rotational               0.889              2.981             19.036
 Vibrational              3.294              1.701              1.431
 Vibration     1          0.691              1.677              1.428
                       Q            Log10(Q)             Ln(Q)
 Total Bot       0.112800D+10          9.052311         20.843716
 Total V=0       0.186957D+12         11.271741         25.954143
 Vib (Bot)       0.791247D-02         -2.101688         -4.839316
 Vib (Bot)    1  0.638810D+00         -0.194628         -0.448148
 Vib (V=0)       0.131142D+01          0.117742          0.271112
 Vib (V=0)    1  0.131122D+01          0.117676          0.270958
 Electronic      0.300000D+01          0.477121          1.098612
 Translational   0.147266D+08          7.168103         16.505167
 Rotational      0.322682D+04          3.508775          8.079252
 
                                                          TS search on BH76.
                                                             IR Spectrum
 
     1                                                                                                                               
     8                                                                                                          2                    
     2                                                                                                          9                    
     0                                                                                                          8                    
 
     X                                                                                                          X                    
     X                                                                                                          X                    
     X                                                                                                          X                    
     X                                                                                                                               
     X                                                                                                                               
     X                                                                                                                               
     X                                                                                                                               
     X                                                                                                                               
     X                                                                                                                               
     X                                                                                                                               
     X                                                                                                                               
     X                                                                                                                               
     X                                                                                                                               
     X                                                                                                                               
     X                                                                                                                               
     X                                                                                                                               
     X                                                                                                                               
     X                                                                                                                               
     X                                                                                                                               
     X                                                                                                                               
 
 ***** Axes restored to original set *****
 -------------------------------------------------------------------
 Center     Atomic                   Forces (Hartrees/Bohr)
 Number     Number              X              Y              Z
 -------------------------------------------------------------------
      1       17          -0.000030700    0.000041630   -0.000000000
      2        1           0.000051433   -0.000021181   -0.000000000
      3        8          -0.000020733   -0.000020449    0.000000000
 -------------------------------------------------------------------
 Cartesian Forces:  Max     0.000051433 RMS     0.000027116
 Force constants in Cartesian coordinates: 
                1             2             3             4             5 
      1  0.337315D-01
      2 -0.685395D-01  0.146255D+00
      3  0.000000D+00  0.000000D+00  0.196034D-04
      4 -0.610683D-01  0.104590D+00  0.000000D+00  0.100458D+00
      5  0.181167D-01 -0.635193D-01  0.000000D+00 -0.455955D-01 -0.628437D-02
      6  0.000000D+00  0.000000D+00 -0.147918D-04  0.000000D+00  0.000000D+00
      7  0.273377D-01 -0.360494D-01  0.000000D+00 -0.393909D-01  0.274750D-01
      8  0.504226D-01 -0.827353D-01  0.000000D+00 -0.589974D-01  0.698056D-01
      9  0.000000D+00  0.000000D+00  0.194166D-05  0.000000D+00  0.000000D+00
                6             7             8             9 
      6  0.379753D-04
      7  0.000000D+00  0.120531D-01
      8  0.000000D+00  0.857751D-02  0.129274D-01
      9 -0.228947D-04  0.000000D+00  0.000000D+00  0.139110D-04
 FormGI is forming the generalized inverse of G from B-inverse, IUseBI=4.
 Force constants in internal coordinates: 
                1             2             3 
      1  0.176402D+00
      2  0.104663D+00  0.208234D-01
      3  0.530228D-01 -0.513614D-02  0.252731D-01
 Leave Link  716 at Wed Oct 21 14:45:16 2020, MaxMem=  2684354560 cpu:               4.6 elap:               1.1
 (Enter /udrive/faculty/rpeverati/g16/g16/l103.exe)

 GradGradGradGradGradGradGradGradGradGradGradGradGradGradGradGradGradGrad
 Berny optimization.
 Optmz: redundant internal coordinate code flag= 1
 Red2BG:  D1=  4.91D-01 OD1=  6.42D-16 B2RMS=  0.00D+00 IAprox=1
 Red2BG is reusing G-inverse.
 Internal  Forces:  Max     0.000051558 RMS     0.000034683
 Search for a local minimum.
 Step number   1 out of a maximum of    2
 All quantities printed in internal units (Hartrees-Bohrs-Radians)
 Second derivative matrix not updated -- analytic derivatives used.
 The second derivative matrix:
                          R1        R2        A1
           R1           0.17640
           R2           0.10466   0.02082
           A1           0.05302  -0.00514   0.02527
 ITU=  0
 Eigenvectors of the second derivative matrix:
                           1         2         3
     Eigenvalues --    -0.04469   0.02852   0.23867
   1         R1        -0.46870   0.00949   0.88331
   2         R2         0.78111  -0.46254   0.41944
   3         A1         0.41255   0.88655   0.20938
 Eigenvalue     1 is  -4.47D-02 should be greater than     0.000000 Eigenvector:
                          R2        R1        A1
   1                    0.78111  -0.46870   0.41255
 Angle between quadratic step and forces=  51.08 degrees.
 Linear search not attempted -- first point.
 Iteration  1 RMS(Cart)=  0.00048644 RMS(Int)=  0.00000014
 Iteration  2 RMS(Cart)=  0.00000016 RMS(Int)=  0.00000000
 ITry= 1 IFail=0 DXMaxC= 6.20D-04 DCOld= 1.00D+10 DXMaxT= 3.00D-01 DXLimC= 3.00D+00 Rises=F
 ClnCor:  largest displacement from symmetrization is 1.78D-15 for atom     3.
 Variable       Old X    -DE/DX   Delta X   Delta X   Delta X     New X
                                 (Linear)    (Quad)   (Total)
    R1        2.66314  -0.00005   0.00000  -0.00026  -0.00026   2.66287
    R2        2.46791  -0.00003   0.00000  -0.00035  -0.00035   2.46756
    A1        1.94896   0.00001   0.00000   0.00071   0.00071   1.94967
         Item               Value     Threshold  Converged?
 Maximum Force            0.000052     0.000450     YES
 RMS     Force            0.000035     0.000300     YES
 Maximum Displacement     0.000620     0.001800     YES
 RMS     Displacement     0.000486     0.001200     YES
 Predicted change in Energy=-1.669946D-08
 Optimization completed.
    -- Stationary point found.
                           ----------------------------
                           !   Optimized Parameters   !
                           ! (Angstroms and Degrees)  !
 --------------------------                            --------------------------
 ! Name  Definition              Value          Derivative Info.                !
 --------------------------------------------------------------------------------
 ! R1    R(1,2)                  1.4093         -DE/DX =   -0.0001              !
 ! R2    R(2,3)                  1.306          -DE/DX =    0.0                 !
 ! A1    A(1,2,3)              111.6672         -DE/DX =    0.0                 !
 --------------------------------------------------------------------------------
 GradGradGradGradGradGradGradGradGradGradGradGradGradGradGradGradGradGrad

 Leave Link  103 at Wed Oct 21 14:45:18 2020, MaxMem=  2684354560 cpu:               6.8 elap:               1.1
 (Enter /udrive/faculty/rpeverati/g16/g16/l9999.exe)

 ----------------------------------------------------------------------

 Electric dipole moment (input orientation):
 (Debye = 10**-18 statcoulomb cm , SI units = C m)
                  (au)            (Debye)         (10**-30 SI)
   Tot        0.862727D+00      0.219283D+01      0.731450D+01
   x         -0.470187D+00     -0.119510D+01     -0.398641D+01
   y          0.723340D+00      0.183855D+01      0.613273D+01
   z          0.000000D+00      0.000000D+00      0.000000D+00

 Dipole polarizability, Alpha (input orientation).
 (esu units = cm**3 , SI units = C**2 m**2 J**-1)
 Alpha(0;0):
               (au)            (10**-24 esu)      (10**-40 SI)
   iso        0.211828D+02      0.313897D+01      0.349258D+01
   aniso      0.530680D+02      0.786387D+01      0.874974D+01
   xx         0.554352D+01      0.821464D+00      0.914002D+00
   yx        -0.265672D+01     -0.393686D+00     -0.438034D+00
   yy         0.563565D+02      0.835117D+01      0.929193D+01
   zx         0.000000D+00      0.000000D+00      0.000000D+00
   zy         0.000000D+00      0.000000D+00      0.000000D+00
   zz         0.164853D+01      0.244287D+00      0.271806D+00

 First dipole hyperpolarizability, Beta (input orientation).
 ||, _|_  parallel and perpendicular components, (z) with respect to z axis,
 vector components x,y,z.  Values do not include the 1/n! factor of 1/2.
 (esu units = statvolt**-1 cm**4 , SI units = C**3 m**3 J**-2)
 Beta(0;0,0):
               (au)            (10**-30 esu)      (10**-50 SI)
   || (z)     0.000000D+00      0.000000D+00      0.000000D+00
   _|_(z)     0.000000D+00      0.000000D+00      0.000000D+00
   x          0.111682D+02      0.964847D-01      0.358093D-01
   y         -0.872478D+03     -0.753753D+01     -0.279748D+01
   z          0.000000D+00      0.000000D+00      0.000000D+00
   ||         0.174510D+03      0.150763D+01      0.559542D+00
   xxx       -0.104419D+02     -0.902099D-01     -0.334805D-01
   xxy        0.116144D+02      0.100339D+00      0.372400D-01
   yxy        0.142034D+02      0.122706D+00      0.455411D-01
   yyy       -0.301290D+03     -0.260291D+01     -0.966045D+00
   xxz        0.000000D+00      0.000000D+00      0.000000D+00
   yxz        0.000000D+00      0.000000D+00      0.000000D+00
   yyz        0.000000D+00      0.000000D+00      0.000000D+00
   zxz       -0.387215D-01     -0.334524D-03     -0.124155D-03
   zyz       -0.115006D+01     -0.993561D-02     -0.368750D-02
   zzz        0.000000D+00      0.000000D+00      0.000000D+00

 ----------------------------------------------------------------------

 Dipole orientation:
    17         -0.46178979         -0.30017376         -1.16492782
     1         -0.41394465         -0.26907334          1.49759746
     8          1.52496974          0.99126465          2.35943227

 Electric dipole moment (dipole orientation):
 (Debye = 10**-18 statcoulomb cm , SI units = C m)
                  (au)            (Debye)         (10**-30 SI)
   Tot        0.862727D+00      0.219283D+01      0.731450D+01
   x          0.000000D+00      0.000000D+00      0.000000D+00
   y          0.000000D+00      0.000000D+00      0.000000D+00
   z          0.862727D+00      0.219283D+01      0.731450D+01

 Dipole polarizability, Alpha (dipole orientation).
 (esu units = cm**3 , SI units = C**2 m**2 J**-1)
 Alpha(0;0):
               (au)            (10**-24 esu)      (10**-40 SI)
   iso        0.211828D+02      0.313897D+01      0.349258D+01
   aniso      0.530680D+02      0.786387D+01      0.874974D+01
   xx         0.132896D+02      0.196932D+01      0.219117D+01
   yx         0.756698D+01      0.112131D+01      0.124763D+01
   yy         0.656724D+01      0.973165D+00      0.108279D+01
   zx         0.185633D+02      0.275080D+01      0.306067D+01
   zy         0.120666D+02      0.178808D+01      0.198951D+01
   zz         0.436916D+02      0.647443D+01      0.720378D+01

 First dipole hyperpolarizability, Beta (dipole orientation).
 ||, _|_  parallel and perpendicular components, (z) with respect to z axis,
 vector components x,y,z.  Values do not include the 1/n! factor of 1/2.
 (esu units = statvolt**-1 cm**4 , SI units = C**3 m**3 J**-2)
 Beta(0;0,0):
               (au)            (10**-30 esu)      (10**-50 SI)
   || (z)    -0.147521D+03     -0.127446D+01     -0.473004D+00
   _|_(z)    -0.491735D+02     -0.424821D+00     -0.157668D+00
   x         -0.390826D+03     -0.337644D+01     -0.125313D+01
   y         -0.254046D+03     -0.219476D+01     -0.814563D+00
   z         -0.737603D+03     -0.637231D+01     -0.236502D+01
   ||         0.174510D+03      0.150763D+01      0.559542D+00
   xxx       -0.187442D+02     -0.161935D+00     -0.601006D-01
   xxy       -0.114656D+02     -0.990535D-01     -0.367627D-01
   yxy       -0.777206D+01     -0.671445D-01     -0.249200D-01
   yyy       -0.577060D+01     -0.498535D-01     -0.185026D-01
   xxz       -0.434339D+02     -0.375235D+00     -0.139265D+00
   yxz       -0.276199D+02     -0.238615D+00     -0.885595D-01
   yyz       -0.188967D+02     -0.163253D+00     -0.605897D-01
   zxz       -0.103759D+03     -0.896399D+00     -0.332690D+00
   zyz       -0.674458D+02     -0.582679D+00     -0.216256D+00
   zzz       -0.183537D+03     -0.158562D+01     -0.588486D+00

 ----------------------------------------------------------------------

 Test job not archived.
 1\1\GINC-NODE61\Freq\UPM7\ZDO\Cl1H1O1(3)\RPEVERATI\21-Oct-2020\0\\#P F
 req PM7 5D 7F Integral=UltraFineGrid SCF=(NoSymm,XQC,MaxCyc=120) IOp(1
 /33=1) Geom=Check Guess=Read\\TS search on BH76.\\0,3\Cl,0.0915993889,
 -0.6757010915,0.\H,-0.6509608316,0.522067594,0.\O,0.126513217,1.571389
 2055,0.\\Version=ES64L-G16RevA.03\State=3-A"\HF=0.0706807\S2=2.008134\
 S2-1=0.\S2A=2.\RMSD=4.445e-10\RMSF=2.712e-05\ZeroPoint=0.0048252\Therm
 al=0.0080816\Dipole=-0.4701874,0.7233401,0.\DipoleDeriv=-0.3758258,0.1
 993566,0.,0.0175426,-1.0023024,0.,0.,0.,-0.3112515,0.411453,-0.2880689
 ,0.,-0.060369,0.576095,0.,0.,0.,0.3277489,-0.0356406,0.0887489,0.,0.04
 28183,0.4262283,0.,0.,0.,-0.0165195\Polar=5.5435153,-2.6567217,56.3564
 65,0.,0.,1.6485316\HyperPolar=-10.4418999,11.6143957,14.2033602,-301.2
 90265,0.,0.,0.,-0.0387215,-1.1500581,0.\PG=CS [SG(Cl1H1O1)]\NImag=1\\0
 .03373151,-0.06853946,0.14625496,0.,0.,0.00001960,-0.06106828,0.104589
 97,0.,0.10045843,0.01811667,-0.06351927,0.,-0.04559549,-0.00628437,0.,
 0.,-0.00001479,0.,0.,0.00003798,0.02733766,-0.03604938,0.,-0.03939089,
 0.02747498,0.,0.01205310,0.05042255,-0.08273534,0.,-0.05899736,0.06980
 560,0.,0.00857751,0.01292742,0.,0.,0.00000194,0.,0.,-0.00002289,0.,0.,
 0.00001391\\0.00003070,-0.00004163,0.,-0.00005143,0.00002118,0.,0.0000
 2073,0.00002045,0.\\\@


 You never know when you're making a memory.
                        -- Rickie Lee Jones
 Job cpu time:       0 days  0 hours  2 minutes  4.3 seconds.
 Elapsed time:       0 days  0 hours  0 minutes 22.0 seconds.
 File lengths (MBytes):  RWF=      5 Int=      0 D2E=      0 Chk=      2 Scr=      1
 Normal termination of Gaussian 16 at Wed Oct 21 14:45:19 2020.
