 Entering Gaussian System, Link 0=g16
 Input=MN_96_RKT22_BH76_PM7_SE.in
 Output=MN_96_RKT22_BH76_PM7_SE.log
 Initial command:
 /udrive/faculty/rpeverati/g16/g16/l1.exe "/udrive/scratch-directories/gaussian09/rpeverati/Gau-29476.inp" -scrdir="/udrive/scratch-directories/gaussian09/rpeverati/"
 Entering Link 1 = /udrive/faculty/rpeverati/g16/g16/l1.exe PID=     29488.
  
 Copyright (c) 1988,1990,1992,1993,1995,1998,2003,2009,2016,
            Gaussian, Inc.  All Rights Reserved.
  
 This is part of the Gaussian(R) 16 program.  It is based on
 the Gaussian(R) 09 system (copyright 2009, Gaussian, Inc.),
 the Gaussian(R) 03 system (copyright 2003, Gaussian, Inc.),
 the Gaussian(R) 98 system (copyright 1998, Gaussian, Inc.),
 the Gaussian(R) 94 system (copyright 1995, Gaussian, Inc.),
 the Gaussian 92(TM) system (copyright 1992, Gaussian, Inc.),
 the Gaussian 90(TM) system (copyright 1990, Gaussian, Inc.),
 the Gaussian 88(TM) system (copyright 1988, Gaussian, Inc.),
 the Gaussian 86(TM) system (copyright 1986, Carnegie Mellon
 University), and the Gaussian 82(TM) system (copyright 1983,
 Carnegie Mellon University). Gaussian is a federally registered
 trademark of Gaussian, Inc.
  
 This software contains proprietary and confidential information,
 including trade secrets, belonging to Gaussian, Inc.
  
 This software is provided under written license and may be
 used, copied, transmitted, or stored only in accord with that
 written license.
  
 The following legend is applicable only to US Government
 contracts under FAR:
  
                    RESTRICTED RIGHTS LEGEND
  
 Use, reproduction and disclosure by the US Government is
 subject to restrictions as set forth in subparagraphs (a)
 and (c) of the Commercial Computer Software - Restricted
 Rights clause in FAR 52.227-19.
  
 Gaussian, Inc.
 340 Quinnipiac St., Bldg. 40, Wallingford CT 06492
  
  
 ---------------------------------------------------------------
 Warning -- This program may not be used in any manner that
 competes with the business of Gaussian, Inc. or will provide
 assistance to any competitor of Gaussian, Inc.  The licensee
 of this program is prohibited from giving any competitor of
 Gaussian, Inc. access to this program.  By using this program,
 the user acknowledges that Gaussian, Inc. is engaged in the
 business of creating and licensing software in the field of
 computational chemistry and represents and warrants to the
 licensee that it is not a competitor of Gaussian, Inc. and that
 it will not use this program in any manner prohibited above.
 ---------------------------------------------------------------
  

 Cite this work as:
 Gaussian 16, Revision A.03,
 M. J. Frisch, G. W. Trucks, H. B. Schlegel, G. E. Scuseria, 
 M. A. Robb, J. R. Cheeseman, G. Scalmani, V. Barone, 
 G. A. Petersson, H. Nakatsuji, X. Li, M. Caricato, A. V. Marenich, 
 J. Bloino, B. G. Janesko, R. Gomperts, B. Mennucci, H. P. Hratchian, 
 J. V. Ortiz, A. F. Izmaylov, J. L. Sonnenberg, D. Williams-Young, 
 F. Ding, F. Lipparini, F. Egidi, J. Goings, B. Peng, A. Petrone, 
 T. Henderson, D. Ranasinghe, V. G. Zakrzewski, J. Gao, N. Rega, 
 G. Zheng, W. Liang, M. Hada, M. Ehara, K. Toyota, R. Fukuda, 
 J. Hasegawa, M. Ishida, T. Nakajima, Y. Honda, O. Kitao, H. Nakai, 
 T. Vreven, K. Throssell, J. A. Montgomery, Jr., J. E. Peralta, 
 F. Ogliaro, M. J. Bearpark, J. J. Heyd, E. N. Brothers, K. N. Kudin, 
 V. N. Staroverov, T. A. Keith, R. Kobayashi, J. Normand, 
 K. Raghavachari, A. P. Rendell, J. C. Burant, S. S. Iyengar, 
 J. Tomasi, M. Cossi, J. M. Millam, M. Klene, C. Adamo, R. Cammi, 
 J. W. Ochterski, R. L. Martin, K. Morokuma, O. Farkas, 
 J. B. Foresman, and D. J. Fox, Gaussian, Inc., Wallingford CT, 2016.
 
 ******************************************
 Gaussian 16:  ES64L-G16RevA.03 25-Dec-2016
                21-Oct-2020 
 ******************************************
 %NoSave
 %nproc=12
 Will use up to   12 processors via shared memory.
 %mem=20GB
 %chk=MN_96_RKT22_BH76_PM7_SE
 ----------------------------------------------------------------------
 #P Opt(TS,MaxCyc=50,NoEigenTest,MaxStep=10,AddRedundant) PM7 5D 7F Int
 egral=UltraFineGrid SCF=(NoSymm,XQC,MaxCyc=120) IOp(1/33=1)
 ----------------------------------------------------------------------
 1/5=1,6=50,8=10,11=1,18=120,26=1,33=1,38=1/1,3;
 2/9=110,12=2,17=6,18=5,40=1/2;
 3/5=2,8=11,25=1,41=4200000,71=1,75=-5/1,2,3;
 4/9=2,35=1/1;
 5/5=2,7=120,8=3,13=1,35=1,38=5/2,8;
 6/7=2,8=2,9=2,10=2,28=1/1;
 7//1,2,3,16;
 1/5=1,6=50,8=10,11=1,18=20,26=1,33=1/3(2);
 2/9=110/2;
 99//99;
 2/9=110/2;
 3/5=2,8=11,25=1,41=4200000,71=1,75=-5,135=20/1,2,3;
 4/5=5,9=2,16=3,35=1/1;
 5/5=2,7=120,8=3,13=1,35=1,38=5/2,8;
 7//1,2,3,16;
 1/5=1,6=50,8=10,11=1,18=20,26=1,33=1/3(-5);
 2/9=110/2;
 6/7=2,8=2,9=2,10=2,19=2,28=1/1;
 99/9=1/99;
 Leave Link    1 at Wed Oct 21 14:40:59 2020, MaxMem=  2684354560 cpu:              16.8 elap:               1.7
 (Enter /udrive/faculty/rpeverati/g16/g16/l101.exe)
 ONIOM data not found on unit 2.
 ------------------
 TS search on BH76.
 ------------------
 TstMul:  ICh=     0
 TstMul:  Mul=     1
 TstMul:  ICh=     0
 TstMul:  Mul=     1
 Symbolic Z-matrix:
 Charge =  0 Multiplicity = 1
 C                    -1.29962  -0.90486  -0.02015 
 C                    -1.20595   0.50582  -0.01341 
 C                     0.        1.18336   0.1533 
 C                     1.20595   0.50581  -0.01342 
 C                     1.29963  -0.90485  -0.02015 
 H                     2.1688   -1.32755  -0.5157 
 H                     1.03204  -1.45439   0.87317 
 H                     2.03713   1.08559  -0.3985 
 H                     0.        2.26292   0.08591 
 H                    -2.03713   1.08559  -0.39848 
 H                    -2.1688   -1.32754  -0.51572 
 H                    -0.00001  -1.18194  -0.52081 
 H                    -1.03206  -1.4544    0.87316 
 
 RdStrC is calling ZToCFu for IStruc=1 NZ=    13.
 PrtBox:  NBox=     2 Levels=  1 BoxLen=    8.00 SMaxX=        8.20
          Shift=            4.098430            2.748410            0.984185
 Box      1 Number                   0 centers from      1 to     12:
 Box      2 Number                   4 centers from     13 to     13:
 After GenITR:
 ITRead=  0  0  0  0  0  0  0  0  0  0  0  0  0
 MicOpt= -1 -1 -1 -1 -1 -1 -1 -1 -1 -1 -1 -1 -1
 Add virtual bond connecting atoms H12        and C1         Dist= 2.68D+00.
 Add virtual bond connecting atoms H12        and C5         Dist= 2.68D+00.
 The following ModRedundant input section has been read:
 
 ITRead=  0  0  0  0  0  0  0  0  0  0  0  0  0
 MicOpt= -1 -1 -1 -1 -1 -1 -1 -1 -1 -1 -1 -1 -1
 NAtoms=     13 NQM=       13 NQMF=       0 NMMI=      0 NMMIF=      0
                NMic=       0 NMicF=      0.
                    Isotopes and Nuclear Properties:
 (Nuclear quadrupole moments (NQMom) in fm**2, nuclear magnetic moments (NMagM)
  in nuclear magnetons)

  Atom         1           2           3           4           5           6           7           8           9          10
 IAtWgt=          12          12          12          12          12           1           1           1           1           1
 AtmWgt=  12.0000000  12.0000000  12.0000000  12.0000000  12.0000000   1.0078250   1.0078250   1.0078250   1.0078250   1.0078250
 NucSpn=           0           0           0           0           0           1           1           1           1           1
 AtZEff=   0.0000000   0.0000000   0.0000000   0.0000000   0.0000000   0.0000000   0.0000000   0.0000000   0.0000000   0.0000000
 NQMom=    0.0000000   0.0000000   0.0000000   0.0000000   0.0000000   0.0000000   0.0000000   0.0000000   0.0000000   0.0000000
 NMagM=    0.0000000   0.0000000   0.0000000   0.0000000   0.0000000   2.7928460   2.7928460   2.7928460   2.7928460   2.7928460
 AtZNuc=   6.0000000   6.0000000   6.0000000   6.0000000   6.0000000   1.0000000   1.0000000   1.0000000   1.0000000   1.0000000

  Atom        11          12          13
 IAtWgt=           1           1           1
 AtmWgt=   1.0078250   1.0078250   1.0078250
 NucSpn=           1           1           1
 AtZEff=   0.0000000   0.0000000   0.0000000
 NQMom=    0.0000000   0.0000000   0.0000000
 NMagM=    2.7928460   2.7928460   2.7928460
 AtZNuc=   1.0000000   1.0000000   1.0000000
 No MM parameters found.
 Leave Link  101 at Wed Oct 21 14:41:00 2020, MaxMem=  2684354560 cpu:               7.5 elap:               1.3
 (Enter /udrive/faculty/rpeverati/g16/g16/l103.exe)

 GradGradGradGradGradGradGradGradGradGradGradGradGradGradGradGradGradGrad
 Berny optimization.
 Optmz: redundant internal coordinate code flag= 1
 Initialization pass.
                           ----------------------------
                           !    Initial Parameters    !
                           ! (Angstroms and Degrees)  !
 --------------------------                            --------------------------
 ! Name  Definition              Value          Derivative Info.                !
 --------------------------------------------------------------------------------
 ! R1    R(1,2)                  1.4138         estimate D2E/DX2                !
 ! R2    R(1,11)                 1.0861         estimate D2E/DX2                !
 ! R3    R(1,12)                 1.42           estimate D2E/DX2                !
 ! R4    R(1,13)                 1.0824         estimate D2E/DX2                !
 ! R5    R(2,3)                  1.3933         estimate D2E/DX2                !
 ! R6    R(2,10)                 1.0841         estimate D2E/DX2                !
 ! R7    R(3,4)                  1.3933         estimate D2E/DX2                !
 ! R8    R(3,9)                  1.0817         estimate D2E/DX2                !
 ! R9    R(4,5)                  1.4138         estimate D2E/DX2                !
 ! R10   R(4,8)                  1.0841         estimate D2E/DX2                !
 ! R11   R(5,6)                  1.0861         estimate D2E/DX2                !
 ! R12   R(5,7)                  1.0824         estimate D2E/DX2                !
 ! R13   R(5,12)                 1.42           estimate D2E/DX2                !
 ! A1    A(2,1,11)             116.3274         estimate D2E/DX2                !
 ! A2    A(2,1,12)              97.8015         estimate D2E/DX2                !
 ! A3    A(2,1,13)             119.0957         estimate D2E/DX2                !
 ! A4    A(11,1,12)            119.7086         estimate D2E/DX2                !
 ! A5    A(11,1,13)            112.1348         estimate D2E/DX2                !
 ! A6    A(12,1,13)             88.0329         estimate D2E/DX2                !
 ! A7    A(1,2,3)              122.8982         estimate D2E/DX2                !
 ! A8    A(1,2,10)             118.7584         estimate D2E/DX2                !
 ! A9    A(3,2,10)             116.4911         estimate D2E/DX2                !
 ! A10   A(2,3,4)              119.893          estimate D2E/DX2                !
 ! A11   A(2,3,9)              118.5485         estimate D2E/DX2                !
 ! A12   A(4,3,9)              118.5485         estimate D2E/DX2                !
 ! A13   A(3,4,5)              122.8985         estimate D2E/DX2                !
 ! A14   A(3,4,8)              116.4909         estimate D2E/DX2                !
 ! A15   A(5,4,8)              118.7584         estimate D2E/DX2                !
 ! A16   A(4,5,6)              116.3283         estimate D2E/DX2                !
 ! A17   A(4,5,7)              119.0957         estimate D2E/DX2                !
 ! A18   A(4,5,12)              97.801          estimate D2E/DX2                !
 ! A19   A(6,5,7)              112.1349         estimate D2E/DX2                !
 ! A20   A(6,5,12)             119.7085         estimate D2E/DX2                !
 ! A21   A(7,5,12)              88.032          estimate D2E/DX2                !
 ! A22   A(1,12,5)             132.4725         estimate D2E/DX2                !
 ! D1    D(11,1,2,3)          -157.5701         estimate D2E/DX2                !
 ! D2    D(11,1,2,10)            6.3785         estimate D2E/DX2                !
 ! D3    D(12,1,2,3)           -28.8215         estimate D2E/DX2                !
 ! D4    D(12,1,2,10)          135.1272         estimate D2E/DX2                !
 ! D5    D(13,1,2,3)            63.2758         estimate D2E/DX2                !
 ! D6    D(13,1,2,10)         -132.7755         estimate D2E/DX2                !
 ! D7    D(2,1,12,5)            61.5015         estimate D2E/DX2                !
 ! D8    D(11,1,12,5)         -172.0882         estimate D2E/DX2                !
 ! D9    D(13,1,12,5)          -57.6025         estimate D2E/DX2                !
 ! D10   D(1,2,3,4)             16.1664         estimate D2E/DX2                !
 ! D11   D(1,2,3,9)            176.2677         estimate D2E/DX2                !
 ! D12   D(10,2,3,4)          -148.1199         estimate D2E/DX2                !
 ! D13   D(10,2,3,9)            11.9814         estimate D2E/DX2                !
 ! D14   D(2,3,4,5)            -16.1672         estimate D2E/DX2                !
 ! D15   D(2,3,4,8)            148.1195         estimate D2E/DX2                !
 ! D16   D(9,3,4,5)           -176.2685         estimate D2E/DX2                !
 ! D17   D(9,3,4,8)            -11.9818         estimate D2E/DX2                !
 ! D18   D(3,4,5,6)            157.571          estimate D2E/DX2                !
 ! D19   D(3,4,5,7)            -63.2736         estimate D2E/DX2                !
 ! D20   D(3,4,5,12)            28.8223         estimate D2E/DX2                !
 ! D21   D(8,4,5,6)             -6.378          estimate D2E/DX2                !
 ! D22   D(8,4,5,7)            132.7774         estimate D2E/DX2                !
 ! D23   D(8,4,5,12)          -135.1267         estimate D2E/DX2                !
 ! D24   D(4,5,12,1)           -61.502          estimate D2E/DX2                !
 ! D25   D(6,5,12,1)           172.087          estimate D2E/DX2                !
 ! D26   D(7,5,12,1)            57.6018         estimate D2E/DX2                !
 --------------------------------------------------------------------------------
 Maximum allowed force set to 1.00D+20.
 Trust Radius=1.00D-01 FncErr=1.00D-07 GrdErr=1.00D-07 EigMax=2.50D+02 EigMin=1.00D-04
 Number of steps in this run=     50 maximum allowed number of steps=    100.
 Search for a saddle point of order  1.
 GradGradGradGradGradGradGradGradGradGradGradGradGradGradGradGradGradGrad

 Leave Link  103 at Wed Oct 21 14:41:03 2020, MaxMem=  2684354560 cpu:               7.2 elap:               1.9
 (Enter /udrive/faculty/rpeverati/g16/g16/l202.exe)
                          Input orientation:                          
 ---------------------------------------------------------------------
 Center     Atomic      Atomic             Coordinates (Angstroms)
 Number     Number       Type             X           Y           Z
 ---------------------------------------------------------------------
      1          6           0       -1.299622   -0.904856   -0.020155
      2          6           0       -1.205947    0.505817   -0.013414
      3          6           0        0.000000    1.183362    0.153301
      4          6           0        1.205947    0.505814   -0.013422
      5          6           0        1.299627   -0.904851   -0.020147
      6          1           0        2.168796   -1.327552   -0.515697
      7          1           0        1.032044   -1.454385    0.873169
      8          1           0        2.037131    1.085586   -0.398504
      9          1           0        0.000001    2.262915    0.085905
     10          1           0       -2.037131    1.085586   -0.398481
     11          1           0       -2.168796   -1.327542   -0.515716
     12          1           0       -0.000011   -1.181944   -0.520808
     13          1           0       -1.032060   -1.454396    0.873158
 ---------------------------------------------------------------------
                    Distance matrix (angstroms):
                    1          2          3          4          5
     1  C    0.000000
     2  C    1.413796   0.000000
     3  C    2.465717   1.393259   0.000000
     4  C    2.875398   2.411894   1.393261   0.000000
     5  C    2.599250   2.875402   2.465714   1.413788   0.000000
     6  H    3.529045   3.873296   3.384660   2.130866   1.086140
     7  H    2.556692   3.104356   2.922505   2.158395   1.082406
     8  H    3.903707   3.316924   2.112807   1.084108   2.156132
     9  H    3.425645   2.133441   1.081655   2.133442   3.425641
    10  H    2.156133   1.084101   2.112801   3.316921   3.903708
    11  H    1.086143   2.130866   3.384656   3.873291   3.529053
    12  H    1.420007   2.135478   2.459491   2.135486   1.420036
    13  H    1.082401   2.158398   2.922517   3.104371   2.556709
                    6          7          8          9         10
     6  H    0.000000
     7  H    1.799233   0.000000
     8  H    2.419567   3.013106   0.000000
     9  H    4.237576   3.937413   2.402219   0.000000
    10  H    4.850443   4.181911   4.074262   2.402216   0.000000
    11  H    4.337592   3.491484   4.850438   4.237571   2.419559
    12  H    2.173695   1.755715   3.050672   3.497879   3.050658
    13  H    3.491487   2.064103   4.181933   3.937425   3.013095
                   11         12         13
    11  H    0.000000
    12  H    2.173672   0.000000
    13  H    1.799231   1.755704   0.000000
 Stoichiometry    C5H8
 Framework group  C1[X(C5H8)]
 Deg. of freedom    33
 Full point group                 C1      NOp   1
 Largest Abelian subgroup         C1      NOp   1
 Largest concise Abelian subgroup C1      NOp   1
                         Standard orientation:                         
 ---------------------------------------------------------------------
 Center     Atomic      Atomic             Coordinates (Angstroms)
 Number     Number       Type             X           Y           Z
 ---------------------------------------------------------------------
      1          6           0       -1.299623   -0.904855   -0.020155
      2          6           0       -1.205947    0.505819   -0.013414
      3          6           0        0.000001    1.183362    0.153301
      4          6           0        1.205947    0.505813   -0.013422
      5          6           0        1.299627   -0.904851   -0.020147
      6          1           0        2.168795   -1.327554   -0.515697
      7          1           0        1.032042   -1.454386    0.873169
      8          1           0        2.037132    1.085585   -0.398504
      9          1           0        0.000003    2.262916    0.085905
     10          1           0       -2.037130    1.085588   -0.398481
     11          1           0       -2.168797   -1.327539   -0.515716
     12          1           0       -0.000012   -1.181943   -0.520808
     13          1           0       -1.032061   -1.454395    0.873158
 ---------------------------------------------------------------------
 Rotational constants (GHZ):           8.1193781           5.1373721           3.2660768
 Leave Link  202 at Wed Oct 21 14:41:05 2020, MaxMem=  2684354560 cpu:               4.3 elap:               1.5
 (Enter /udrive/faculty/rpeverati/g16/g16/l301.exe)
 Standard basis: VSTO-6G (5D, 7F)
 Ernie: Thresh=  0.10000D-02 Tol=  0.10000D-05 Strict=F.
 EHB=         0.000000000 Number of Hydrogen Bonds=     0
  NNHCO=     0 NNPyr=     0 NCTC=     0               EPep=         0.000000000
    EC=        75.608473566  ECS=         2.224909379   EG=         0.394958348
   EHC=         0.000381520  EAt=       -24.512326006  AtH=         2.025891325
 EPDDG=         0.000000000  ECC=        78.228722813 EAtT=        26.538217331
  EHyb=         0.000000000
 There are    28 symmetry adapted cartesian basis functions of A   symmetry.
 There are    28 symmetry adapted basis functions of A   symmetry.
    28 basis functions,   168 primitive gaussians,    28 cartesian basis functions
    14 alpha electrons       14 beta electrons
       nuclear repulsion energy       104.7669401438 Hartrees.
 IExCor=    0 DFT=F Ex=HF Corr=None ExCW=0 ScaHFX=  1.000000
 ScaDFX=  1.000000  1.000000  1.000000  1.000000 ScalE2=  1.000000  1.000000
 IRadAn=      5 IRanWt=     -1 IRanGd=            0 ICorTp=0 IEmpDi=251
 Integral buffers will be    131072 words long.
 Regular integral format.
 Two-electron integral symmetry is turned off.
 R6Disp:  PM7 Dispersion energy=       -0.0008550842 Hartrees.
 Nuclear repulsion after empirical dispersion term =      104.7660850596 Hartrees.
 Leave Link  301 at Wed Oct 21 14:41:07 2020, MaxMem=  2684354560 cpu:               4.5 elap:               1.5
 (Enter /udrive/faculty/rpeverati/g16/g16/l302.exe)
 Do NDO integrals.
 NPDir=0 NMtPBC=     1 NCelOv=     1 NCel=       1 NClECP=     1 NCelD=      1
         NCelK=      1 NCelE2=     1 NClLst=     1 CellRange=     0.0.
 One-electron integrals computed using PRISM.
 NBasis=    28 RedAO= F EigKep=  0.00D+00  NBF=    28
 NBsUse=    28 1.00D-04 EigRej=  0.00D+00 NBFU=    28
 Leave Link  302 at Wed Oct 21 14:41:09 2020, MaxMem=  2684354560 cpu:               2.9 elap:               1.3
 (Enter /udrive/faculty/rpeverati/g16/g16/l303.exe)
 DipDrv:  MaxL=1.
 Leave Link  303 at Wed Oct 21 14:41:11 2020, MaxMem=  2684354560 cpu:               4.6 elap:               1.1
 (Enter /udrive/faculty/rpeverati/g16/g16/l401.exe)
 SCF N**3 symmetry information disabled.
 Simple Huckel Guess.
 JPrj=0 DoOrth=F DoCkMO=F.
 Leave Link  401 at Wed Oct 21 14:41:13 2020, MaxMem=  2684354560 cpu:               6.0 elap:               1.7
 (Enter /udrive/faculty/rpeverati/g16/g16/l502.exe)
 Keep J ints in memory in canonical form, NReq=861091.
 FoFCou: FMM=F IPFlag=           0 FMFlag=           0 FMFlg1=           0
         NFxFlg=           0 DoJE=F BraDBF=F KetDBF=F FulRan=T
         wScrn=  0.000000 ICntrl=       600 IOpCl=  2 I1Cent=           0 NGrid=           0
         NMat0=    1 NMatS0=     58 NMatT0=    0 NMatD0=    1 NMtDS0=    0 NMtDT0=    0
 Symmetry not used in FoFCou.
 Two-electron integral symmetry not used.
 Closed shell SCF:
 Using DIIS extrapolation, IDIIS=  1040.
 Overlap will be assumed to be unity.
 NGot=  2684354560 LenX=  2684291354 LenY=  2684290129
 Requested convergence on RMS density matrix=1.00D-08 within 120 cycles.
 Requested convergence on MAX density matrix=1.00D-06.
 Requested convergence on             energy=1.00D-06.
 No special actions if energy rises.

 Cycle   1  Pass 1  IDiag  1:
 E= 0.176713640927346    
 DIIS: error= 2.04D-02 at cycle   1 NSaved=   1.
 NSaved= 1 IEnMin= 1 EnMin= 0.176713640927346     IErMin= 1 ErrMin= 2.04D-02
 ErrMax= 2.04D-02  0.00D+00 EMaxC= 1.00D-01 BMatC= 2.32D-02 BMatP= 2.32D-02
 IDIUse=3 WtCom= 7.96D-01 WtEn= 2.04D-01
 Coeff-Com:  0.100D+01
 Coeff-En:   0.100D+01
 Coeff:      0.100D+01
 GapD=    2.000 DampG=2.000 DampE=0.500 DampFc=1.0000 IDamp=-1.
 RMSDP=8.67D-03 MaxDP=5.81D-02              OVMax= 0.00D+00

 Cycle   2  Pass 1  IDiag  1:
 E= 0.111482216500860     Delta-E=       -0.065231424426 Rises=F Damp=F
 DIIS: error= 6.20D-03 at cycle   2 NSaved=   2.
 NSaved= 2 IEnMin= 2 EnMin= 0.111482216500860     IErMin= 2 ErrMin= 6.20D-03
 ErrMax= 6.20D-03  0.00D+00 EMaxC= 1.00D-01 BMatC= 1.93D-03 BMatP= 2.32D-02
 IDIUse=3 WtCom= 9.38D-01 WtEn= 6.20D-02
 Coeff-Com: -0.361D+00 0.136D+01
 Coeff-En:   0.000D+00 0.100D+01
 Coeff:     -0.338D+00 0.134D+01
 RMSDP=3.84D-03 MaxDP=2.48D-02 DE=-6.52D-02 OVMax= 0.00D+00

 Cycle   3  Pass 1  IDiag  3:
 E= 0.104086693672215     Delta-E=       -0.007395522829 Rises=F Damp=F
 DIIS: error= 1.19D-03 at cycle   3 NSaved=   3.
 NSaved= 3 IEnMin= 3 EnMin= 0.104086693672215     IErMin= 3 ErrMin= 1.19D-03
 ErrMax= 1.19D-03  0.00D+00 EMaxC= 1.00D-01 BMatC= 1.07D-04 BMatP= 1.93D-03
 IDIUse=3 WtCom= 9.88D-01 WtEn= 1.19D-02
 Coeff-Com:  0.286D+00-0.115D+01 0.187D+01
 Coeff-En:   0.000D+00 0.000D+00 0.100D+01
 Coeff:      0.283D+00-0.114D+01 0.186D+01
 Gap=     0.325 Goal=   None    Shift=    0.000
 RMSDP=2.04D-03 MaxDP=1.76D-02 DE=-7.40D-03 OVMax= 3.11D-02

 Cycle   4  Pass 1  IDiag  3:
 E= 0.102995577762812     Delta-E=       -0.001091115909 Rises=F Damp=F
 DIIS: error= 5.89D-04 at cycle   4 NSaved=   4.
 NSaved= 4 IEnMin= 4 EnMin= 0.102995577762812     IErMin= 4 ErrMin= 5.89D-04
 ErrMax= 5.89D-04  0.00D+00 EMaxC= 1.00D-01 BMatC= 2.26D-05 BMatP= 1.07D-04
 IDIUse=3 WtCom= 9.94D-01 WtEn= 5.89D-03
 Coeff-Com: -0.336D+00 0.137D+01-0.259D+01 0.256D+01
 Coeff-En:   0.000D+00 0.000D+00 0.000D+00 0.100D+01
 Coeff:     -0.334D+00 0.136D+01-0.258D+01 0.255D+01
 Gap=     0.327 Goal=   None    Shift=    0.000
 RMSDP=1.71D-03 MaxDP=1.65D-02 DE=-1.09D-03 OVMax= 2.68D-02

 Cycle   5  Pass 1  IDiag  3:
 E= 0.102626444173680     Delta-E=       -0.000369133589 Rises=F Damp=F
 DIIS: error= 2.55D-04 at cycle   5 NSaved=   5.
 NSaved= 5 IEnMin= 5 EnMin= 0.102626444173680     IErMin= 5 ErrMin= 2.55D-04
 ErrMax= 2.55D-04  0.00D+00 EMaxC= 1.00D-01 BMatC= 2.19D-06 BMatP= 2.26D-05
 IDIUse=3 WtCom= 9.97D-01 WtEn= 2.55D-03
 Coeff-Com:  0.115D+00-0.476D+00 0.999D+00-0.131D+01 0.167D+01
 Coeff-En:   0.000D+00 0.000D+00 0.000D+00 0.000D+00 0.100D+01
 Coeff:      0.115D+00-0.475D+00 0.997D+00-0.131D+01 0.167D+01
 Gap=     0.327 Goal=   None    Shift=    0.000
 RMSDP=4.80D-04 MaxDP=5.09D-03 DE=-3.69D-04 OVMax= 6.81D-03

 Cycle   6  Pass 1  IDiag  3:
 E= 0.102597588642524     Delta-E=       -0.000028855531 Rises=F Damp=F
 DIIS: error= 6.27D-05 at cycle   6 NSaved=   6.
 NSaved= 6 IEnMin= 6 EnMin= 0.102597588642524     IErMin= 6 ErrMin= 6.27D-05
 ErrMax= 6.27D-05  0.00D+00 EMaxC= 1.00D-01 BMatC= 1.41D-07 BMatP= 2.19D-06
 IDIUse=1 WtCom= 1.00D+00 WtEn= 0.00D+00
 Coeff-Com: -0.185D-01 0.774D-01-0.183D+00 0.275D+00-0.595D+00 0.144D+01
 Coeff:     -0.185D-01 0.774D-01-0.183D+00 0.275D+00-0.595D+00 0.144D+01
 Gap=     0.327 Goal=   None    Shift=    0.000
 RMSDP=1.12D-04 MaxDP=1.29D-03 DE=-2.89D-05 OVMax= 1.49D-03

 Cycle   7  Pass 1  IDiag  3:
 E= 0.102596147316234     Delta-E=       -0.000001441326 Rises=F Damp=F
 DIIS: error= 1.49D-05 at cycle   7 NSaved=   7.
 NSaved= 7 IEnMin= 7 EnMin= 0.102596147316234     IErMin= 7 ErrMin= 1.49D-05
 ErrMax= 1.49D-05  0.00D+00 EMaxC= 1.00D-01 BMatC= 8.63D-09 BMatP= 1.41D-07
 IDIUse=1 WtCom= 1.00D+00 WtEn= 0.00D+00
 Coeff-Com:  0.479D-02-0.205D-01 0.559D-01-0.900D-01 0.244D+00-0.798D+00
 Coeff-Com:  0.160D+01
 Coeff:      0.479D-02-0.205D-01 0.559D-01-0.900D-01 0.244D+00-0.798D+00
 Coeff:      0.160D+01
 Gap=     0.327 Goal=   None    Shift=    0.000
 RMSDP=1.46D-05 MaxDP=1.55D-04 DE=-1.44D-06 OVMax= 1.61D-04

 Cycle   8  Pass 1  IDiag  3:
 E= 0.102596091010497     Delta-E=       -0.000000056306 Rises=F Damp=F
 DIIS: error= 3.03D-06 at cycle   8 NSaved=   8.
 NSaved= 8 IEnMin= 8 EnMin= 0.102596091010497     IErMin= 8 ErrMin= 3.03D-06
 ErrMax= 3.03D-06  0.00D+00 EMaxC= 1.00D-01 BMatC= 2.64D-10 BMatP= 8.63D-09
 IDIUse=1 WtCom= 1.00D+00 WtEn= 0.00D+00
 Coeff-Com: -0.185D-02 0.794D-02-0.218D-01 0.343D-01-0.927D-01 0.311D+00
 Coeff-Com: -0.738D+00 0.150D+01
 Coeff:     -0.185D-02 0.794D-02-0.218D-01 0.343D-01-0.927D-01 0.311D+00
 Coeff:     -0.738D+00 0.150D+01
 Gap=     0.327 Goal=   None    Shift=    0.000
 RMSDP=2.63D-06 MaxDP=2.65D-05 DE=-5.63D-08 OVMax= 2.99D-05

 Cycle   9  Pass 1  IDiag  3:
 E= 0.102596089357817     Delta-E=       -0.000000001653 Rises=F Damp=F
 DIIS: error= 3.12D-07 at cycle   9 NSaved=   9.
 NSaved= 9 IEnMin= 9 EnMin= 0.102596089357817     IErMin= 9 ErrMin= 3.12D-07
 ErrMax= 3.12D-07  0.00D+00 EMaxC= 1.00D-01 BMatC= 8.73D-12 BMatP= 2.64D-10
 IDIUse=1 WtCom= 1.00D+00 WtEn= 0.00D+00
 Coeff-Com:  0.103D-03-0.480D-03 0.188D-02-0.341D-02 0.110D-01-0.413D-01
 Coeff-Com:  0.119D+00-0.367D+00 0.128D+01
 Coeff:      0.103D-03-0.480D-03 0.188D-02-0.341D-02 0.110D-01-0.413D-01
 Coeff:      0.119D+00-0.367D+00 0.128D+01
 Gap=     0.327 Goal=   None    Shift=    0.000
 RMSDP=3.41D-07 MaxDP=1.40D-06 DE=-1.65D-09 OVMax= 2.66D-06

 Cycle  10  Pass 1  IDiag  3:
 E= 0.102596089311064     Delta-E=       -0.000000000047 Rises=F Damp=F
 DIIS: error= 8.93D-08 at cycle  10 NSaved=  10.
 NSaved=10 IEnMin=10 EnMin= 0.102596089311064     IErMin=10 ErrMin= 8.93D-08
 ErrMax= 8.93D-08  0.00D+00 EMaxC= 1.00D-01 BMatC= 6.96D-13 BMatP= 8.73D-12
 IDIUse=1 WtCom= 1.00D+00 WtEn= 0.00D+00
 Coeff-Com: -0.272D-04 0.123D-03-0.421D-03 0.691D-03-0.174D-02 0.649D-02
 Coeff-Com: -0.236D-01 0.922D-01-0.555D+00 0.148D+01
 Coeff:     -0.272D-04 0.123D-03-0.421D-03 0.691D-03-0.174D-02 0.649D-02
 Coeff:     -0.236D-01 0.922D-01-0.555D+00 0.148D+01
 Gap=     0.327 Goal=   None    Shift=    0.000
 RMSDP=1.34D-07 MaxDP=5.75D-07 DE=-4.68D-11 OVMax= 1.16D-06

 Cycle  11  Pass 1  IDiag  3:
 E= 0.102596089306189     Delta-E=       -0.000000000005 Rises=F Damp=F
 DIIS: error= 3.19D-08 at cycle  11 NSaved=  11.
 NSaved=11 IEnMin=11 EnMin= 0.102596089306189     IErMin=11 ErrMin= 3.19D-08
 ErrMax= 3.19D-08  0.00D+00 EMaxC= 1.00D-01 BMatC= 5.08D-14 BMatP= 6.96D-13
 IDIUse=1 WtCom= 1.00D+00 WtEn= 0.00D+00
 Coeff-Com:  0.892D-05-0.409D-04 0.145D-03-0.232D-03 0.503D-03-0.194D-02
 Coeff-Com:  0.884D-02-0.388D-01 0.276D+00-0.887D+00 0.164D+01
 Coeff:      0.892D-05-0.409D-04 0.145D-03-0.232D-03 0.503D-03-0.194D-02
 Coeff:      0.884D-02-0.388D-01 0.276D+00-0.887D+00 0.164D+01
 Gap=     0.327 Goal=   None    Shift=    0.000
 RMSDP=4.71D-08 MaxDP=3.20D-07 DE=-4.87D-12 OVMax= 5.54D-07

 Cycle  12  Pass 1  IDiag  3:
 E= 0.102596089305862     Delta-E=       -0.000000000000 Rises=F Damp=F
 DIIS: error= 1.78D-08 at cycle  12 NSaved=  12.
 NSaved=12 IEnMin=12 EnMin= 0.102596089305862     IErMin=12 ErrMin= 1.78D-08
 ErrMax= 1.78D-08  0.00D+00 EMaxC= 1.00D-01 BMatC= 9.51D-15 BMatP= 5.08D-14
 IDIUse=1 WtCom= 1.00D+00 WtEn= 0.00D+00
 Coeff-Com: -0.824D-06 0.601D-05-0.498D-04 0.860D-04-0.156D-03 0.774D-03
 Coeff-Com: -0.541D-02 0.274D-01-0.218D+00 0.753D+00-0.173D+01 0.217D+01
 Coeff:     -0.824D-06 0.601D-05-0.498D-04 0.860D-04-0.156D-03 0.774D-03
 Coeff:     -0.541D-02 0.274D-01-0.218D+00 0.753D+00-0.173D+01 0.217D+01
 Gap=     0.327 Goal=   None    Shift=    0.000
 RMSDP=3.21D-08 MaxDP=2.47D-07 DE=-3.27D-13 OVMax= 4.46D-07

 Cycle  13  Pass 1  IDiag  3:
 E= 0.102596089305592     Delta-E=       -0.000000000000 Rises=F Damp=F
 DIIS: error= 6.00D-09 at cycle  13 NSaved=  13.
 NSaved=13 IEnMin=13 EnMin= 0.102596089305592     IErMin=13 ErrMin= 6.00D-09
 ErrMax= 6.00D-09  0.00D+00 EMaxC= 1.00D-01 BMatC= 1.16D-15 BMatP= 9.51D-15
 IDIUse=1 WtCom= 1.00D+00 WtEn= 0.00D+00
 Coeff-Com: -0.131D-05 0.421D-05 0.822D-05-0.186D-04 0.248D-04-0.229D-03
 Coeff-Com:  0.239D-02-0.130D-01 0.108D+00-0.380D+00 0.917D+00-0.145D+01
 Coeff-Com:  0.182D+01
 Coeff:     -0.131D-05 0.421D-05 0.822D-05-0.186D-04 0.248D-04-0.229D-03
 Coeff:      0.239D-02-0.130D-01 0.108D+00-0.380D+00 0.917D+00-0.145D+01
 Coeff:      0.182D+01
 Gap=     0.327 Goal=   None    Shift=    0.000
 RMSDP=1.23D-08 MaxDP=9.66D-08 DE=-2.70D-13 OVMax= 1.76D-07

 Cycle  14  Pass 1  IDiag  3:
 E= 0.102596089305521     Delta-E=       -0.000000000000 Rises=F Damp=F
 DIIS: error= 1.27D-09 at cycle  14 NSaved=  14.
 NSaved=14 IEnMin=14 EnMin= 0.102596089305521     IErMin=14 ErrMin= 1.27D-09
 ErrMax= 1.27D-09  0.00D+00 EMaxC= 1.00D-01 BMatC= 8.83D-17 BMatP= 1.16D-15
 IDIUse=1 WtCom= 1.00D+00 WtEn= 0.00D+00
 Coeff-Com: -0.360D-07 0.454D-06-0.573D-05 0.101D-04-0.256D-04 0.117D-03
 Coeff-Com: -0.645D-03 0.291D-02-0.215D-01 0.731D-01-0.172D+00 0.302D+00
 Coeff-Com: -0.651D+00 0.147D+01
 Coeff:     -0.360D-07 0.454D-06-0.573D-05 0.101D-04-0.256D-04 0.117D-03
 Coeff:     -0.645D-03 0.291D-02-0.215D-01 0.731D-01-0.172D+00 0.302D+00
 Coeff:     -0.651D+00 0.147D+01
 Gap=     0.327 Goal=   None    Shift=    0.000
 RMSDP=3.05D-09 MaxDP=2.27D-08 DE=-7.11D-14 OVMax= 4.00D-08

 Cycle  15  Pass 2  IDiag  1:
 SCF Done:  E(RPM7) =  0.102596089306     A.U. after   15 cycles
            NFock= 14  Conv=0.30D-08     -V/T= 1.0024
 KE=-4.225325948585D+01 PE=-1.498017036622D+02 EE= 8.739147417771D+01
 Leave Link  502 at Wed Oct 21 14:41:16 2020, MaxMem=  2684354560 cpu:              16.6 elap:               2.5
 (Enter /udrive/faculty/rpeverati/g16/g16/l508.exe)
 QCSCF skips out because SCF is already converged.
 Leave Link  508 at Wed Oct 21 14:41:18 2020, MaxMem=  2684354560 cpu:               0.6 elap:               1.1
 (Enter /udrive/faculty/rpeverati/g16/g16/l601.exe)
 Copying SCF densities to generalized density rwf, IOpCl= 0 IROHF=0.

 **********************************************************************

            Population analysis using the SCF density.

 **********************************************************************

 Orbital symmetries:
       Occupied  (A) (A) (A) (A) (A) (A) (A) (A) (A) (A) (A) (A)
                 (A) (A)
       Virtual   (A) (A) (A) (A) (A) (A) (A) (A) (A) (A) (A) (A)
                 (A) (A)
 The electronic state is 1-A.
 Alpha  occ. eigenvalues --   -1.09448  -0.93750  -0.89266  -0.74165  -0.67472
 Alpha  occ. eigenvalues --   -0.62567  -0.53637  -0.52385  -0.51848  -0.49105
 Alpha  occ. eigenvalues --   -0.46173  -0.44786  -0.35766  -0.33234
 Alpha virt. eigenvalues --   -0.00535   0.04587   0.16493   0.17632   0.17973
 Alpha virt. eigenvalues --    0.19044   0.20394   0.21362   0.21786   0.22918
 Alpha virt. eigenvalues --    0.23087   0.23275   0.24709   0.24752
          Condensed to atoms (all electrons):
               1          2          3          4          5          6
     1  C    4.483875   0.000000   0.000000   0.000000   0.000000   0.000000
     2  C    0.000000   4.036502   0.000000   0.000000   0.000000   0.000000
     3  C    0.000000   0.000000   4.285190   0.000000   0.000000   0.000000
     4  C    0.000000   0.000000   0.000000   4.036505   0.000000   0.000000
     5  C    0.000000   0.000000   0.000000   0.000000   4.483864   0.000000
     6  H    0.000000   0.000000   0.000000   0.000000   0.000000   0.850883
     7  H    0.000000   0.000000   0.000000   0.000000   0.000000   0.000000
     8  H    0.000000   0.000000   0.000000   0.000000   0.000000   0.000000
     9  H    0.000000   0.000000   0.000000   0.000000   0.000000   0.000000
    10  H    0.000000   0.000000   0.000000   0.000000   0.000000   0.000000
    11  H    0.000000   0.000000   0.000000   0.000000   0.000000   0.000000
    12  H    0.000000   0.000000   0.000000   0.000000   0.000000   0.000000
    13  H    0.000000   0.000000   0.000000   0.000000   0.000000   0.000000
               7          8          9         10         11         12
     1  C    0.000000   0.000000   0.000000   0.000000   0.000000   0.000000
     2  C    0.000000   0.000000   0.000000   0.000000   0.000000   0.000000
     3  C    0.000000   0.000000   0.000000   0.000000   0.000000   0.000000
     4  C    0.000000   0.000000   0.000000   0.000000   0.000000   0.000000
     5  C    0.000000   0.000000   0.000000   0.000000   0.000000   0.000000
     6  H    0.000000   0.000000   0.000000   0.000000   0.000000   0.000000
     7  H    0.836636   0.000000   0.000000   0.000000   0.000000   0.000000
     8  H    0.000000   0.863192   0.000000   0.000000   0.000000   0.000000
     9  H    0.000000   0.000000   0.848572   0.000000   0.000000   0.000000
    10  H    0.000000   0.000000   0.000000   0.863193   0.000000   0.000000
    11  H    0.000000   0.000000   0.000000   0.000000   0.850882   0.000000
    12  H    0.000000   0.000000   0.000000   0.000000   0.000000   0.724070
    13  H    0.000000   0.000000   0.000000   0.000000   0.000000   0.000000
              13
     1  C    0.000000
     2  C    0.000000
     3  C    0.000000
     4  C    0.000000
     5  C    0.000000
     6  H    0.000000
     7  H    0.000000
     8  H    0.000000
     9  H    0.000000
    10  H    0.000000
    11  H    0.000000
    12  H    0.000000
    13  H    0.836636
 Mulliken charges:
               1
     1  C   -0.483875
     2  C   -0.036502
     3  C   -0.285190
     4  C   -0.036505
     5  C   -0.483864
     6  H    0.149117
     7  H    0.163364
     8  H    0.136808
     9  H    0.151428
    10  H    0.136807
    11  H    0.149118
    12  H    0.275930
    13  H    0.163364
 Sum of Mulliken charges =  -0.00000
 Mulliken charges with hydrogens summed into heavy atoms:
               1
     1  C    0.104537
     2  C    0.100305
     3  C   -0.133761
     4  C    0.100303
     5  C   -0.171383
 Charge=             -0.0000 electrons
 Dipole moment (field-independent basis, Debye):
    X=              0.0000    Y=             -0.2255    Z=             -0.4522  Tot=              0.5053
 N-N= 1.047660850596D+02 E-N=-1.498017036706D+02  KE=-4.225325948585D+01
 Leave Link  601 at Wed Oct 21 14:41:20 2020, MaxMem=  2684354560 cpu:               3.7 elap:               1.1
 (Enter /udrive/faculty/rpeverati/g16/g16/l701.exe)
 ... and contract with generalized density number  0.
 Compute integral first derivatives.
 R6Disp: Adding PM7 dispersion energy 1st derivatives to the gradient.
 Leave Link  701 at Wed Oct 21 14:41:22 2020, MaxMem=  2684354560 cpu:               8.0 elap:               1.8
 (Enter /udrive/faculty/rpeverati/g16/g16/l702.exe)
 L702 exits ... SP integral derivatives will be done elsewhere.
 Leave Link  702 at Wed Oct 21 14:41:24 2020, MaxMem=  2684354560 cpu:               2.3 elap:               1.0
 (Enter /udrive/faculty/rpeverati/g16/g16/l703.exe)
 Integral derivatives from FoFJK, PRISM(SPDF).
 Compute integral first derivatives, UseDBF=F ICtDFT=           0.
 Calling FoFJK, ICntrl=      2127 FMM=F ISym2X=0 I1Cent= 0 IOpClX= 0 NMat=1 NMatS=1 NMatT=0.
 FoFJK:  IHMeth=43 ICntrl=    2127 DoSepK=F KAlg= 0 I1Cent=           0 FoldK=F
 IRaf=         0 NMat=       1 IRICut=       1 DoRegI=T DoRafI=F ISym2E= 0 IDoP0=3 IntGTp=3.
 FoFCou: FMM=F IPFlag=           0 FMFlag=      100000 FMFlg1=         800
         NFxFlg=           0 DoJE=F BraDBF=F KetDBF=F FulRan=T
         wScrn=  0.000000 ICntrl=      2127 IOpCl=  0 I1Cent=           0 NGrid=           0
         NMat0=    1 NMatS0=      1 NMatT0=    0 NMatD0=    1 NMtDS0=    0 NMtDT0=    0
 Symmetry not used in FoFCou.
 Leave Link  703 at Wed Oct 21 14:41:26 2020, MaxMem=  2684354560 cpu:               5.3 elap:               1.3
 (Enter /udrive/faculty/rpeverati/g16/g16/l716.exe)
 Dipole        = 6.74270010D-06-8.87373820D-02-1.77897314D-01
 ***** Axes restored to original set *****
 -------------------------------------------------------------------
 Center     Atomic                   Forces (Hartrees/Bohr)
 Number     Number              X              Y              Z
 -------------------------------------------------------------------
      1        6          -0.010394054    0.018136632    0.009145771
      2        6           0.003219133   -0.005331631   -0.005305563
      3        6          -0.000003322   -0.004563236   -0.005008528
      4        6          -0.003212859   -0.005333493   -0.005306767
      5        6           0.010399862    0.018138586    0.009151678
      6        1          -0.005432504   -0.003665290   -0.001419090
      7        1           0.001429693   -0.003460334    0.000782489
      8        1           0.006333755    0.001746679    0.001884643
      9        1           0.000000097    0.004224211    0.005554344
     10        1          -0.006336877    0.001748269    0.001884657
     11        1           0.005433610   -0.003665323   -0.001418586
     12        1          -0.000005990   -0.014514386   -0.010730481
     13        1          -0.001430543   -0.003460684    0.000785434
 -------------------------------------------------------------------
 Cartesian Forces:  Max     0.018138586 RMS     0.006809693
 Leave Link  716 at Wed Oct 21 14:41:28 2020, MaxMem=  2684354560 cpu:               3.6 elap:               1.4
 (Enter /udrive/faculty/rpeverati/g16/g16/l103.exe)

 GradGradGradGradGradGradGradGradGradGradGradGradGradGradGradGradGradGrad
 Berny optimization.
 Optmz: redundant internal coordinate code flag= 1
 FormGI is forming the generalized inverse of G from B-inverse, IUseBI=4.
 Internal  Forces:  Max     0.008271476 RMS     0.003098883
 Search for a saddle point.
 Step number   1 out of a maximum of   50
 All quantities printed in internal units (Hartrees-Bohrs-Radians)
 Swapping is turned off.
 Second derivative matrix not updated -- first step.
 The second derivative matrix:
                          R1        R2        R3        R4        R5
           R1           0.43409
           R2           0.00000   0.35262
           R3           0.00000   0.00000   0.13683
           R4           0.00000   0.00000   0.00000   0.35706
           R5           0.00000   0.00000   0.00000   0.00000   0.46756
           R6           0.00000   0.00000   0.00000   0.00000   0.00000
           R7           0.00000   0.00000   0.00000   0.00000   0.00000
           R8           0.00000   0.00000   0.00000   0.00000   0.00000
           R9           0.00000   0.00000   0.00000   0.00000   0.00000
           R10          0.00000   0.00000   0.00000   0.00000   0.00000
           R11          0.00000   0.00000   0.00000   0.00000   0.00000
           R12          0.00000   0.00000   0.00000   0.00000   0.00000
           R13          0.00000   0.00000   0.00000   0.00000   0.00000
           A1           0.00000   0.00000   0.00000   0.00000   0.00000
           A2           0.00000   0.00000   0.00000   0.00000   0.00000
           A3           0.00000   0.00000   0.00000   0.00000   0.00000
           A4           0.00000   0.00000   0.00000   0.00000   0.00000
           A5           0.00000   0.00000   0.00000   0.00000   0.00000
           A6           0.00000   0.00000   0.00000   0.00000   0.00000
           A7           0.00000   0.00000   0.00000   0.00000   0.00000
           A8           0.00000   0.00000   0.00000   0.00000   0.00000
           A9           0.00000   0.00000   0.00000   0.00000   0.00000
           A10          0.00000   0.00000   0.00000   0.00000   0.00000
           A11          0.00000   0.00000   0.00000   0.00000   0.00000
           A12          0.00000   0.00000   0.00000   0.00000   0.00000
           A13          0.00000   0.00000   0.00000   0.00000   0.00000
           A14          0.00000   0.00000   0.00000   0.00000   0.00000
           A15          0.00000   0.00000   0.00000   0.00000   0.00000
           A16          0.00000   0.00000   0.00000   0.00000   0.00000
           A17          0.00000   0.00000   0.00000   0.00000   0.00000
           A18          0.00000   0.00000   0.00000   0.00000   0.00000
           A19          0.00000   0.00000   0.00000   0.00000   0.00000
           A20          0.00000   0.00000   0.00000   0.00000   0.00000
           A21          0.00000   0.00000   0.00000   0.00000   0.00000
           A22          0.00000   0.00000   0.00000   0.00000   0.00000
           D1           0.00000   0.00000   0.00000   0.00000   0.00000
           D2           0.00000   0.00000   0.00000   0.00000   0.00000
           D3           0.00000   0.00000   0.00000   0.00000   0.00000
           D4           0.00000   0.00000   0.00000   0.00000   0.00000
           D5           0.00000   0.00000   0.00000   0.00000   0.00000
           D6           0.00000   0.00000   0.00000   0.00000   0.00000
           D7           0.00000   0.00000   0.00000   0.00000   0.00000
           D8           0.00000   0.00000   0.00000   0.00000   0.00000
           D9           0.00000   0.00000   0.00000   0.00000   0.00000
           D10          0.00000   0.00000   0.00000   0.00000   0.00000
           D11          0.00000   0.00000   0.00000   0.00000   0.00000
           D12          0.00000   0.00000   0.00000   0.00000   0.00000
           D13          0.00000   0.00000   0.00000   0.00000   0.00000
           D14          0.00000   0.00000   0.00000   0.00000   0.00000
           D15          0.00000   0.00000   0.00000   0.00000   0.00000
           D16          0.00000   0.00000   0.00000   0.00000   0.00000
           D17          0.00000   0.00000   0.00000   0.00000   0.00000
           D18          0.00000   0.00000   0.00000   0.00000   0.00000
           D19          0.00000   0.00000   0.00000   0.00000   0.00000
           D20          0.00000   0.00000   0.00000   0.00000   0.00000
           D21          0.00000   0.00000   0.00000   0.00000   0.00000
           D22          0.00000   0.00000   0.00000   0.00000   0.00000
           D23          0.00000   0.00000   0.00000   0.00000   0.00000
           D24          0.00000   0.00000   0.00000   0.00000   0.00000
           D25          0.00000   0.00000   0.00000   0.00000   0.00000
           D26          0.00000   0.00000   0.00000   0.00000   0.00000
                          R6        R7        R8        R9        R10
           R6           0.35503
           R7           0.00000   0.46756
           R8           0.00000   0.00000   0.35795
           R9           0.00000   0.00000   0.00000   0.43410
           R10          0.00000   0.00000   0.00000   0.00000   0.35502
           R11          0.00000   0.00000   0.00000   0.00000   0.00000
           R12          0.00000   0.00000   0.00000   0.00000   0.00000
           R13          0.00000   0.00000   0.00000   0.00000   0.00000
           A1           0.00000   0.00000   0.00000   0.00000   0.00000
           A2           0.00000   0.00000   0.00000   0.00000   0.00000
           A3           0.00000   0.00000   0.00000   0.00000   0.00000
           A4           0.00000   0.00000   0.00000   0.00000   0.00000
           A5           0.00000   0.00000   0.00000   0.00000   0.00000
           A6           0.00000   0.00000   0.00000   0.00000   0.00000
           A7           0.00000   0.00000   0.00000   0.00000   0.00000
           A8           0.00000   0.00000   0.00000   0.00000   0.00000
           A9           0.00000   0.00000   0.00000   0.00000   0.00000
           A10          0.00000   0.00000   0.00000   0.00000   0.00000
           A11          0.00000   0.00000   0.00000   0.00000   0.00000
           A12          0.00000   0.00000   0.00000   0.00000   0.00000
           A13          0.00000   0.00000   0.00000   0.00000   0.00000
           A14          0.00000   0.00000   0.00000   0.00000   0.00000
           A15          0.00000   0.00000   0.00000   0.00000   0.00000
           A16          0.00000   0.00000   0.00000   0.00000   0.00000
           A17          0.00000   0.00000   0.00000   0.00000   0.00000
           A18          0.00000   0.00000   0.00000   0.00000   0.00000
           A19          0.00000   0.00000   0.00000   0.00000   0.00000
           A20          0.00000   0.00000   0.00000   0.00000   0.00000
           A21          0.00000   0.00000   0.00000   0.00000   0.00000
           A22          0.00000   0.00000   0.00000   0.00000   0.00000
           D1           0.00000   0.00000   0.00000   0.00000   0.00000
           D2           0.00000   0.00000   0.00000   0.00000   0.00000
           D3           0.00000   0.00000   0.00000   0.00000   0.00000
           D4           0.00000   0.00000   0.00000   0.00000   0.00000
           D5           0.00000   0.00000   0.00000   0.00000   0.00000
           D6           0.00000   0.00000   0.00000   0.00000   0.00000
           D7           0.00000   0.00000   0.00000   0.00000   0.00000
           D8           0.00000   0.00000   0.00000   0.00000   0.00000
           D9           0.00000   0.00000   0.00000   0.00000   0.00000
           D10          0.00000   0.00000   0.00000   0.00000   0.00000
           D11          0.00000   0.00000   0.00000   0.00000   0.00000
           D12          0.00000   0.00000   0.00000   0.00000   0.00000
           D13          0.00000   0.00000   0.00000   0.00000   0.00000
           D14          0.00000   0.00000   0.00000   0.00000   0.00000
           D15          0.00000   0.00000   0.00000   0.00000   0.00000
           D16          0.00000   0.00000   0.00000   0.00000   0.00000
           D17          0.00000   0.00000   0.00000   0.00000   0.00000
           D18          0.00000   0.00000   0.00000   0.00000   0.00000
           D19          0.00000   0.00000   0.00000   0.00000   0.00000
           D20          0.00000   0.00000   0.00000   0.00000   0.00000
           D21          0.00000   0.00000   0.00000   0.00000   0.00000
           D22          0.00000   0.00000   0.00000   0.00000   0.00000
           D23          0.00000   0.00000   0.00000   0.00000   0.00000
           D24          0.00000   0.00000   0.00000   0.00000   0.00000
           D25          0.00000   0.00000   0.00000   0.00000   0.00000
           D26          0.00000   0.00000   0.00000   0.00000   0.00000
                          R11       R12       R13       A1        A2
           R11          0.35263
           R12          0.00000   0.35705
           R13          0.00000   0.00000   0.13682
           A1           0.00000   0.00000   0.00000   0.16000
           A2           0.00000   0.00000   0.00000   0.00000   0.16000
           A3           0.00000   0.00000   0.00000   0.00000   0.00000
           A4           0.00000   0.00000   0.00000   0.00000   0.00000
           A5           0.00000   0.00000   0.00000   0.00000   0.00000
           A6           0.00000   0.00000   0.00000   0.00000   0.00000
           A7           0.00000   0.00000   0.00000   0.00000   0.00000
           A8           0.00000   0.00000   0.00000   0.00000   0.00000
           A9           0.00000   0.00000   0.00000   0.00000   0.00000
           A10          0.00000   0.00000   0.00000   0.00000   0.00000
           A11          0.00000   0.00000   0.00000   0.00000   0.00000
           A12          0.00000   0.00000   0.00000   0.00000   0.00000
           A13          0.00000   0.00000   0.00000   0.00000   0.00000
           A14          0.00000   0.00000   0.00000   0.00000   0.00000
           A15          0.00000   0.00000   0.00000   0.00000   0.00000
           A16          0.00000   0.00000   0.00000   0.00000   0.00000
           A17          0.00000   0.00000   0.00000   0.00000   0.00000
           A18          0.00000   0.00000   0.00000   0.00000   0.00000
           A19          0.00000   0.00000   0.00000   0.00000   0.00000
           A20          0.00000   0.00000   0.00000   0.00000   0.00000
           A21          0.00000   0.00000   0.00000   0.00000   0.00000
           A22          0.00000   0.00000   0.00000   0.00000   0.00000
           D1           0.00000   0.00000   0.00000   0.00000   0.00000
           D2           0.00000   0.00000   0.00000   0.00000   0.00000
           D3           0.00000   0.00000   0.00000   0.00000   0.00000
           D4           0.00000   0.00000   0.00000   0.00000   0.00000
           D5           0.00000   0.00000   0.00000   0.00000   0.00000
           D6           0.00000   0.00000   0.00000   0.00000   0.00000
           D7           0.00000   0.00000   0.00000   0.00000   0.00000
           D8           0.00000   0.00000   0.00000   0.00000   0.00000
           D9           0.00000   0.00000   0.00000   0.00000   0.00000
           D10          0.00000   0.00000   0.00000   0.00000   0.00000
           D11          0.00000   0.00000   0.00000   0.00000   0.00000
           D12          0.00000   0.00000   0.00000   0.00000   0.00000
           D13          0.00000   0.00000   0.00000   0.00000   0.00000
           D14          0.00000   0.00000   0.00000   0.00000   0.00000
           D15          0.00000   0.00000   0.00000   0.00000   0.00000
           D16          0.00000   0.00000   0.00000   0.00000   0.00000
           D17          0.00000   0.00000   0.00000   0.00000   0.00000
           D18          0.00000   0.00000   0.00000   0.00000   0.00000
           D19          0.00000   0.00000   0.00000   0.00000   0.00000
           D20          0.00000   0.00000   0.00000   0.00000   0.00000
           D21          0.00000   0.00000   0.00000   0.00000   0.00000
           D22          0.00000   0.00000   0.00000   0.00000   0.00000
           D23          0.00000   0.00000   0.00000   0.00000   0.00000
           D24          0.00000   0.00000   0.00000   0.00000   0.00000
           D25          0.00000   0.00000   0.00000   0.00000   0.00000
           D26          0.00000   0.00000   0.00000   0.00000   0.00000
                          A3        A4        A5        A6        A7
           A3           0.16000
           A4           0.00000   0.16000
           A5           0.00000   0.00000   0.16000
           A6           0.00000   0.00000   0.00000   0.16000
           A7           0.00000   0.00000   0.00000   0.00000   0.25000
           A8           0.00000   0.00000   0.00000   0.00000   0.00000
           A9           0.00000   0.00000   0.00000   0.00000   0.00000
           A10          0.00000   0.00000   0.00000   0.00000   0.00000
           A11          0.00000   0.00000   0.00000   0.00000   0.00000
           A12          0.00000   0.00000   0.00000   0.00000   0.00000
           A13          0.00000   0.00000   0.00000   0.00000   0.00000
           A14          0.00000   0.00000   0.00000   0.00000   0.00000
           A15          0.00000   0.00000   0.00000   0.00000   0.00000
           A16          0.00000   0.00000   0.00000   0.00000   0.00000
           A17          0.00000   0.00000   0.00000   0.00000   0.00000
           A18          0.00000   0.00000   0.00000   0.00000   0.00000
           A19          0.00000   0.00000   0.00000   0.00000   0.00000
           A20          0.00000   0.00000   0.00000   0.00000   0.00000
           A21          0.00000   0.00000   0.00000   0.00000   0.00000
           A22          0.00000   0.00000   0.00000   0.00000   0.00000
           D1           0.00000   0.00000   0.00000   0.00000   0.00000
           D2           0.00000   0.00000   0.00000   0.00000   0.00000
           D3           0.00000   0.00000   0.00000   0.00000   0.00000
           D4           0.00000   0.00000   0.00000   0.00000   0.00000
           D5           0.00000   0.00000   0.00000   0.00000   0.00000
           D6           0.00000   0.00000   0.00000   0.00000   0.00000
           D7           0.00000   0.00000   0.00000   0.00000   0.00000
           D8           0.00000   0.00000   0.00000   0.00000   0.00000
           D9           0.00000   0.00000   0.00000   0.00000   0.00000
           D10          0.00000   0.00000   0.00000   0.00000   0.00000
           D11          0.00000   0.00000   0.00000   0.00000   0.00000
           D12          0.00000   0.00000   0.00000   0.00000   0.00000
           D13          0.00000   0.00000   0.00000   0.00000   0.00000
           D14          0.00000   0.00000   0.00000   0.00000   0.00000
           D15          0.00000   0.00000   0.00000   0.00000   0.00000
           D16          0.00000   0.00000   0.00000   0.00000   0.00000
           D17          0.00000   0.00000   0.00000   0.00000   0.00000
           D18          0.00000   0.00000   0.00000   0.00000   0.00000
           D19          0.00000   0.00000   0.00000   0.00000   0.00000
           D20          0.00000   0.00000   0.00000   0.00000   0.00000
           D21          0.00000   0.00000   0.00000   0.00000   0.00000
           D22          0.00000   0.00000   0.00000   0.00000   0.00000
           D23          0.00000   0.00000   0.00000   0.00000   0.00000
           D24          0.00000   0.00000   0.00000   0.00000   0.00000
           D25          0.00000   0.00000   0.00000   0.00000   0.00000
           D26          0.00000   0.00000   0.00000   0.00000   0.00000
                          A8        A9        A10       A11       A12
           A8           0.16000
           A9           0.00000   0.16000
           A10          0.00000   0.00000   0.25000
           A11          0.00000   0.00000   0.00000   0.16000
           A12          0.00000   0.00000   0.00000   0.00000   0.16000
           A13          0.00000   0.00000   0.00000   0.00000   0.00000
           A14          0.00000   0.00000   0.00000   0.00000   0.00000
           A15          0.00000   0.00000   0.00000   0.00000   0.00000
           A16          0.00000   0.00000   0.00000   0.00000   0.00000
           A17          0.00000   0.00000   0.00000   0.00000   0.00000
           A18          0.00000   0.00000   0.00000   0.00000   0.00000
           A19          0.00000   0.00000   0.00000   0.00000   0.00000
           A20          0.00000   0.00000   0.00000   0.00000   0.00000
           A21          0.00000   0.00000   0.00000   0.00000   0.00000
           A22          0.00000   0.00000   0.00000   0.00000   0.00000
           D1           0.00000   0.00000   0.00000   0.00000   0.00000
           D2           0.00000   0.00000   0.00000   0.00000   0.00000
           D3           0.00000   0.00000   0.00000   0.00000   0.00000
           D4           0.00000   0.00000   0.00000   0.00000   0.00000
           D5           0.00000   0.00000   0.00000   0.00000   0.00000
           D6           0.00000   0.00000   0.00000   0.00000   0.00000
           D7           0.00000   0.00000   0.00000   0.00000   0.00000
           D8           0.00000   0.00000   0.00000   0.00000   0.00000
           D9           0.00000   0.00000   0.00000   0.00000   0.00000
           D10          0.00000   0.00000   0.00000   0.00000   0.00000
           D11          0.00000   0.00000   0.00000   0.00000   0.00000
           D12          0.00000   0.00000   0.00000   0.00000   0.00000
           D13          0.00000   0.00000   0.00000   0.00000   0.00000
           D14          0.00000   0.00000   0.00000   0.00000   0.00000
           D15          0.00000   0.00000   0.00000   0.00000   0.00000
           D16          0.00000   0.00000   0.00000   0.00000   0.00000
           D17          0.00000   0.00000   0.00000   0.00000   0.00000
           D18          0.00000   0.00000   0.00000   0.00000   0.00000
           D19          0.00000   0.00000   0.00000   0.00000   0.00000
           D20          0.00000   0.00000   0.00000   0.00000   0.00000
           D21          0.00000   0.00000   0.00000   0.00000   0.00000
           D22          0.00000   0.00000   0.00000   0.00000   0.00000
           D23          0.00000   0.00000   0.00000   0.00000   0.00000
           D24          0.00000   0.00000   0.00000   0.00000   0.00000
           D25          0.00000   0.00000   0.00000   0.00000   0.00000
           D26          0.00000   0.00000   0.00000   0.00000   0.00000
                          A13       A14       A15       A16       A17
           A13          0.25000
           A14          0.00000   0.16000
           A15          0.00000   0.00000   0.16000
           A16          0.00000   0.00000   0.00000   0.16000
           A17          0.00000   0.00000   0.00000   0.00000   0.16000
           A18          0.00000   0.00000   0.00000   0.00000   0.00000
           A19          0.00000   0.00000   0.00000   0.00000   0.00000
           A20          0.00000   0.00000   0.00000   0.00000   0.00000
           A21          0.00000   0.00000   0.00000   0.00000   0.00000
           A22          0.00000   0.00000   0.00000   0.00000   0.00000
           D1           0.00000   0.00000   0.00000   0.00000   0.00000
           D2           0.00000   0.00000   0.00000   0.00000   0.00000
           D3           0.00000   0.00000   0.00000   0.00000   0.00000
           D4           0.00000   0.00000   0.00000   0.00000   0.00000
           D5           0.00000   0.00000   0.00000   0.00000   0.00000
           D6           0.00000   0.00000   0.00000   0.00000   0.00000
           D7           0.00000   0.00000   0.00000   0.00000   0.00000
           D8           0.00000   0.00000   0.00000   0.00000   0.00000
           D9           0.00000   0.00000   0.00000   0.00000   0.00000
           D10          0.00000   0.00000   0.00000   0.00000   0.00000
           D11          0.00000   0.00000   0.00000   0.00000   0.00000
           D12          0.00000   0.00000   0.00000   0.00000   0.00000
           D13          0.00000   0.00000   0.00000   0.00000   0.00000
           D14          0.00000   0.00000   0.00000   0.00000   0.00000
           D15          0.00000   0.00000   0.00000   0.00000   0.00000
           D16          0.00000   0.00000   0.00000   0.00000   0.00000
           D17          0.00000   0.00000   0.00000   0.00000   0.00000
           D18          0.00000   0.00000   0.00000   0.00000   0.00000
           D19          0.00000   0.00000   0.00000   0.00000   0.00000
           D20          0.00000   0.00000   0.00000   0.00000   0.00000
           D21          0.00000   0.00000   0.00000   0.00000   0.00000
           D22          0.00000   0.00000   0.00000   0.00000   0.00000
           D23          0.00000   0.00000   0.00000   0.00000   0.00000
           D24          0.00000   0.00000   0.00000   0.00000   0.00000
           D25          0.00000   0.00000   0.00000   0.00000   0.00000
           D26          0.00000   0.00000   0.00000   0.00000   0.00000
                          A18       A19       A20       A21       A22
           A18          0.16000
           A19          0.00000   0.16000
           A20          0.00000   0.00000   0.16000
           A21          0.00000   0.00000   0.00000   0.16000
           A22          0.00000   0.00000   0.00000   0.00000   0.25000
           D1           0.00000   0.00000   0.00000   0.00000   0.00000
           D2           0.00000   0.00000   0.00000   0.00000   0.00000
           D3           0.00000   0.00000   0.00000   0.00000   0.00000
           D4           0.00000   0.00000   0.00000   0.00000   0.00000
           D5           0.00000   0.00000   0.00000   0.00000   0.00000
           D6           0.00000   0.00000   0.00000   0.00000   0.00000
           D7           0.00000   0.00000   0.00000   0.00000   0.00000
           D8           0.00000   0.00000   0.00000   0.00000   0.00000
           D9           0.00000   0.00000   0.00000   0.00000   0.00000
           D10          0.00000   0.00000   0.00000   0.00000   0.00000
           D11          0.00000   0.00000   0.00000   0.00000   0.00000
           D12          0.00000   0.00000   0.00000   0.00000   0.00000
           D13          0.00000   0.00000   0.00000   0.00000   0.00000
           D14          0.00000   0.00000   0.00000   0.00000   0.00000
           D15          0.00000   0.00000   0.00000   0.00000   0.00000
           D16          0.00000   0.00000   0.00000   0.00000   0.00000
           D17          0.00000   0.00000   0.00000   0.00000   0.00000
           D18          0.00000   0.00000   0.00000   0.00000   0.00000
           D19          0.00000   0.00000   0.00000   0.00000   0.00000
           D20          0.00000   0.00000   0.00000   0.00000   0.00000
           D21          0.00000   0.00000   0.00000   0.00000   0.00000
           D22          0.00000   0.00000   0.00000   0.00000   0.00000
           D23          0.00000   0.00000   0.00000   0.00000   0.00000
           D24          0.00000   0.00000   0.00000   0.00000   0.00000
           D25          0.00000   0.00000   0.00000   0.00000   0.00000
           D26          0.00000   0.00000   0.00000   0.00000   0.00000
                          D1        D2        D3        D4        D5
           D1           0.01906
           D2           0.00000   0.01906
           D3           0.00000   0.00000   0.01906
           D4           0.00000   0.00000   0.00000   0.01906
           D5           0.00000   0.00000   0.00000   0.00000   0.01906
           D6           0.00000   0.00000   0.00000   0.00000   0.00000
           D7           0.00000   0.00000   0.00000   0.00000   0.00000
           D8           0.00000   0.00000   0.00000   0.00000   0.00000
           D9           0.00000   0.00000   0.00000   0.00000   0.00000
           D10          0.00000   0.00000   0.00000   0.00000   0.00000
           D11          0.00000   0.00000   0.00000   0.00000   0.00000
           D12          0.00000   0.00000   0.00000   0.00000   0.00000
           D13          0.00000   0.00000   0.00000   0.00000   0.00000
           D14          0.00000   0.00000   0.00000   0.00000   0.00000
           D15          0.00000   0.00000   0.00000   0.00000   0.00000
           D16          0.00000   0.00000   0.00000   0.00000   0.00000
           D17          0.00000   0.00000   0.00000   0.00000   0.00000
           D18          0.00000   0.00000   0.00000   0.00000   0.00000
           D19          0.00000   0.00000   0.00000   0.00000   0.00000
           D20          0.00000   0.00000   0.00000   0.00000   0.00000
           D21          0.00000   0.00000   0.00000   0.00000   0.00000
           D22          0.00000   0.00000   0.00000   0.00000   0.00000
           D23          0.00000   0.00000   0.00000   0.00000   0.00000
           D24          0.00000   0.00000   0.00000   0.00000   0.00000
           D25          0.00000   0.00000   0.00000   0.00000   0.00000
           D26          0.00000   0.00000   0.00000   0.00000   0.00000
                          D6        D7        D8        D9        D10
           D6           0.01906
           D7           0.00000   0.00230
           D8           0.00000   0.00000   0.00230
           D9           0.00000   0.00000   0.00000   0.00230
           D10          0.00000   0.00000   0.00000   0.00000   0.02178
           D11          0.00000   0.00000   0.00000   0.00000   0.00000
           D12          0.00000   0.00000   0.00000   0.00000   0.00000
           D13          0.00000   0.00000   0.00000   0.00000   0.00000
           D14          0.00000   0.00000   0.00000   0.00000   0.00000
           D15          0.00000   0.00000   0.00000   0.00000   0.00000
           D16          0.00000   0.00000   0.00000   0.00000   0.00000
           D17          0.00000   0.00000   0.00000   0.00000   0.00000
           D18          0.00000   0.00000   0.00000   0.00000   0.00000
           D19          0.00000   0.00000   0.00000   0.00000   0.00000
           D20          0.00000   0.00000   0.00000   0.00000   0.00000
           D21          0.00000   0.00000   0.00000   0.00000   0.00000
           D22          0.00000   0.00000   0.00000   0.00000   0.00000
           D23          0.00000   0.00000   0.00000   0.00000   0.00000
           D24          0.00000   0.00000   0.00000   0.00000   0.00000
           D25          0.00000   0.00000   0.00000   0.00000   0.00000
           D26          0.00000   0.00000   0.00000   0.00000   0.00000
                          D11       D12       D13       D14       D15
           D11          0.02178
           D12          0.00000   0.02178
           D13          0.00000   0.00000   0.02178
           D14          0.00000   0.00000   0.00000   0.02178
           D15          0.00000   0.00000   0.00000   0.00000   0.02178
           D16          0.00000   0.00000   0.00000   0.00000   0.00000
           D17          0.00000   0.00000   0.00000   0.00000   0.00000
           D18          0.00000   0.00000   0.00000   0.00000   0.00000
           D19          0.00000   0.00000   0.00000   0.00000   0.00000
           D20          0.00000   0.00000   0.00000   0.00000   0.00000
           D21          0.00000   0.00000   0.00000   0.00000   0.00000
           D22          0.00000   0.00000   0.00000   0.00000   0.00000
           D23          0.00000   0.00000   0.00000   0.00000   0.00000
           D24          0.00000   0.00000   0.00000   0.00000   0.00000
           D25          0.00000   0.00000   0.00000   0.00000   0.00000
           D26          0.00000   0.00000   0.00000   0.00000   0.00000
                          D16       D17       D18       D19       D20
           D16          0.02178
           D17          0.00000   0.02178
           D18          0.00000   0.00000   0.01906
           D19          0.00000   0.00000   0.00000   0.01906
           D20          0.00000   0.00000   0.00000   0.00000   0.01906
           D21          0.00000   0.00000   0.00000   0.00000   0.00000
           D22          0.00000   0.00000   0.00000   0.00000   0.00000
           D23          0.00000   0.00000   0.00000   0.00000   0.00000
           D24          0.00000   0.00000   0.00000   0.00000   0.00000
           D25          0.00000   0.00000   0.00000   0.00000   0.00000
           D26          0.00000   0.00000   0.00000   0.00000   0.00000
                          D21       D22       D23       D24       D25
           D21          0.01906
           D22          0.00000   0.01906
           D23          0.00000   0.00000   0.01906
           D24          0.00000   0.00000   0.00000   0.00230
           D25          0.00000   0.00000   0.00000   0.00000   0.00230
           D26          0.00000   0.00000   0.00000   0.00000   0.00000
                          D26
           D26          0.00230
 ITU=  0
 Eigenvectors of the second derivative matrix:
                           1         2         3         4         5
     Eigenvalues --     0.00928   0.01888   0.02060   0.02145   0.02263
   1         R1         0.00081   0.00921   0.00002  -0.00740   0.00029
   2         R2         0.00000  -0.00000  -0.00000   0.00000   0.00000
   3         R3        -0.03729   0.00576  -0.00098  -0.00437  -0.01431
   4         R4         0.00000  -0.00000   0.00000  -0.00000  -0.00000
   5         R5         0.00982   0.00410   0.00024  -0.00327   0.00347
   6         R6        -0.00000  -0.00000   0.00000   0.00000  -0.00000
   7         R7         0.00982  -0.00410   0.00024   0.00327   0.00347
   8         R8         0.00000   0.00000  -0.00000   0.00000   0.00000
   9         R9         0.00081  -0.00921   0.00002   0.00740   0.00029
  10         R10        0.00000  -0.00000   0.00000  -0.00000   0.00000
  11         R11       -0.00000  -0.00000   0.00000  -0.00000  -0.00000
  12         R12        0.00000   0.00000  -0.00000   0.00000  -0.00000
  13         R13       -0.03729  -0.00576  -0.00097   0.00438  -0.01431
  14         A1         0.03575  -0.02483   0.00058   0.01797  -0.00887
  15         A2        -0.10205   0.03746  -0.00429  -0.03497   0.02422
  16         A3        -0.00457   0.01424   0.00016  -0.00736   0.00046
  17         A4         0.01619  -0.01142  -0.00363   0.00747  -0.00601
  18         A5         0.01407  -0.00357   0.00139   0.00496  -0.00417
  19         A6         0.02020  -0.00067   0.00541   0.00254   0.00037
  20         A7        -0.02257   0.02677   0.01048  -0.00179   0.01181
  21         A8         0.00989  -0.02140   0.02025   0.04804  -0.04537
  22         A9         0.01275  -0.02090   0.02251   0.05017  -0.04714
  23         A10        0.00808   0.00000   0.00879  -0.00001   0.03962
  24         A11        0.00866  -0.00109   0.01438  -0.00009  -0.01697
  25         A12        0.00866   0.00110   0.01438   0.00009  -0.01697
  26         A13       -0.02257  -0.02677   0.01049   0.00178   0.01182
  27         A14        0.01275   0.02091   0.02249  -0.05016  -0.04716
  28         A15        0.00989   0.02140   0.02023  -0.04803  -0.04538
  29         A16        0.03575   0.02483   0.00057  -0.01796  -0.00888
  30         A17       -0.00457  -0.01424   0.00016   0.00736   0.00046
  31         A18       -0.10204  -0.03746  -0.00427   0.03496   0.02423
  32         A19        0.01407   0.00357   0.00138  -0.00496  -0.00417
  33         A20        0.01619   0.01142  -0.00364  -0.00747  -0.00601
  34         A21        0.02020   0.00067   0.00541  -0.00255   0.00037
  35         A22       -0.05386   0.00000   0.00419  -0.00000   0.00317
  36         D1        -0.02302   0.26962   0.07554  -0.15967   0.19761
  37         D2        -0.02049   0.20016   0.30491   0.25741  -0.15234
  38         D3        -0.05820   0.26896   0.06812  -0.16604   0.20302
  39         D4        -0.05568   0.19950   0.29749   0.25105  -0.14693
  40         D5        -0.09293   0.29148   0.07198  -0.18391   0.21713
  41         D6        -0.09041   0.22202   0.30136   0.23318  -0.13282
  42         D7         0.39099  -0.13109   0.01344   0.07590  -0.02337
  43         D8         0.36416  -0.13963   0.00857   0.07524  -0.01878
  44         D9         0.39660  -0.14676   0.01270   0.08427  -0.02478
  45         D10       -0.08959  -0.17026  -0.13965   0.10707  -0.39336
  46         D11       -0.00683  -0.17000  -0.01699   0.10706  -0.37878
  47         D12       -0.09180  -0.10196  -0.36392  -0.30117  -0.05076
  48         D13       -0.00904  -0.10170  -0.24126  -0.30118  -0.03618
  49         D14        0.08960  -0.17018   0.13973   0.10688   0.39340
  50         D15        0.09180  -0.10184   0.36386  -0.30129   0.05065
  51         D16        0.00684  -0.17000   0.01707   0.10692   0.37883
  52         D17        0.00904  -0.10166   0.24120  -0.30125   0.03608
  53         D18        0.02301   0.26958  -0.07566  -0.15958  -0.19768
  54         D19        0.09292   0.29144  -0.07212  -0.18381  -0.21721
  55         D20        0.05820   0.26892  -0.06825  -0.16594  -0.20309
  56         D21        0.02049   0.20007  -0.30490   0.25745   0.15242
  57         D22        0.09040   0.22193  -0.30135   0.23322   0.13289
  58         D23        0.05567   0.19942  -0.29748   0.25108   0.14701
  59         D24       -0.39099  -0.13110  -0.01338   0.07589   0.02340
  60         D25       -0.36416  -0.13964  -0.00851   0.07523   0.01882
  61         D26       -0.39660  -0.14678  -0.01263   0.08426   0.02481
                           6         7         8         9        10
     Eigenvalues --     0.02347   0.05397   0.05595   0.06969   0.07365
   1         R1        -0.00002   0.01658  -0.00011   0.00085   0.01372
   2         R2        -0.00000  -0.00000  -0.00000   0.00000  -0.00000
   3         R3         0.00121   0.01165   0.00695  -0.06379  -0.01217
   4         R4        -0.00000   0.00000   0.00000   0.00000  -0.00000
   5         R5        -0.00029   0.00721  -0.00129   0.01018   0.00465
   6         R6        -0.00000   0.00000   0.00000   0.00000   0.00000
   7         R7        -0.00029  -0.00721  -0.00129   0.01018  -0.00465
   8         R8        -0.00000  -0.00000  -0.00000  -0.00000   0.00000
   9         R9        -0.00002  -0.01658  -0.00011   0.00085  -0.01372
  10         R10        0.00000   0.00000  -0.00000  -0.00000  -0.00000
  11         R11        0.00000   0.00000   0.00000   0.00000   0.00000
  12         R12        0.00000  -0.00000  -0.00000   0.00000   0.00000
  13         R13        0.00121  -0.01165   0.00695  -0.06380   0.01217
  14         A1        -0.00307  -0.11182  -0.06525  -0.06643   0.14387
  15         A2         0.00547  -0.10607  -0.10989  -0.00108   0.00370
  16         A3         0.00040   0.20065   0.11958  -0.11189   0.04058
  17         A4        -0.00612  -0.19160  -0.24857   0.03676   0.03681
  18         A5        -0.00023   0.16120   0.16411  -0.09862   0.03807
  19         A6         0.00558  -0.00174   0.08873   0.38136  -0.40705
  20         A7        -0.00382   0.06935   0.00152  -0.03868   0.04013
  21         A8        -0.01048  -0.03148  -0.01718   0.00204  -0.00814
  22         A9        -0.00951  -0.02279   0.00165   0.02687  -0.03853
  23         A10        0.04451  -0.00000   0.01092   0.00660   0.00000
  24         A11        0.07074  -0.00994  -0.02796  -0.02177   0.02376
  25         A12        0.07074   0.00994  -0.02796  -0.02177  -0.02376
  26         A13       -0.00381  -0.06936   0.00151  -0.03868  -0.04013
  27         A14       -0.00951   0.02279   0.00165   0.02687   0.03853
  28         A15       -0.01048   0.03148  -0.01717   0.00203   0.00814
  29         A16       -0.00308   0.11183  -0.06523  -0.06643  -0.14387
  30         A17        0.00041  -0.20067   0.11954  -0.11189  -0.04059
  31         A18        0.00548   0.10609  -0.10987  -0.00108  -0.00370
  32         A19       -0.00023  -0.16123   0.16408  -0.09860  -0.03806
  33         A20       -0.00612   0.19165  -0.24854   0.03674  -0.03681
  34         A21        0.00558   0.00174   0.08872   0.38135   0.40706
  35         A22        0.01004  -0.00001   0.09801   0.01690   0.00000
  36         D1         0.12408   0.23192   0.38466  -0.05862   0.04583
  37         D2         0.02162   0.29160   0.32537  -0.09555   0.01172
  38         D3         0.11872  -0.15139  -0.04628  -0.05138   0.17715
  39         D4         0.01626  -0.09171  -0.10556  -0.08830   0.14305
  40         D5         0.12831  -0.18141   0.01330   0.37094  -0.28461
  41         D6         0.02584  -0.12173  -0.04598   0.33402  -0.31871
  42         D7         0.00254   0.04101   0.16725   0.05778  -0.09622
  43         D8        -0.00062  -0.30288  -0.15314  -0.00734   0.11473
  44         D9         0.00116  -0.15749   0.03832   0.11833  -0.08130
  45         D10       -0.22431   0.10954   0.11234   0.09936  -0.11035
  46         D11        0.38310   0.11150  -0.03689  -0.02290  -0.11503
  47         D12       -0.12383   0.05284   0.17319   0.13891  -0.08114
  48         D13        0.48358   0.05481   0.02397   0.01666  -0.08582
  49         D14        0.22433   0.10955  -0.11232  -0.09936  -0.11035
  50         D15        0.12383   0.05286  -0.17318  -0.13891  -0.08115
  51         D16       -0.38308   0.11150   0.03691   0.02290  -0.11503
  52         D17       -0.48358   0.05481  -0.02396  -0.01666  -0.08582
  53         D18       -0.12411   0.23200  -0.38462   0.05861   0.04582
  54         D19       -0.12833  -0.18142  -0.01333  -0.37093  -0.28462
  55         D20       -0.11875  -0.15140   0.04625   0.05138   0.17715
  56         D21       -0.02163   0.29167  -0.32533   0.09553   0.01172
  57         D22       -0.02585  -0.12175   0.04597  -0.33401  -0.31872
  58         D23       -0.01627  -0.09172   0.10554   0.08830   0.14305
  59         D24       -0.00253   0.04104  -0.16724  -0.05778  -0.09622
  60         D25        0.00063  -0.30291   0.15308   0.00735   0.11473
  61         D26       -0.00115  -0.15749  -0.03835  -0.11833  -0.08131
                          11        12        13        14        15
     Eigenvalues --     0.09319   0.11363   0.11470   0.11716   0.13485
   1         R1        -0.01137  -0.00042   0.01090  -0.00007   0.00167
   2         R2         0.00000   0.00000   0.00000   0.00000  -0.00000
   3         R3         0.07862   0.08023  -0.03921   0.01677  -0.67492
   4         R4        -0.00000  -0.00000  -0.00000  -0.00000  -0.00000
   5         R5        -0.00131  -0.00497   0.00335  -0.00089  -0.00070
   6         R6        -0.00000  -0.00000  -0.00000  -0.00000   0.00000
   7         R7         0.00131  -0.00498  -0.00334  -0.00089   0.00071
   8         R8         0.00000   0.00000   0.00000   0.00000   0.00000
   9         R9         0.01137  -0.00042  -0.01090  -0.00008  -0.00167
  10         R10       -0.00000   0.00000   0.00000   0.00000   0.00000
  11         R11       -0.00000   0.00000  -0.00000   0.00000   0.00000
  12         R12        0.00000   0.00000   0.00000   0.00000   0.00000
  13         R13       -0.07863   0.08028   0.03917   0.01679   0.67548
  14         A1         0.23348  -0.31794  -0.25723  -0.31285   0.01913
  15         A2         0.04691   0.00046  -0.02450  -0.02102   0.07062
  16         A3        -0.29512  -0.20664  -0.26685   0.43729  -0.01470
  17         A4        -0.30951   0.19065   0.22229   0.13472  -0.10813
  18         A5         0.16078   0.39578   0.39757  -0.13453   0.00228
  19         A6         0.02583   0.00091  -0.03172   0.03901   0.02073
  20         A7        -0.05649   0.03067   0.04306   0.00584  -0.00757
  21         A8         0.00501   0.01235  -0.00075   0.03827   0.05209
  22         A9         0.03749  -0.03711  -0.04247  -0.03627  -0.04715
  23         A10       -0.00000  -0.01667   0.00001  -0.04156   0.00007
  24         A11       -0.00976   0.01712   0.03045   0.03193   0.08361
  25         A12        0.00976   0.01710  -0.03047   0.03192  -0.08368
[...]
 ! D13   D(10,2,3,9)            15.2559         -DE/DX =    0.0                 !
 ! D14   D(2,3,4,5)            -19.0164         -DE/DX =    0.0                 !
 ! D15   D(2,3,4,8)            151.3989         -DE/DX =    0.0                 !
 ! D16   D(9,3,4,5)            174.3297         -DE/DX =    0.0                 !
 ! D17   D(9,3,4,8)            -15.255          -DE/DX =    0.0                 !
 ! D18   D(3,4,5,6)            154.5952         -DE/DX =    0.0                 !
 ! D19   D(3,4,5,7)            -62.3705         -DE/DX =    0.0                 !
 ! D20   D(3,4,5,12)            31.3744         -DE/DX =    0.0                 !
 ! D21   D(8,4,5,6)            -15.747          -DE/DX =    0.0                 !
 ! D22   D(8,4,5,7)            127.2874         -DE/DX =    0.0                 !
 ! D23   D(8,4,5,12)          -138.9677         -DE/DX =    0.0                 !
 ! D24   D(4,5,12,1)           -57.0555         -DE/DX =    0.0                 !
 ! D25   D(6,5,12,1)           175.3269         -DE/DX =    0.0                 !
 ! D26   D(7,5,12,1)            63.5683         -DE/DX =    0.0                 !
 --------------------------------------------------------------------------------
 GradGradGradGradGradGradGradGradGradGradGradGradGradGradGradGradGradGrad

 Leave Link  103 at Wed Oct 21 14:46:53 2020, MaxMem=  2684354560 cpu:               3.9 elap:               0.6
 (Enter /udrive/faculty/rpeverati/g16/g16/l9999.exe)

 ----------------------------------------------------------------------

 Electric dipole moment (input orientation):
 (Debye = 10**-18 statcoulomb cm , SI units = C m)
                  (au)            (Debye)         (10**-30 SI)
   Tot        0.214631D+00      0.545538D+00      0.181972D+01
   x         -0.296325D-04     -0.753182D-04     -0.251235D-03
   y         -0.156552D+00     -0.397914D+00     -0.132730D+01
   z         -0.146827D+00     -0.373197D+00     -0.124485D+01

 Dipole polarizability, Alpha (input orientation).
 (esu units = cm**3 , SI units = C**2 m**2 J**-1)
 Alpha(0;0):
               (au)            (10**-24 esu)      (10**-40 SI)
   iso        0.466694D+02      0.691570D+01      0.769475D+01
   aniso      0.465436D+02      0.689704D+01      0.767400D+01
   xx         0.669224D+02      0.991688D+01      0.110340D+02
   yx        -0.102585D-02     -0.152015D-03     -0.169139D-03
   yy         0.568996D+02      0.843165D+01      0.938147D+01
   zx        -0.106342D-01     -0.157583D-02     -0.175334D-02
   zy         0.269748D+00      0.399725D-01      0.444754D-01
   zz         0.161864D+02      0.239857D+01      0.266877D+01

 First dipole hyperpolarizability, Beta (input orientation).
 ||, _|_  parallel and perpendicular components, (z) with respect to z axis,
 vector components x,y,z.  Values do not include the 1/n! factor of 1/2.
 (esu units = statvolt**-1 cm**4 , SI units = C**3 m**3 J**-2)
 Beta(0;0,0):
               (au)            (10**-30 esu)      (10**-50 SI)
   || (z)    -0.632255D+01     -0.546219D-01     -0.202724D-01
   _|_(z)    -0.210752D+01     -0.182073D-01     -0.675746D-02
   x         -0.831229D-01     -0.718117D-03     -0.266522D-03
   y          0.187080D+03      0.161622D+01      0.599845D+00
   z         -0.316128D+02     -0.273110D+00     -0.101362D+00
   ||         0.379464D+02      0.327827D+00      0.121670D+00
   xxx       -0.241822D-01     -0.208915D-03     -0.775368D-04
   xxy       -0.472682D+02     -0.408360D+00     -0.151559D+00
   yxy       -0.134496D-01     -0.116194D-03     -0.431244D-04
   yyy        0.110869D+03      0.957824D+00      0.355487D+00
   xxz       -0.233043D+02     -0.201331D+00     -0.747221D-01
   yxz        0.905365D-02      0.782165D-04      0.290293D-04
   yyz        0.799439D+01      0.690653D-01      0.256329D-01
   zxz        0.992418D-02      0.857372D-04      0.318205D-04
   zyz       -0.124122D+01     -0.107231D-01     -0.397978D-02
   zzz        0.477234D+01      0.412293D-01      0.153019D-01

 ----------------------------------------------------------------------

 Dipole orientation:
     6         -2.46565029          1.12677113          1.23183319
     6         -2.28160733         -0.74103617         -0.64373665
     6         -0.00019724         -1.37559480         -1.79278765
     6          2.28136588         -0.74141465         -0.64385711
     6          2.46600265          1.12638713          1.23184476
     1          4.00117922          1.02553391          2.57751697
     1          1.98623583          3.07536397          0.81059934
     1          3.91946954         -1.94348692         -1.01426525
     1         -0.00043646         -2.71121754         -3.35529748
     1         -3.91984047         -1.94283299         -1.01407414
     1         -4.00040126          1.02631973          2.57796952
     1          0.00023113          0.89605038          2.43640016
     1         -1.98606002          3.07573968          0.81012186

 Electric dipole moment (dipole orientation):
 (Debye = 10**-18 statcoulomb cm , SI units = C m)
                  (au)            (Debye)         (10**-30 SI)
   Tot        0.214631D+00      0.545538D+00      0.181972D+01
   x          0.000000D+00      0.000000D+00      0.000000D+00
   y          0.000000D+00      0.000000D+00      0.000000D+00
   z          0.214631D+00      0.545538D+00      0.181972D+01

 Dipole polarizability, Alpha (dipole orientation).
 (esu units = cm**3 , SI units = C**2 m**2 J**-1)
 Alpha(0;0):
               (au)            (10**-24 esu)      (10**-40 SI)
   iso        0.466694D+02      0.691570D+01      0.769475D+01
   aniso      0.465436D+02      0.689704D+01      0.767400D+01
   xx         0.669224D+02      0.991688D+01      0.110340D+02
   yx        -0.234185D-02     -0.347026D-03     -0.386118D-03
   yy         0.349701D+02      0.518203D+01      0.576579D+01
   zx         0.283219D-02      0.419687D-03      0.466965D-03
   zy         0.202975D+02      0.300779D+01      0.334661D+01
   zz         0.381158D+02      0.564819D+01      0.628445D+01

 First dipole hyperpolarizability, Beta (dipole orientation).
 ||, _|_  parallel and perpendicular components, (z) with respect to z axis,
 vector components x,y,z.  Values do not include the 1/n! factor of 1/2.
 (esu units = statvolt**-1 cm**4 , SI units = C**3 m**3 J**-2)
 Beta(0;0,0):
               (au)            (10**-30 esu)      (10**-50 SI)
   || (z)    -0.229659D+02     -0.198408D+00     -0.736370D-01
   _|_(z)    -0.765531D+01     -0.661359D-01     -0.245457D-01
   x         -0.899451D-01     -0.777055D-03     -0.288396D-03
   y         -0.151038D+03     -0.130485D+01     -0.484281D+00
   z         -0.114830D+03     -0.992038D+00     -0.368185D+00
   ||         0.379464D+02      0.327827D+00      0.121670D+00
   xxx       -0.605047D-02     -0.522713D-04     -0.194000D-04
   xxy        0.153375D+02      0.132504D+00      0.491777D-01
   yxy       -0.118391D-01     -0.102281D-03     -0.379604D-04
   yyy       -0.241000D+02     -0.208205D+00     -0.772733D-01
   xxz        0.504196D+02      0.435586D+00      0.161663D+00
   yxz       -0.148927D-01     -0.128661D-03     -0.477514D-04
   yyz       -0.366872D+02     -0.316949D+00     -0.117632D+00
   zxz       -0.120921D-01     -0.104466D-03     -0.387717D-04
   zyz       -0.415834D+02     -0.359248D+00     -0.133331D+00
   zzz       -0.520089D+02     -0.449316D+00     -0.166759D+00

 ----------------------------------------------------------------------

 Test job not archived.
 1\1\GINC-NODE56\Freq\RPM7\ZDO\C5H8\RPEVERATI\21-Oct-2020\0\\#P Freq PM
 7 5D 7F Integral=UltraFineGrid SCF=(NoSymm,XQC,MaxCyc=120) IOp(1/33=1)
  Geom=Check Guess=Read\\TS search on BH76.\\0,1\C,-1.3048202695,-0.883
 2822879,-0.0108372281\C,-1.207351008,0.5168007008,-0.0528233502\C,-0.0
 000169252,1.189953271,0.118044352\C,1.2072704008,0.5168398274,-0.05325
 91976\C,1.3048980348,-0.8833037954,-0.0113499354\H,2.1171769758,-1.366
 2466199,-0.5375290965\H,1.0511088154,-1.4262346806,0.8934454804\H,2.07
 41065392,1.0949141669,-0.3832661782\H,-0.0000716203,2.276553664,0.1681
 55514\H,-2.0742776104,1.0948517343,-0.3825102211\H,-2.1170770241,-1.36
 64525756,-0.5368050194\H,-0.0000273381,-1.2647780041,-0.536129998\H,-1
 .0509395538,-1.4260606947,0.8940535613\\Version=ES64L-G16RevA.03\State
 =1-A\HF=0.0980986\RMSD=1.266e-09\RMSF=1.414e-05\ZeroPoint=0.1035234\Th
 ermal=0.1083274\Dipole=-0.0000296,-0.1565516,-0.146827\DipoleDeriv=-0.
 3630747,-0.1203454,0.0322895,-0.4921315,-0.7496345,0.0187915,-0.018770
 1,-0.0564445,-0.6197675,0.2732278,0.2012274,-0.0278805,0.7134068,0.135
 7474,0.0076054,-0.0052249,0.0096653,0.0342231,-1.0053139,-0.0000066,0.
 0001365,-0.0000251,-0.3332086,-0.0100048,0.000079,0.0183728,-0.3944017
 ,0.2733036,-0.2012253,0.027781,-0.7133805,0.1357166,0.0079457,0.005114
 3,0.0097512,0.034222,-0.363096,0.120373,-0.0324108,0.4921511,-0.74958,
 0.018557,0.0187357,-0.0565356,-0.6197635,0.2429875,-0.0444283,0.003456
 1,-0.0665942,0.1827963,0.0161794,-0.0324649,0.0777205,0.1829559,0.0564
 834,0.0574478,0.0140033,-0.0611675,0.2104049,-0.0148445,0.0389566,-0.0
 597142,0.2271895,0.2065099,0.1016811,-0.0092701,0.0941299,0.1448279,-0
 .0209978,-0.099934,-0.0145057,0.1468238,0.0911688,-0.0000063,0.0000152
 ,-0.0000064,0.2795288,0.0131421,0.0000258,0.021043,0.1792514,0.2065527
 ,-0.1016883,0.0092489,-0.0941383,0.1448308,-0.020967,0.0999297,-0.0144
 401,0.1467832,0.2429686,0.0444407,-0.003491,0.0666088,0.1828196,0.0161
 609,0.0324252,0.077685,0.1829392,0.0818195,0.000011,0.00005,0.0000009,
 0.2052969,-0.0166893,0.0000475,0.0471526,0.2723395,0.0564925,-0.05748,
 -0.0139282,0.0611458,0.2104002,-0.0148663,-0.0389197,-0.0597046,0.2272
 022\Polar=66.9223918,-0.0010258,56.8995701,-0.0106342,0.2697479,16.186
 3613\HyperPolar=-0.0241822,-47.2681796,-0.0134496,110.8693058,-23.3043
 231,0.0090537,7.9943911,0.0099242,-1.2412152,4.7723426\PG=C01 [X(C5H8)
 ]\NImag=1\\0.24906162,0.15189323,0.59757656,0.13707649,-0.08494171,0.3
 0137039,-0.10122582,0.02522317,0.01340037,0.62045754,-0.10563318,-0.34
 991189,0.04577702,0.08331034,0.69187831,-0.00677728,0.01856171,-0.0693
 8905,0.09032852,-0.01864065,0.19130789,0.05859210,-0.10858422,-0.03338
 407,-0.29243136,-0.05911453,-0.04283041,0.72959870,-0.02969107,-0.0412
 8786,-0.00645247,-0.17115367,-0.15549530,-0.02411422,0.00000647,0.6059
 5873,0.00169758,-0.00710893,0.00877114,-0.04439147,-0.01691591,-0.0764
 9792,-0.00010723,0.06103432,0.16659708,-0.03958929,0.03802630,0.016513
 85,-0.09731605,-0.04930202,-0.00188981,-0.29241720,0.17114614,0.044475
 64,0.62043476,0.05591779,-0.06917727,-0.02947748,0.04929300,0.08453987
 ,0.00112192,0.05911055,-0.15549830,-0.01694579,-0.08333880,0.69165510,
 0.00323567,-0.00362017,-0.00336745,0.00192883,0.00114335,0.00700884,0.
 04290559,-0.02417482,-0.07652955,-0.09047659,-0.01858661,0.19138499,-0
 .10138712,0.07049087,0.04183445,-0.03958677,-0.05592485,-0.00321858,0.
 05859736,0.02968674,-0.00170815,-0.10125208,0.10566211,0.00679421,0.24
 905493,-0.07047904,0.06845340,0.03389415,-0.03802336,-0.06917516,-0.00
 360301,0.10857292,-0.04127078,-0.00714082,-0.02519826,-0.34969879,0.01
 855521,-0.15188951,0.59734625,-0.04179407,0.03387124,0.02091562,-0.016
 49894,-0.02946043,-0.00335915,0.03337015,-0.00646068,0.00875944,-0.013
 39565,0.04572769,-0.06940141,-0.13707524,-0.08490776,0.30144734,-0.000
 23232,0.00059062,0.00037725,-0.00091529,-0.00143678,-0.00000917,0.0033
 3417,-0.00001178,0.00346495,-0.00342776,0.01873528,0.00381421,-0.14457
 750,0.05715116,0.06652536,0.16005740,0.00037655,-0.00081345,0.00019599
 ,-0.00003055,0.00094708,-0.00004948,-0.00027498,-0.00275821,0.00118964
 ,0.02856872,-0.03238143,-0.01539485,0.05764798,-0.07282026,-0.03934106
 ,-0.08021722,0.10011714,0.00153964,-0.00055589,0.00048558,-0.00042861,
 0.00134271,0.00025288,0.00072866,-0.00028663,0.00274002,0.00417835,-0.
 00390633,0.00265714,0.06496283,-0.04262697,-0.08246374,-0.08750394,0.0
 4862633,0.08783803,0.00764046,-0.01133579,-0.00866296,0.00709521,0.013
 40470,0.00071693,-0.01668347,0.00067481,-0.00115910,0.01422909,-0.0224
 1114,0.00013069,-0.02385475,0.00277231,0.03992951,-0.00500475,-0.00537
 327,0.01984541,0.04657133,0.00484845,-0.00500941,-0.00190193,0.0030278
 2,0.00538371,0.00083458,-0.00713616,-0.00009286,-0.00061355,-0.0029436
 4,-0.04126217,0.02687836,-0.01510935,-0.07092405,0.07640121,0.00286711
 ,0.00652026,-0.00346747,0.02105958,0.10344554,0.00605305,-0.00646044,-
 0.00568889,0.00402627,0.00601391,0.00030331,-0.00824626,0.00049622,-0.
 00068872,0.00549742,0.00250726,-0.00256472,0.05374324,0.09056289,-0.15
 809335,0.01219391,0.00475138,-0.01329471,-0.04669160,-0.09965110,0.185
 45136,0.00329905,-0.00237997,-0.00094798,0.00026680,0.00388396,0.00174
 998,-0.04823981,-0.00459679,0.01416675,-0.14375997,-0.07886565,0.04078
 862,0.00214544,-0.00602518,0.00459620,0.00038442,-0.00005657,-0.000937
 84,0.00018416,-0.00003414,0.00053799,0.19118146,0.00126112,-0.00061144
 ,-0.00035272,0.00146447,-0.00001019,0.00092164,0.00802425,0.00717474,-
 0.00276879,-0.07465233,-0.08567509,0.02526720,-0.02296029,-0.03597754,
 0.01302724,-0.00018422,-0.00079773,-0.00022579,-0.00014116,-0.00199400
 ,-0.00012184,0.08760827,0.11819273,0.00694158,-0.00876806,-0.00399249,
 0.00707298,0.00795050,0.00532790,-0.00190629,0.00467957,0.00467942,0.0
 4943740,0.01110249,-0.06281977,0.01323408,0.01988736,0.01232146,-0.001
 58163,-0.00082427,-0.00109712,0.00083042,-0.00016344,0.00055917,-0.059
 46542,-0.03538212,0.04439882,-0.00210841,-0.00112241,-0.00090006,-0.00
 952503,-0.03249207,-0.00204745,-0.03600649,0.00000782,-0.00000096,-0.0
 0952589,0.03249086,0.00205320,-0.00210798,0.00112191,0.00090234,0.0000
 4117,0.00036572,-0.00001760,0.00005452,-0.00008313,0.00006205,-0.00050
 785,0.00098084,0.00001721,0.06020258,-0.00121092,0.00068954,-0.0006530
 7,-0.01851652,-0.03084410,-0.00362838,0.00000918,-0.21487494,-0.006902
 54,0.01851347,-0.03083753,-0.00363444,0.00121049,0.00068996,-0.0006531
 6,0.00015617,-0.00023615,0.00008389,-0.00015401,-0.00007443,-0.0000635
 5,0.00072244,0.00060343,0.00001279,-0.00000536,0.27450223,-0.00076712,
 -0.00002671,0.00440607,-0.00067235,-0.00285343,0.00633743,-0.00000053,
 -0.00774496,-0.04409167,0.00067785,-0.00286383,0.00633515,0.00076867,-
 0.00002768,0.00440551,0.00002207,0.00020913,-0.00000520,0.00010852,-0.
 00062284,0.00009900,-0.00017580,-0.00066030,-0.00175114,-0.00000647,0.
 01524298,0.02583625,0.00213951,0.00603339,-0.00459393,-0.14380191,0.07
 888169,-0.04076645,-0.04825003,0.00459618,-0.01415000,0.00026464,-0.00
 388266,-0.00174832,0.00329822,0.00237785,0.00094558,0.00010212,0.00013
 844,0.00036022,-0.00065413,-0.00011245,-0.00063908,-0.00001472,0.00012
 480,0.00024784,-0.00050810,-0.00072275,0.00017513,0.19123952,0.0229688
 8,-0.03597818,0.01302178,0.07467068,-0.08567556,0.02524390,-0.00802701
 ,0.00717518,-0.00276710,-0.00146433,-0.00000997,0.00092212,-0.00126155
 ,-0.00061158,-0.00035214,0.00002550,-0.00010610,-0.00019671,0.00016486
 ,-0.00000953,0.00028201,-0.00012463,0.00020190,0.00038107,-0.00098155,
 0.00060333,-0.00066002,-0.08763198,0.11819253,-0.01323677,0.01989219,0
 .01233147,-0.04941568,0.01107147,-0.06278530,0.00192856,0.00467868,0.0
 0468461,-0.00707398,0.00795599,0.00533162,-0.00694768,-0.00877182,-0.0
 0399216,-0.00053977,-0.00002052,-0.00013723,0.00192351,0.00080025,0.00
 093989,-0.00024730,0.00038092,0.00126599,-0.00001784,0.00001307,-0.001
 75105,0.05942289,-0.03535595,0.04435242,-0.14457702,-0.05718812,-0.066
 50600,-0.00342133,-0.01873094,-0.00380911,0.00333187,0.00001179,-0.003
 46673,-0.00091460,0.00143574,0.00000958,-0.00023048,-0.00058875,-0.000
 37581,-0.00012992,0.00004983,0.00006805,-0.00033227,0.00011721,-0.0001
 2628,0.00010214,-0.00002557,0.00053958,0.00004123,-0.00015608,-0.00002
 216,0.00038486,0.00018411,0.00158183,0.16006219,-0.05768039,-0.0728514
 4,-0.03934633,-0.02857075,-0.03238892,-0.01538794,0.00027641,-0.002758
 25,0.00118983,0.00003017,0.00094788,-0.00004944,-0.00037748,-0.0008143
 4,0.00019579,-0.00004991,0.00006593,-0.00007762,0.00036184,0.00018354,
 0.00008590,-0.00013843,-0.00010611,-0.00002038,-0.00036564,-0.00023622
 ,0.00020927,0.00005679,-0.00079673,-0.00082422,0.08025426,0.10015445,-
 0.06494434,-0.04263452,-0.08242723,-0.00417368,-0.00390002,0.00266042,
 -0.00072782,-0.00028625,0.00274125,0.00042847,0.00134299,0.00025284,-0
 .00154063,-0.00055687,0.00048545,-0.00006814,-0.00007763,-0.00031060,0
 .00051016,0.00001151,0.00044826,-0.00036015,-0.00019663,-0.00013707,0.
 00001759,0.00008396,-0.00000518,0.00093734,-0.00022598,-0.00109825,0.0
 8747753,0.04863125,0.08779639,0.09226869,-0.10888450,-0.05426000,0.046
 17526,0.12074061,0.00869439,-0.10274611,-0.00000222,0.00001404,0.04617
 948,-0.12074369,-0.00871711,0.09225361,0.10887280,0.05421648,-0.009299
 88,-0.00083336,-0.00228559,-0.02434806,-0.00576539,-0.02464057,-0.0043
 8676,-0.00133543,-0.01344556,-0.00010405,0.00000003,0.00000041,-0.0043
 8323,0.00133535,0.01345274,-0.00930648,0.00083305,0.00229023,-0.097965
 47,0.01231660,-0.02018436,-0.00614449,0.01635320,-0.01798392,-0.008145
 47,0.00000149,-0.00617843,-0.00163230,-0.01635854,-0.01798714,-0.00814
 284,-0.01232554,-0.02018705,-0.00614618,0.00249114,0.00207967,0.001279
 11,0.00024045,0.00267724,0.00107226,-0.00010574,-0.00099104,0.00034408
 ,0.00000009,0.00008906,0.00042057,0.00010608,-0.00099112,0.00034329,-0
 .00249139,0.00207972,0.00127860,0.00001343,0.07490083,0.02472312,-0.00
 874344,-0.02531858,0.00432106,-0.00404584,0.00140063,0.00002468,-0.001
 86466,-0.00047014,-0.00434518,-0.00399159,0.00140567,-0.02479268,-0.00
 880499,-0.02533787,0.00317812,0.00064936,0.00288690,-0.00925428,0.0009
 7000,-0.00879618,-0.00034448,-0.00017108,0.00030562,0.,0.00016173,0.00
 008593,0.00034670,-0.00017172,0.00029888,-0.00317292,0.00064792,0.0028
 8595,0.00005039,0.02440204,0.05945859,-0.02387740,-0.00276569,-0.03995
 128,0.01423018,0.02241631,-0.00013987,-0.01668461,-0.00067444,0.001164
 71,0.00709632,-0.01340662,-0.00072029,0.00765115,0.01133827,0.00865799
 ,-0.00033190,-0.00036153,-0.00050934,-0.00489821,-0.00073631,-0.001770
 99,-0.00065431,-0.00016463,-0.00192282,0.00005447,0.00015385,-0.000108
 23,0.00018330,0.00014157,-0.00082989,-0.00501022,0.00537035,-0.0198468
 0,-0.02434150,-0.00024127,0.00926547,0.04658187,0.01511079,-0.07089403
 ,0.07638176,0.00295321,-0.04126459,0.02688451,0.00713559,-0.00009334,-
 0.00061585,-0.00302787,0.00538413,0.00083601,-0.00484840,-0.00500984,-
 0.00190124,-0.00011727,0.00018338,0.00001142,0.00073689,0.00115630,0.0
 0052493,0.00011265,-0.00000958,0.00080000,0.00008291,-0.00007430,-0.00
 062285,0.00003440,-0.00199408,-0.00016374,-0.00287189,0.00652062,-0.00
 347038,0.00576931,0.00267653,0.00096260,-0.02106994,0.10341894,-0.0537
 4761,0.09053485,-0.15809624,-0.00549904,0.00251764,-0.00256942,0.00824
 496,0.00049615,-0.00069144,-0.00402602,0.00601361,0.00030513,-0.006054
 45,-0.00645954,-0.00568679,0.00012628,0.00008578,0.00044797,0.00177209
 ,0.00052437,0.00132548,0.00063916,0.00028194,0.00093917,-0.00006200,-0
 .00006344,0.00009906,-0.00053764,-0.00012161,0.00055907,-0.01219707,0.
 00474575,-0.01329230,0.02463016,0.00107153,-0.00880626,0.04671205,-0.0
 9962720,0.18546646\\0.00002808,0.00003970,-0.00002220,-0.00002244,-0.0
 0003118,0.00000925,-0.00000239,0.00000615,0.00001056,-0.00000146,0.000
 01543,0.00000519,-0.00001101,-0.00003626,-0.00000692,-0.00000453,0.000
 00297,0.00000417,-0.00000668,-0.00000456,-0.00000781,0.00001616,0.0000
 0749,-0.00000921,-0.00000565,0.00000897,-0.00000708,0.00000073,0.00000
 070,0.00000100,0.00001998,-0.00000154,0.00000855,0.00000010,-0.0000048
 8,0.00000779,-0.00001088,-0.00000300,0.00000670\\\@


 THE MOLECULE ALSO HAS A BODY.  WHEN THIS BODY IS HIT, THE MOLECULE
 FEELS HURT ALL OVER -- A. KITAIGORODSKI
 Job cpu time:       0 days  0 hours  0 minutes 58.1 seconds.
 Elapsed time:       0 days  0 hours  0 minutes 11.5 seconds.
 File lengths (MBytes):  RWF=     10 Int=      0 D2E=      0 Chk=      2 Scr=      1
 Normal termination of Gaussian 16 at Wed Oct 21 14:46:53 2020.
