 Entering Gaussian System, Link 0=g16
 Input=MN_12_c2h5_lower_BH76_PM6_SE.in
 Output=MN_12_c2h5_lower_BH76_PM6_SE.log
 Initial command:
 /udrive/faculty/rpeverati/g16/g16/l1.exe "/udrive/scratch-directories/gaussian09/rpeverati/Gau-26697.inp" -scrdir="/udrive/scratch-directories/gaussian09/rpeverati/"
 Entering Link 1 = /udrive/faculty/rpeverati/g16/g16/l1.exe PID=     26714.
  
 Copyright (c) 1988,1990,1992,1993,1995,1998,2003,2009,2016,
            Gaussian, Inc.  All Rights Reserved.
  
 This is part of the Gaussian(R) 16 program.  It is based on
 the Gaussian(R) 09 system (copyright 2009, Gaussian, Inc.),
 the Gaussian(R) 03 system (copyright 2003, Gaussian, Inc.),
 the Gaussian(R) 98 system (copyright 1998, Gaussian, Inc.),
 the Gaussian(R) 94 system (copyright 1995, Gaussian, Inc.),
 the Gaussian 92(TM) system (copyright 1992, Gaussian, Inc.),
 the Gaussian 90(TM) system (copyright 1990, Gaussian, Inc.),
 the Gaussian 88(TM) system (copyright 1988, Gaussian, Inc.),
 the Gaussian 86(TM) system (copyright 1986, Carnegie Mellon
 University), and the Gaussian 82(TM) system (copyright 1983,
 Carnegie Mellon University). Gaussian is a federally registered
 trademark of Gaussian, Inc.
  
 This software contains proprietary and confidential information,
 including trade secrets, belonging to Gaussian, Inc.
  
 This software is provided under written license and may be
 used, copied, transmitted, or stored only in accord with that
 written license.
  
 The following legend is applicable only to US Government
 contracts under FAR:
  
                    RESTRICTED RIGHTS LEGEND
  
 Use, reproduction and disclosure by the US Government is
 subject to restrictions as set forth in subparagraphs (a)
 and (c) of the Commercial Computer Software - Restricted
 Rights clause in FAR 52.227-19.
  
 Gaussian, Inc.
 340 Quinnipiac St., Bldg. 40, Wallingford CT 06492
  
  
 ---------------------------------------------------------------
 Warning -- This program may not be used in any manner that
 competes with the business of Gaussian, Inc. or will provide
 assistance to any competitor of Gaussian, Inc.  The licensee
 of this program is prohibited from giving any competitor of
 Gaussian, Inc. access to this program.  By using this program,
 the user acknowledges that Gaussian, Inc. is engaged in the
 business of creating and licensing software in the field of
 computational chemistry and represents and warrants to the
 licensee that it is not a competitor of Gaussian, Inc. and that
 it will not use this program in any manner prohibited above.
 ---------------------------------------------------------------
  

 Cite this work as:
 Gaussian 16, Revision A.03,
 M. J. Frisch, G. W. Trucks, H. B. Schlegel, G. E. Scuseria, 
 M. A. Robb, J. R. Cheeseman, G. Scalmani, V. Barone, 
 G. A. Petersson, H. Nakatsuji, X. Li, M. Caricato, A. V. Marenich, 
 J. Bloino, B. G. Janesko, R. Gomperts, B. Mennucci, H. P. Hratchian, 
 J. V. Ortiz, A. F. Izmaylov, J. L. Sonnenberg, D. Williams-Young, 
 F. Ding, F. Lipparini, F. Egidi, J. Goings, B. Peng, A. Petrone, 
 T. Henderson, D. Ranasinghe, V. G. Zakrzewski, J. Gao, N. Rega, 
 G. Zheng, W. Liang, M. Hada, M. Ehara, K. Toyota, R. Fukuda, 
 J. Hasegawa, M. Ishida, T. Nakajima, Y. Honda, O. Kitao, H. Nakai, 
 T. Vreven, K. Throssell, J. A. Montgomery, Jr., J. E. Peralta, 
 F. Ogliaro, M. J. Bearpark, J. J. Heyd, E. N. Brothers, K. N. Kudin, 
 V. N. Staroverov, T. A. Keith, R. Kobayashi, J. Normand, 
 K. Raghavachari, A. P. Rendell, J. C. Burant, S. S. Iyengar, 
 J. Tomasi, M. Cossi, J. M. Millam, M. Klene, C. Adamo, R. Cammi, 
 J. W. Ochterski, R. L. Martin, K. Morokuma, O. Farkas, 
 J. B. Foresman, and D. J. Fox, Gaussian, Inc., Wallingford CT, 2016.
 
 ******************************************
 Gaussian 16:  ES64L-G16RevA.03 25-Dec-2016
                21-Oct-2020 
 ******************************************
 %NoSave
 %nproc=12
 Will use up to   12 processors via shared memory.
 %mem=20GB
 %chk=MN_12_c2h5_lower_BH76_PM6_SE
 ----------------------------------------------------------------------
 #P Opt(MaxCyc=150) PM6 5D 7F Integral=UltraFineGrid SCF=(NoSymm,XQC,Ma
 xCyc=120) IOp(1/33=1)
 ----------------------------------------------------------------------
 1/6=150,18=20,19=15,26=1,33=1,38=1/1,3;
 2/9=110,12=2,17=6,18=5,40=1/2;
 3/5=2,8=11,25=1,41=3900000,71=1,75=-5/1,2,3;
 4/9=2,35=1/1;
 5/5=2,7=120,8=3,13=1,35=1,38=5/2,8;
 6/7=2,8=2,9=2,10=2,28=1/1;
 7//1,2,3,16;
 1/6=150,18=20,19=15,26=1,33=1/3(2);
 2/9=110/2;
 99//99;
 2/9=110/2;
 3/5=2,8=11,25=1,41=3900000,71=1,75=-5,135=20/1,2,3;
 4/5=5,9=2,16=3,35=1/1;
 5/5=2,7=120,8=3,13=1,35=1,38=5/2,8;
 7//1,2,3,16;
 1/6=150,18=20,19=15,26=1,33=1/3(-5);
 2/9=110/2;
 6/7=2,8=2,9=2,10=2,19=2,28=1/1;
 99/9=1/99;
 Leave Link    1 at Wed Oct 21 14:24:48 2020, MaxMem=  2684354560 cpu:               7.3 elap:               0.8
 (Enter /udrive/faculty/rpeverati/g16/g16/l101.exe)
 ONIOM data not found on unit 2.
 ------------------
 TS search on BH76.
 ------------------
 TstMul:  ICh=     0
 TstMul:  Mul=     2
 TstMul:  ICh=     0
 TstMul:  Mul=     2
 Symbolic Z-matrix:
 Charge =  0 Multiplicity = 2
 C                    -0.01058  -0.69586   0. 
 C                    -0.01058   0.79518   0. 
 H                     1.00908  -1.09968   0. 
 H                    -0.50862  -1.09548   0.88342 
 H                    -0.50862  -1.09548  -0.88342 
 H                     0.06753   1.34734  -0.92432 
 H                     0.06753   1.34734   0.92432 
 
 RdStrC is calling ZToCFu for IStruc=1 NZ=     7.
 PrtBox:  NBox=     1 Levels=  1 BoxLen=    8.00 SMaxX=        4.62
          Shift=            0.961153            2.078100            1.746710
 Box      1 Number                   0 centers from      1 to      7:
 After GenITR:
 ITRead=  0  0  0  0  0  0  0
 MicOpt= -1 -1 -1 -1 -1 -1 -1
 ITRead=  0  0  0  0  0  0  0
 MicOpt= -1 -1 -1 -1 -1 -1 -1
 NAtoms=      7 NQM=        7 NQMF=       0 NMMI=      0 NMMIF=      0
                NMic=       0 NMicF=      0.
                    Isotopes and Nuclear Properties:
 (Nuclear quadrupole moments (NQMom) in fm**2, nuclear magnetic moments (NMagM)
  in nuclear magnetons)

  Atom         1           2           3           4           5           6           7
 IAtWgt=          12          12           1           1           1           1           1
 AtmWgt=  12.0000000  12.0000000   1.0078250   1.0078250   1.0078250   1.0078250   1.0078250
 NucSpn=           0           0           1           1           1           1           1
 AtZEff=   0.0000000   0.0000000   0.0000000   0.0000000   0.0000000   0.0000000   0.0000000
 NQMom=    0.0000000   0.0000000   0.0000000   0.0000000   0.0000000   0.0000000   0.0000000
 NMagM=    0.0000000   0.0000000   2.7928460   2.7928460   2.7928460   2.7928460   2.7928460
 AtZNuc=   6.0000000   6.0000000   1.0000000   1.0000000   1.0000000   1.0000000   1.0000000
 No MM parameters found.
 Leave Link  101 at Wed Oct 21 14:24:49 2020, MaxMem=  2684354560 cpu:               9.8 elap:               1.0
 (Enter /udrive/faculty/rpeverati/g16/g16/l103.exe)

 GradGradGradGradGradGradGradGradGradGradGradGradGradGradGradGradGradGrad
 Berny optimization.
 Optmz: redundant internal coordinate code flag= 1
 Initialization pass.
                           ----------------------------
                           !    Initial Parameters    !
                           ! (Angstroms and Degrees)  !
 --------------------------                            --------------------------
 ! Name  Definition              Value          Derivative Info.                !
 --------------------------------------------------------------------------------
 ! R1    R(1,2)                  1.491          estimate D2E/DX2                !
 ! R2    R(1,3)                  1.0967         estimate D2E/DX2                !
 ! R3    R(1,4)                  1.09           estimate D2E/DX2                !
 ! R4    R(1,5)                  1.09           estimate D2E/DX2                !
 ! R5    R(2,6)                  1.0795         estimate D2E/DX2                !
 ! R6    R(2,7)                  1.0795         estimate D2E/DX2                !
 ! A1    A(2,1,3)              111.6056         estimate D2E/DX2                !
 ! A2    A(2,1,4)              111.507          estimate D2E/DX2                !
 ! A3    A(2,1,5)              111.507          estimate D2E/DX2                !
 ! A4    A(3,1,4)              106.8467         estimate D2E/DX2                !
 ! A5    A(3,1,5)              106.8467         estimate D2E/DX2                !
 ! A6    A(4,1,5)              108.2798         estimate D2E/DX2                !
 ! A7    A(1,2,6)              120.7631         estimate D2E/DX2                !
 ! A8    A(1,2,7)              120.7631         estimate D2E/DX2                !
 ! A9    A(6,2,7)              117.7935         estimate D2E/DX2                !
 ! D1    D(3,1,2,6)             85.17           estimate D2E/DX2                !
 ! D2    D(3,1,2,7)            -85.17           estimate D2E/DX2                !
 ! D3    D(4,1,2,6)           -155.4169         estimate D2E/DX2                !
 ! D4    D(4,1,2,7)             34.243          estimate D2E/DX2                !
 ! D5    D(5,1,2,6)            -34.243          estimate D2E/DX2                !
 ! D6    D(5,1,2,7)            155.4169         estimate D2E/DX2                !
 --------------------------------------------------------------------------------
 Maximum allowed force set to 1.00D+20.
 Trust Radius=3.00D-01 FncErr=1.00D-07 GrdErr=1.00D-07 EigMax=2.50D+02 EigMin=1.00D-04
 Number of steps in this run=    100 maximum allowed number of steps=    100.
 GradGradGradGradGradGradGradGradGradGradGradGradGradGradGradGradGradGrad

 Leave Link  103 at Wed Oct 21 14:24:50 2020, MaxMem=  2684354560 cpu:               2.2 elap:               0.8
 (Enter /udrive/faculty/rpeverati/g16/g16/l202.exe)
                          Input orientation:                          
 ---------------------------------------------------------------------
 Center     Atomic      Atomic             Coordinates (Angstroms)
 Number     Number       Type             X           Y           Z
 ---------------------------------------------------------------------
      1          6           0       -0.010575   -0.695857    0.000000
      2          6           0       -0.010575    0.795184    0.000000
      3          1           0        1.009083   -1.099683    0.000000
      4          1           0       -0.508620   -1.095481    0.883419
      5          1           0       -0.508620   -1.095481   -0.883419
      6          1           0        0.067529    1.347343   -0.924319
      7          1           0        0.067529    1.347343    0.924319
 ---------------------------------------------------------------------
                    Distance matrix (angstroms):
                    1          2          3          4          5
     1  C    0.000000
     2  C    1.491041   0.000000
     3  H    1.096712   2.151795   0.000000
     4  H    1.090036   2.145482   1.756095   0.000000
     5  H    1.090036   2.145482   1.756095   1.766838   0.000000
     6  H    2.243911   1.079512   2.780077   3.093099   2.510182
     7  H    2.243911   1.079512   2.780077   2.510182   3.093099
                    6          7
     6  H    0.000000
     7  H    1.848638   0.000000
 Stoichiometry    C2H5(2)
 Framework group  CS[SG(C2H),X(H4)]
 Deg. of freedom     9
 Full point group                 CS      NOp   2
 Largest Abelian subgroup         CS      NOp   2
 Largest concise Abelian subgroup CS      NOp   2
                         Standard orientation:                         
 ---------------------------------------------------------------------
 Center     Atomic      Atomic             Coordinates (Angstroms)
 Number     Number       Type             X           Y           Z
 ---------------------------------------------------------------------
      1          6           0       -0.010575   -0.695857    0.000000
      2          6           0       -0.010575    0.795184   -0.000000
      3          1           0        1.009083   -1.099683    0.000000
      4          1           0       -0.508620   -1.095481    0.883419
      5          1           0       -0.508620   -1.095481   -0.883419
      6          1           0        0.067529    1.347343   -0.924319
      7          1           0        0.067529    1.347343    0.924319
 ---------------------------------------------------------------------
 Rotational constants (GHZ):         104.1481796          22.7216789          21.0750208
 Leave Link  202 at Wed Oct 21 14:24:51 2020, MaxMem=  2684354560 cpu:               2.3 elap:               0.8
 (Enter /udrive/faculty/rpeverati/g16/g16/l301.exe)
 Standard basis: VSTO-6G (5D, 7F)
 Ernie: Thresh=  0.10000D-02 Tol=  0.10000D-05 Strict=F.
  NNHCO=     0 NNPyr=     0 NCTC=     0               EPep=         0.000000000
    EC=        18.126820624  ECS=         1.083955702   EG=         0.078653036
   EHC=         0.000185018  EAt=       -10.533750842  AtH=         0.959810210
 EPDDG=         0.000000000  ECC=        19.289614380 EAtT=        11.493561052
 There are     9 symmetry adapted cartesian basis functions of A'  symmetry.
 There are     4 symmetry adapted cartesian basis functions of A"  symmetry.
 There are     9 symmetry adapted basis functions of A'  symmetry.
 There are     4 symmetry adapted basis functions of A"  symmetry.
    13 basis functions,    78 primitive gaussians,    13 cartesian basis functions
     7 alpha electrons        6 beta electrons
       nuclear repulsion energy        30.7831754318 Hartrees.
 IExCor=    0 DFT=F Ex=HF Corr=None ExCW=0 ScaHFX=  1.000000
 ScaDFX=  1.000000  1.000000  1.000000  1.000000 ScalE2=  1.000000  1.000000
 IRadAn=      5 IRanWt=     -1 IRanGd=            0 ICorTp=0 IEmpDi=  4
 Integral buffers will be    131072 words long.
 Regular integral format.
 Two-electron integral symmetry is turned off.
 Leave Link  301 at Wed Oct 21 14:24:53 2020, MaxMem=  2684354560 cpu:               4.6 elap:               1.0
 (Enter /udrive/faculty/rpeverati/g16/g16/l302.exe)
 Do NDO integrals.
 NPDir=0 NMtPBC=     1 NCelOv=     1 NCel=       1 NClECP=     1 NCelD=      1
         NCelK=      1 NCelE2=     1 NClLst=     1 CellRange=     0.0.
 One-electron integrals computed using PRISM.
 NBasis=    13 RedAO= T EigKep=  1.00D+00  NBF=     9     4
 NBsUse=    13 1.00D-06 EigRej= -1.00D+00 NBFU=     9     4
 Leave Link  302 at Wed Oct 21 14:24:54 2020, MaxMem=  2684354560 cpu:               3.7 elap:               0.9
 (Enter /udrive/faculty/rpeverati/g16/g16/l303.exe)
 DipDrv:  MaxL=1.
 Leave Link  303 at Wed Oct 21 14:24:55 2020, MaxMem=  2684354560 cpu:               3.0 elap:               0.9
 (Enter /udrive/faculty/rpeverati/g16/g16/l401.exe)
 SCF N**3 symmetry information disabled.
 Simple Huckel Guess.
 JPrj=0 DoOrth=F DoCkMO=F.
 Initial guess orbital symmetries:
 Alpha Orbitals:
       Occupied  (A') (A') (A") (A') (A') (A") (A')
       Virtual   (A") (A') (A') (A") (A') (A')
 Beta  Orbitals:
       Occupied  (A') (A') (A") (A') (A') (A")
       Virtual   (A') (A") (A') (A') (A") (A') (A')
 The electronic state of the initial guess is 2-A'.
 Initial guess <Sx>= 0.0000 <Sy>= 0.0000 <Sz>= 0.5000 <S**2>= 0.7500 S= 0.5000
 Leave Link  401 at Wed Oct 21 14:24:56 2020, MaxMem=  2684354560 cpu:               2.8 elap:               0.9
 (Enter /udrive/faculty/rpeverati/g16/g16/l502.exe)
 Keep J ints in memory in canonical form, NReq=859516.
 FoFCou: FMM=F IPFlag=           0 FMFlag=           0 FMFlg1=           0
         NFxFlg=           0 DoJE=F BraDBF=F KetDBF=F FulRan=T
         wScrn=  0.000000 ICntrl=       600 IOpCl=  2 I1Cent=           0 NGrid=           0
         NMat0=    1 NMatS0=     25 NMatT0=    0 NMatD0=    1 NMtDS0=    0 NMtDT0=    0
 Symmetry not used in FoFCou.
 Two-electron integral symmetry not used.
 UHF open shell SCF:
 Using DIIS extrapolation, IDIIS=  1040.
 Overlap will be assumed to be unity.
 NGot=  2684354560 LenX=  2684293739 LenY=  2684292857
 Requested convergence on RMS density matrix=1.00D-08 within 120 cycles.
 Requested convergence on MAX density matrix=1.00D-06.
 Requested convergence on             energy=1.00D-06.
 No special actions if energy rises.

 Cycle   1  Pass 1  IDiag  1:
 E= 0.698234095244814E-01
 DIIS: error= 2.37D-02 at cycle   1 NSaved=   1.
 NSaved= 1 IEnMin= 1 EnMin= 0.698234095244814E-01 IErMin= 1 ErrMin= 2.37D-02
 ErrMax= 2.37D-02  0.00D+00 EMaxC= 1.00D-01 BMatC= 5.70D-02 BMatP= 5.70D-02
 IDIUse=3 WtCom= 7.63D-01 WtEn= 2.37D-01
 Coeff-Com:  0.100D+01
 Coeff-En:   0.100D+01
 Coeff:      0.100D+01
 GapD=    2.000 DampG=2.000 DampE=0.500 DampFc=1.0000 IDamp=-1.
 RMSDP=1.37D-02 MaxDP=7.04D-02              OVMax= 0.00D+00

 Cycle   2  Pass 1  IDiag  1:
 E= 0.315145007856792E-01 Delta-E=       -0.038308908739 Rises=F Damp=F
 DIIS: error= 7.14D-03 at cycle   2 NSaved=   2.
 NSaved= 2 IEnMin= 2 EnMin= 0.315145007856792E-01 IErMin= 2 ErrMin= 7.14D-03
 ErrMax= 7.14D-03  0.00D+00 EMaxC= 1.00D-01 BMatC= 5.03D-03 BMatP= 5.70D-02
 IDIUse=3 WtCom= 9.29D-01 WtEn= 7.14D-02
 Coeff-Com: -0.378D+00 0.138D+01
 Coeff-En:   0.000D+00 0.100D+01
 Coeff:     -0.351D+00 0.135D+01
 RMSDP=6.22D-03 MaxDP=2.70D-02 DE=-3.83D-02 OVMax= 0.00D+00

 Cycle   3  Pass 1  IDiag  3:
 E= 0.270013718300177E-01 Delta-E=       -0.004513128956 Rises=F Damp=F
 DIIS: error= 1.75D-03 at cycle   3 NSaved=   3.
 NSaved= 3 IEnMin= 3 EnMin= 0.270013718300177E-01 IErMin= 3 ErrMin= 1.75D-03
 ErrMax= 1.75D-03  0.00D+00 EMaxC= 1.00D-01 BMatC= 2.18D-04 BMatP= 5.03D-03
 IDIUse=3 WtCom= 9.82D-01 WtEn= 1.75D-02
 Coeff-Com:  0.334D+00-0.130D+01 0.196D+01
 Coeff-En:   0.000D+00 0.000D+00 0.100D+01
 Coeff:      0.329D+00-0.127D+01 0.194D+01
 Gap=     0.508 Goal=   None    Shift=    0.000
 Gap=     0.489 Goal=   None    Shift=    0.000
 RMSDP=2.28D-03 MaxDP=1.02D-02 DE=-4.51D-03 OVMax= 1.28D-02

 Cycle   4  Pass 1  IDiag  3:
 E= 0.266665954525678E-01 Delta-E=       -0.000334776377 Rises=F Damp=F
 DIIS: error= 3.47D-04 at cycle   4 NSaved=   4.
 NSaved= 4 IEnMin= 4 EnMin= 0.266665954525678E-01 IErMin= 4 ErrMin= 3.47D-04
 ErrMax= 3.47D-04  0.00D+00 EMaxC= 1.00D-01 BMatC= 6.82D-06 BMatP= 2.18D-04
 IDIUse=3 WtCom= 9.97D-01 WtEn= 3.47D-03
 Coeff-Com: -0.220D+00 0.857D+00-0.139D+01 0.176D+01
 Coeff-En:   0.000D+00 0.000D+00 0.000D+00 0.100D+01
 Coeff:     -0.220D+00 0.854D+00-0.139D+01 0.175D+01
 Gap=     0.508 Goal=   None    Shift=    0.000
 Gap=     0.490 Goal=   None    Shift=    0.000
 RMSDP=4.01D-04 MaxDP=2.27D-03 DE=-3.35D-04 OVMax= 2.36D-03

 Cycle   5  Pass 1  IDiag  3:
 E= 0.266555453107280E-01 Delta-E=       -0.000011050142 Rises=F Damp=F
 DIIS: error= 9.18D-05 at cycle   5 NSaved=   5.
 NSaved= 5 IEnMin= 5 EnMin= 0.266555453107280E-01 IErMin= 5 ErrMin= 9.18D-05
 ErrMax= 9.18D-05  0.00D+00 EMaxC= 1.00D-01 BMatC= 4.32D-07 BMatP= 6.82D-06
 IDIUse=1 WtCom= 1.00D+00 WtEn= 0.00D+00
 Coeff-Com:  0.701D-01-0.273D+00 0.467D+00-0.833D+00 0.157D+01
 Coeff:      0.701D-01-0.273D+00 0.467D+00-0.833D+00 0.157D+01
 Gap=     0.508 Goal=   None    Shift=    0.000
 Gap=     0.490 Goal=   None    Shift=    0.000
 RMSDP=1.08D-04 MaxDP=7.30D-04 DE=-1.11D-05 OVMax= 6.44D-04

 Cycle   6  Pass 1  IDiag  3:
 E= 0.266548461069576E-01 Delta-E=       -0.000000699204 Rises=F Damp=F
 DIIS: error= 1.74D-05 at cycle   6 NSaved=   6.
 NSaved= 6 IEnMin= 6 EnMin= 0.266548461069576E-01 IErMin= 6 ErrMin= 1.74D-05
 ErrMax= 1.74D-05  0.00D+00 EMaxC= 1.00D-01 BMatC= 1.45D-08 BMatP= 4.32D-07
 IDIUse=1 WtCom= 1.00D+00 WtEn= 0.00D+00
 Coeff-Com: -0.975D-03 0.397D-02-0.160D-01 0.963D-01-0.394D+00 0.131D+01
 Coeff:     -0.975D-03 0.397D-02-0.160D-01 0.963D-01-0.394D+00 0.131D+01
 Gap=     0.508 Goal=   None    Shift=    0.000
 Gap=     0.490 Goal=   None    Shift=    0.000
 RMSDP=1.59D-05 MaxDP=9.02D-05 DE=-6.99D-07 OVMax= 9.03D-05

 Cycle   7  Pass 1  IDiag  3:
 E= 0.266548264986888E-01 Delta-E=       -0.000000019608 Rises=F Damp=F
 DIIS: error= 5.05D-06 at cycle   7 NSaved=   7.
 NSaved= 7 IEnMin= 7 EnMin= 0.266548264986888E-01 IErMin= 7 ErrMin= 5.05D-06
 ErrMax= 5.05D-06  0.00D+00 EMaxC= 1.00D-01 BMatC= 1.02D-09 BMatP= 1.45D-08
 IDIUse=1 WtCom= 1.00D+00 WtEn= 0.00D+00
 Coeff-Com: -0.374D-03 0.135D-02 0.327D-02-0.462D-01 0.215D+00-0.869D+00
 Coeff-Com:  0.170D+01
 Coeff:     -0.374D-03 0.135D-02 0.327D-02-0.462D-01 0.215D+00-0.869D+00
 Coeff:      0.170D+01
 Gap=     0.508 Goal=   None    Shift=    0.000
 Gap=     0.490 Goal=   None    Shift=    0.000
 RMSDP=5.21D-06 MaxDP=2.72D-05 DE=-1.96D-08 OVMax= 3.88D-05

 Cycle   8  Pass 1  IDiag  3:
 E= 0.266548247274301E-01 Delta-E=       -0.000000001771 Rises=F Damp=F
 DIIS: error= 1.38D-06 at cycle   8 NSaved=   8.
 NSaved= 8 IEnMin= 8 EnMin= 0.266548247274301E-01 IErMin= 8 ErrMin= 1.38D-06
 ErrMax= 1.38D-06  0.00D+00 EMaxC= 1.00D-01 BMatC= 7.56D-11 BMatP= 1.02D-09
 IDIUse=1 WtCom= 1.00D+00 WtEn= 0.00D+00
 Coeff-Com:  0.283D-04-0.237D-04-0.464D-02 0.420D-01-0.187D+00 0.751D+00
 Coeff-Com: -0.158D+01 0.198D+01
 Coeff:      0.283D-04-0.237D-04-0.464D-02 0.420D-01-0.187D+00 0.751D+00
 Coeff:     -0.158D+01 0.198D+01
 Gap=     0.508 Goal=   None    Shift=    0.000
 Gap=     0.490 Goal=   None    Shift=    0.000
 RMSDP=1.84D-06 MaxDP=1.18D-05 DE=-1.77D-09 OVMax= 1.85D-05

 Cycle   9  Pass 1  IDiag  3:
 E= 0.266548245565161E-01 Delta-E=       -0.000000000171 Rises=F Damp=F
 DIIS: error= 3.38D-07 at cycle   9 NSaved=   9.
 NSaved= 9 IEnMin= 9 EnMin= 0.266548245565161E-01 IErMin= 9 ErrMin= 3.38D-07
 ErrMax= 3.38D-07  0.00D+00 EMaxC= 1.00D-01 BMatC= 5.03D-12 BMatP= 7.56D-11
 IDIUse=1 WtCom= 1.00D+00 WtEn= 0.00D+00
 Coeff-Com:  0.493D-04-0.244D-03 0.320D-02-0.257D-01 0.113D+00-0.449D+00
 Coeff-Com:  0.961D+00-0.139D+01 0.179D+01
 Coeff:      0.493D-04-0.244D-03 0.320D-02-0.257D-01 0.113D+00-0.449D+00
 Coeff:      0.961D+00-0.139D+01 0.179D+01
 Gap=     0.508 Goal=   None    Shift=    0.000
 Gap=     0.490 Goal=   None    Shift=    0.000
 RMSDP=5.11D-07 MaxDP=3.37D-06 DE=-1.71D-10 OVMax= 5.32D-06

 Cycle  10  Pass 1  IDiag  3:
 E= 0.266548245454885E-01 Delta-E=       -0.000000000011 Rises=F Damp=F
 DIIS: error= 4.57D-08 at cycle  10 NSaved=  10.
 NSaved=10 IEnMin=10 EnMin= 0.266548245454885E-01 IErMin=10 ErrMin= 4.57D-08
 ErrMax= 4.57D-08  0.00D+00 EMaxC= 1.00D-01 BMatC= 1.62D-13 BMatP= 5.03D-12
 IDIUse=1 WtCom= 1.00D+00 WtEn= 0.00D+00
 Coeff-Com: -0.696D-05 0.559D-04-0.163D-02 0.139D-01-0.612D-01 0.245D+00
 Coeff-Com: -0.527D+00 0.774D+00-0.109D+01 0.164D+01
 Coeff:     -0.696D-05 0.559D-04-0.163D-02 0.139D-01-0.612D-01 0.245D+00
 Coeff:     -0.527D+00 0.774D+00-0.109D+01 0.164D+01
 Gap=     0.508 Goal=   None    Shift=    0.000
 Gap=     0.490 Goal=   None    Shift=    0.000
 RMSDP=7.32D-08 MaxDP=4.36D-07 DE=-1.10D-11 OVMax= 7.11D-07

 Cycle  11  Pass 1  IDiag  3:
 E= 0.266548245452469E-01 Delta-E=       -0.000000000000 Rises=F Damp=F
 DIIS: error= 1.28D-08 at cycle  11 NSaved=  11.
 NSaved=11 IEnMin=11 EnMin= 0.266548245452469E-01 IErMin=11 ErrMin= 1.28D-08
 ErrMax= 1.28D-08  0.00D+00 EMaxC= 1.00D-01 BMatC= 1.02D-14 BMatP= 1.62D-13
 IDIUse=1 WtCom= 1.00D+00 WtEn= 0.00D+00
 Coeff-Com:  0.153D-05-0.211D-04 0.827D-03-0.710D-02 0.314D-01-0.126D+00
 Coeff-Com:  0.272D+00-0.400D+00 0.575D+00-0.103D+01 0.168D+01
 Coeff:      0.153D-05-0.211D-04 0.827D-03-0.710D-02 0.314D-01-0.126D+00
 Coeff:      0.272D+00-0.400D+00 0.575D+00-0.103D+01 0.168D+01
 Gap=     0.508 Goal=   None    Shift=    0.000
 Gap=     0.490 Goal=   None    Shift=    0.000
 RMSDP=1.67D-08 MaxDP=8.60D-08 DE=-2.42D-13 OVMax= 8.81D-08

 Cycle  12  Pass 1  IDiag  3:
 E= 0.266548245451901E-01 Delta-E=       -0.000000000000 Rises=F Damp=F
 DIIS: error= 2.73D-09 at cycle  12 NSaved=  12.
 NSaved=12 IEnMin=12 EnMin= 0.266548245451901E-01 IErMin=12 ErrMin= 2.73D-09
 ErrMax= 2.73D-09  0.00D+00 EMaxC= 1.00D-01 BMatC= 5.88D-16 BMatP= 1.02D-14
 IDIUse=1 WtCom= 1.00D+00 WtEn= 0.00D+00
 Coeff-Com: -0.167D-06 0.105D-05-0.156D-04 0.111D-03-0.476D-03 0.189D-02
 Coeff-Com: -0.450D-02 0.714D-02-0.155D-01 0.715D-01-0.358D+00 0.130D+01
 Coeff:     -0.167D-06 0.105D-05-0.156D-04 0.111D-03-0.476D-03 0.189D-02
 Coeff:     -0.450D-02 0.714D-02-0.155D-01 0.715D-01-0.358D+00 0.130D+01
 Gap=     0.508 Goal=   None    Shift=    0.000
 Gap=     0.490 Goal=   None    Shift=    0.000
 RMSDP=4.16D-09 MaxDP=1.97D-08 DE=-5.68D-14 OVMax= 3.16D-08

 Cycle  13  Pass 2  IDiag  1:
 SCF Done:  E(UPM6) =  0.266548245452E-01 A.U. after   13 cycles
            NFock= 12  Conv=0.42D-08     -V/T= 1.0015
 <Sx>= 0.0000 <Sy>= 0.0000 <Sz>= 0.5000 <S**2>= 0.7545 S= 0.5022
 <L.S>= 0.000000000000E+00
 KE=-1.809340976416D+01 PE=-3.555108031014D+01 EE= 2.288796946708D+01
 Annihilation of the first spin contaminant:
 S**2 before annihilation     0.7545,   after     0.7500
 Leave Link  502 at Wed Oct 21 14:24:58 2020, MaxMem=  2684354560 cpu:               9.2 elap:               1.4
 (Enter /udrive/faculty/rpeverati/g16/g16/l508.exe)
 QCSCF skips out because SCF is already converged.
 Leave Link  508 at Wed Oct 21 14:24:59 2020, MaxMem=  2684354560 cpu:               0.7 elap:               0.7
 (Enter /udrive/faculty/rpeverati/g16/g16/l601.exe)
 Copying SCF densities to generalized density rwf, IOpCl= 1 IROHF=0.

 **********************************************************************

            Population analysis using the SCF density.

 **********************************************************************

 Orbital symmetries:
 Alpha Orbitals:
       Occupied  (A') (A') (A") (A') (A') (A") (A')
       Virtual   (A') (A") (A') (A') (A") (A')
 Beta  Orbitals:
       Occupied  (A') (A') (A") (A') (A') (A")
       Virtual   (A') (A') (A") (A') (A') (A") (A')
 The electronic state is 2-A'.
 Alpha  occ. eigenvalues --   -0.97478  -0.77391  -0.56865  -0.52185  -0.49982
 Alpha  occ. eigenvalues --   -0.45253  -0.33877
 Alpha virt. eigenvalues --    0.16930   0.20838   0.21060   0.23204   0.23578
 Alpha virt. eigenvalues --    0.24995
  Beta  occ. eigenvalues --   -0.96858  -0.76229  -0.56154  -0.50767  -0.49073
  Beta  occ. eigenvalues --   -0.44743
  Beta virt. eigenvalues --    0.04252   0.18276   0.20992   0.21452   0.23944
  Beta virt. eigenvalues --    0.24341   0.25256
          Condensed to atoms (all electrons):
               1          2          3          4          5          6
     1  C    4.446166   0.000000   0.000000   0.000000   0.000000   0.000000
     2  C    0.000000   4.289368   0.000000   0.000000   0.000000   0.000000
     3  H    0.000000   0.000000   0.839406   0.000000   0.000000   0.000000
     4  H    0.000000   0.000000   0.000000   0.847173   0.000000   0.000000
     5  H    0.000000   0.000000   0.000000   0.000000   0.847173   0.000000
     6  H    0.000000   0.000000   0.000000   0.000000   0.000000   0.865357
     7  H    0.000000   0.000000   0.000000   0.000000   0.000000   0.000000
               7
     1  C    0.000000
     2  C    0.000000
     3  H    0.000000
     4  H    0.000000
     5  H    0.000000
     6  H    0.000000
     7  H    0.865357
          Atomic-Atomic Spin Densities.
               1          2          3          4          5          6
     1  C   -0.052139   0.000000   0.000000   0.000000   0.000000   0.000000
     2  C    0.000000   1.066273   0.000000   0.000000   0.000000   0.000000
     3  H    0.000000   0.000000   0.035976   0.000000   0.000000   0.000000
     4  H    0.000000   0.000000   0.000000   0.009654   0.000000   0.000000
     5  H    0.000000   0.000000   0.000000   0.000000   0.009654   0.000000
     6  H    0.000000   0.000000   0.000000   0.000000   0.000000  -0.034708
     7  H    0.000000   0.000000   0.000000   0.000000   0.000000   0.000000
               7
     1  C    0.000000
     2  C    0.000000
     3  H    0.000000
     4  H    0.000000
     5  H    0.000000
     6  H    0.000000
     7  H   -0.034708
 Mulliken charges and spin densities:
               1          2
     1  C   -0.446166  -0.052139
     2  C   -0.289368   1.066273
     3  H    0.160594   0.035976
     4  H    0.152827   0.009654
     5  H    0.152827   0.009654
     6  H    0.134643  -0.034708
     7  H    0.134643  -0.034708
 Sum of Mulliken charges =   0.00000   1.00000
 Mulliken charges and spin densities with hydrogens summed into heavy atoms:
               1          2
     1  C    0.020082   0.003144
     2  C   -0.020082   0.996856
 Charge=              0.0000 electrons
 Dipole moment (field-independent basis, Debye):
    X=              0.2152    Y=             -0.4065    Z=             -0.0000  Tot=              0.4599
 N-N= 3.078317543176D+01 E-N=-3.555108031017D+01  KE=-1.809340976416D+01
 Leave Link  601 at Wed Oct 21 14:25:00 2020, MaxMem=  2684354560 cpu:               2.5 elap:               0.8
 (Enter /udrive/faculty/rpeverati/g16/g16/l701.exe)
 ... and contract with generalized density number  0.
 Compute integral first derivatives.
 Leave Link  701 at Wed Oct 21 14:25:02 2020, MaxMem=  2684354560 cpu:               4.1 elap:               1.0
 (Enter /udrive/faculty/rpeverati/g16/g16/l702.exe)
 L702 exits ... SP integral derivatives will be done elsewhere.
 Leave Link  702 at Wed Oct 21 14:25:03 2020, MaxMem=  2684354560 cpu:               2.5 elap:               0.7
 (Enter /udrive/faculty/rpeverati/g16/g16/l703.exe)
 Integral derivatives from FoFJK, PRISM(SPDF).
 Compute integral first derivatives, UseDBF=F ICtDFT=           0.
 Calling FoFJK, ICntrl=      2127 FMM=F ISym2X=1 I1Cent= 0 IOpClX= 1 NMat=1 NMatS=1 NMatT=0.
 FoFJK:  IHMeth=40 ICntrl=    2127 DoSepK=F KAlg= 0 I1Cent=           0 FoldK=F
 IRaf=         0 NMat=       1 IRICut=       1 DoRegI=T DoRafI=F ISym2E= 1 IDoP0=3 IntGTp=3.
 FoFCou: FMM=F IPFlag=           0 FMFlag=      100000 FMFlg1=         800
         NFxFlg=           0 DoJE=F BraDBF=F KetDBF=F FulRan=T
         wScrn=  0.000000 ICntrl=      2127 IOpCl=  1 I1Cent=           0 NGrid=           0
         NMat0=    1 NMatS0=      1 NMatT0=    0 NMatD0=    1 NMtDS0=    0 NMtDT0=    0
 Petite list used in FoFCou.
 Leave Link  703 at Wed Oct 21 14:25:04 2020, MaxMem=  2684354560 cpu:               3.6 elap:               0.9
 (Enter /udrive/faculty/rpeverati/g16/g16/l716.exe)
 Dipole        = 8.46713385D-02-1.59918358D-01-1.55431223D-15
 ***** Axes restored to original set *****
 -------------------------------------------------------------------
 Center     Atomic                   Forces (Hartrees/Bohr)
 Number     Number              X              Y              Z
 -------------------------------------------------------------------
      1        6          -0.001568962    0.020958686    0.000000000
      2        6           0.009418627   -0.010292687    0.000000000
      3        1           0.002703113    0.001377083   -0.000000000
      4        1          -0.002286324   -0.001819987    0.003226741
      5        1          -0.002286324   -0.001819987   -0.003226741
      6        1          -0.002990065   -0.004201555    0.005666962
      7        1          -0.002990065   -0.004201555   -0.005666962
 -------------------------------------------------------------------
 Cartesian Forces:  Max     0.020958686 RMS     0.006175606
 Leave Link  716 at Wed Oct 21 14:25:05 2020, MaxMem=  2684354560 cpu:               2.6 elap:               0.8
 (Enter /udrive/faculty/rpeverati/g16/g16/l103.exe)

 GradGradGradGradGradGradGradGradGradGradGradGradGradGradGradGradGradGrad
 Berny optimization.
 Optmz: redundant internal coordinate code flag= 1
 FormGI is forming the generalized inverse of G from B-inverse, IUseBI=4.
 Internal  Forces:  Max     0.018695796 RMS     0.005000631
 Search for a local minimum.
 Step number   1 out of a maximum of  100
 All quantities printed in internal units (Hartrees-Bohrs-Radians)
 RMS Force = .50006D-02 SwitMx=.10000D-02 MixMth= 1
 Mixed Optimization -- RFO/linear search
 Second derivative matrix not updated -- first step.
 The second derivative matrix:
                          R1        R2        R3        R4        R5
           R1           0.33336
           R2           0.00000   0.34048
           R3           0.00000   0.00000   0.34809
           R4           0.00000   0.00000   0.00000   0.34809
           R5           0.00000   0.00000   0.00000   0.00000   0.36053
           R6           0.00000   0.00000   0.00000   0.00000   0.00000
           A1           0.00000   0.00000   0.00000   0.00000   0.00000
           A2           0.00000   0.00000   0.00000   0.00000   0.00000
           A3           0.00000   0.00000   0.00000   0.00000   0.00000
           A4           0.00000   0.00000   0.00000   0.00000   0.00000
           A5           0.00000   0.00000   0.00000   0.00000   0.00000
           A6           0.00000   0.00000   0.00000   0.00000   0.00000
           A7           0.00000   0.00000   0.00000   0.00000   0.00000
           A8           0.00000   0.00000   0.00000   0.00000   0.00000
           A9           0.00000   0.00000   0.00000   0.00000   0.00000
           D1           0.00000   0.00000   0.00000   0.00000   0.00000
           D2           0.00000   0.00000   0.00000   0.00000   0.00000
           D3           0.00000   0.00000   0.00000   0.00000   0.00000
           D4           0.00000   0.00000   0.00000   0.00000   0.00000
           D5           0.00000   0.00000   0.00000   0.00000   0.00000
           D6           0.00000   0.00000   0.00000   0.00000   0.00000
                          R6        A1        A2        A3        A4
           R6           0.36053
           A1           0.00000   0.16000
           A2           0.00000   0.00000   0.16000
           A3           0.00000   0.00000   0.00000   0.16000
           A4           0.00000   0.00000   0.00000   0.00000   0.16000
           A5           0.00000   0.00000   0.00000   0.00000   0.00000
           A6           0.00000   0.00000   0.00000   0.00000   0.00000
           A7           0.00000   0.00000   0.00000   0.00000   0.00000
           A8           0.00000   0.00000   0.00000   0.00000   0.00000
           A9           0.00000   0.00000   0.00000   0.00000   0.00000
           D1           0.00000   0.00000   0.00000   0.00000   0.00000
           D2           0.00000   0.00000   0.00000   0.00000   0.00000
           D3           0.00000   0.00000   0.00000   0.00000   0.00000
           D4           0.00000   0.00000   0.00000   0.00000   0.00000
           D5           0.00000   0.00000   0.00000   0.00000   0.00000
           D6           0.00000   0.00000   0.00000   0.00000   0.00000
                          A5        A6        A7        A8        A9
           A5           0.16000
           A6           0.00000   0.16000
           A7           0.00000   0.00000   0.16000
           A8           0.00000   0.00000   0.00000   0.16000
           A9           0.00000   0.00000   0.00000   0.00000   0.16000
           D1           0.00000   0.00000   0.00000   0.00000   0.00000
           D2           0.00000   0.00000   0.00000   0.00000   0.00000
           D3           0.00000   0.00000   0.00000   0.00000   0.00000
           D4           0.00000   0.00000   0.00000   0.00000   0.00000
           D5           0.00000   0.00000   0.00000   0.00000   0.00000
           D6           0.00000   0.00000   0.00000   0.00000   0.00000
                          D1        D2        D3        D4        D5
           D1           0.00884
           D2           0.00000   0.00884
           D3           0.00000   0.00000   0.00884
           D4           0.00000   0.00000   0.00000   0.00884
           D5           0.00000   0.00000   0.00000   0.00000   0.00884
           D6           0.00000   0.00000   0.00000   0.00000   0.00000
                          D6
           D6           0.00884
 ITU=  0
 Eigenvectors of the second derivative matrix:
                           1         2         3         4         5
     Eigenvalues --     0.00884   0.00951   0.07164   0.07233   0.16000
   1         R1         0.00000   0.00000  -0.00000   0.00000   0.00000
   2         R2         0.00000   0.00000  -0.00000   0.00000  -0.00000
   3         R3         0.00000   0.00000   0.00000   0.00000  -0.00000
   4         R4         0.00000   0.00000   0.00000  -0.00000  -0.00000
   5         R5        -0.00000  -0.00000  -0.00000  -0.00000   0.00000
   6         R6        -0.00000   0.00000  -0.00000   0.00000  -0.00000
   7         A1        -0.00000   0.00000  -0.24987   0.00000  -0.23853
   8         A2        -0.00000  -0.00000   0.12540   0.21550   0.48042
   9         A3        -0.00000  -0.00000   0.12540  -0.21550  -0.09023
  10         A4         0.00000  -0.00000  -0.23487   0.40443  -0.12911
  11         A5         0.00000   0.00000  -0.23487  -0.40443   0.17496
  12         A6         0.00000  -0.00000   0.45960  -0.00000  -0.21271
  13         A7         0.00000  -0.03820   0.00000   0.00000  -0.10053
  14         A8         0.00000  -0.03820   0.00000  -0.00000   0.59940
  15         A9        -0.00000  -0.03872  -0.00000   0.00000  -0.49219
  16         D1        -0.40825  -0.40735  -0.00000  -0.43970  -0.00000
  17         D2        -0.40825   0.40735  -0.00000  -0.43970  -0.00000
  18         D3        -0.40825  -0.40735  -0.38228   0.21985   0.00000
  19         D4        -0.40825   0.40735  -0.38228   0.21985   0.00000
  20         D5        -0.40825  -0.40735   0.38228   0.21985   0.00000
  21         D6        -0.40825   0.40735   0.38228   0.21985   0.00000
                           6         7         8         9        10
     Eigenvalues --     0.16000   0.16000   0.16000   0.16000   0.33336
   1         R1        -0.00000   0.00000  -0.00000   0.00000   1.00000
   2         R2        -0.00000   0.00000  -0.00000   0.00000   0.00000
   3         R3        -0.00000   0.00000  -0.00000   0.00000  -0.00000
   4         R4         0.00000   0.00000  -0.00000  -0.00000   0.00000
   5         R5        -0.00000   0.00000   0.00000  -0.00000   0.00000
   6         R6        -0.00000   0.00000   0.00000  -0.00000  -0.00000
   7         A1         0.69654   0.19179   0.26183   0.16768   0.00000
   8         A2         0.18946   0.15920  -0.61240   0.06268   0.00000
   9         A3        -0.16967  -0.52277  -0.02162   0.60027  -0.00000
  10         A4        -0.47146  -0.18685   0.18704  -0.12259  -0.00000
  11         A5        -0.28010   0.17653  -0.12776  -0.40904  -0.00000
  12         A6        -0.01079   0.19820   0.34564  -0.36142  -0.00000
  13         A7         0.30120  -0.58212  -0.18241  -0.44351   0.00000
  14         A8        -0.06481   0.12295   0.50228   0.19695   0.00000
  15         A9        -0.23322   0.45303  -0.31559   0.24327  -0.00000
  16         D1         0.00000   0.00000   0.00000  -0.00000   0.00000
  17         D2         0.00000  -0.00000   0.00000  -0.00000   0.00000
  18         D3        -0.00000  -0.00000   0.00000  -0.00000  -0.00000
  19         D4        -0.00000  -0.00000   0.00000  -0.00000  -0.00000
  20         D5        -0.00000  -0.00000   0.00000  -0.00000   0.00000
  21         D6        -0.00000  -0.00000   0.00000  -0.00000   0.00000
                          11        12        13        14        15
     Eigenvalues --     0.34048   0.34809   0.34809   0.36053   0.36053
   1         R1         0.00000   0.00000   0.00000  -0.00000  -0.00000
   2         R2        -1.00000   0.00000   0.00000   0.00000   0.00000
   3         R3        -0.00000  -0.41695   0.90893   0.00000   0.00000
   4         R4        -0.00000  -0.90893  -0.41695   0.00000  -0.00000
   5         R5         0.00000  -0.00000  -0.00000  -0.69572   0.71831
   6         R6        -0.00000  -0.00000   0.00000  -0.71831  -0.69572
   7         A1        -0.00000   0.00000   0.00000  -0.00000  -0.00000
   8         A2         0.00000   0.00000   0.00000  -0.00000   0.00000
   9         A3         0.00000  -0.00000  -0.00000  -0.00000  -0.00000
  10         A4         0.00000  -0.00000  -0.00000   0.00000   0.00000
  11         A5        -0.00000  -0.00000   0.00000   0.00000   0.00000
  12         A6        -0.00000   0.00000  -0.00000   0.00000   0.00000
  13         A7        -0.00000  -0.00000   0.00000   0.00000   0.00000
  14         A8        -0.00000  -0.00000  -0.00000  -0.00000  -0.00000
  15         A9         0.00000   0.00000  -0.00000  -0.00000  -0.00000
  16         D1        -0.00000  -0.00000   0.00000   0.00000  -0.00000
  17         D2        -0.00000  -0.00000   0.00000   0.00000  -0.00000
  18         D3         0.00000  -0.00000   0.00000   0.00000   0.00000
  19         D4        -0.00000  -0.00000   0.00000   0.00000   0.00000
  20         D5        -0.00000   0.00000   0.00000   0.00000   0.00000
  21         D6        -0.00000   0.00000   0.00000   0.00000   0.00000
 Iter=   1 RLamda= 0.00000000D+00 Sum=-2.84610425D-03.
 Iter=   2 RLamda=-2.84610425D-03 Sum=-2.53845818D-03.
 Iter=   3 RLamda=-2.53845818D-03 Sum=-2.56501887D-03.
 Iter=   4 RLamda=-2.56501887D-03 Sum=-2.56267532D-03.
 Iter=   5 RLamda=-2.56267532D-03 Sum=-2.56288171D-03.
 Iter=   6 RLamda=-2.56288171D-03 Sum=-2.56286353D-03.
 Iter=   7 RLamda=-2.56286353D-03 Sum=-2.56286513D-03.
 RFO step:  Lambda=-2.56286353D-03 EMin= 8.84451838D-03
 Linear search not attempted -- first point.
 Iteration  1 RMS(Cart)=  0.03567846 RMS(Int)=  0.00382151
 Iteration  2 RMS(Cart)=  0.00268825 RMS(Int)=  0.00290785
 Iteration  3 RMS(Cart)=  0.00000372 RMS(Int)=  0.00290785
 Iteration  4 RMS(Cart)=  0.00000000 RMS(Int)=  0.00290785
 ITry= 1 IFail=0 DXMaxC= 1.12D-01 DCOld= 1.00D+10 DXMaxT= 3.00D-01 DXLimC= 3.00D+00 Rises=F
 ClnCor:  largest displacement from symmetrization is 2.02D-13 for atom     7.
 Variable       Old X    -DE/DX   Delta X   Delta X   Delta X     New X
                                 (Linear)    (Quad)   (Total)
    R1        2.81766  -0.01870   0.00000  -0.05566  -0.05566   2.76200
    R2        2.07249   0.00201   0.00000   0.00585   0.00585   2.07833
    R3        2.05987   0.00433   0.00000   0.01234   0.01234   2.07221
    R4        2.05987   0.00433   0.00000   0.01234   0.01234   2.07221
    R5        2.03998  -0.00722   0.00000  -0.01988  -0.01988   2.02010
    R6        2.03998  -0.00722   0.00000  -0.01988  -0.01988   2.02010
    A1        1.94788  -0.00347   0.00000  -0.02264  -0.02264   1.92525
    A2        1.94617   0.00086   0.00000   0.00595   0.00594   1.95210
    A3        1.94617   0.00086   0.00000   0.00595   0.00594   1.95210
    A4        1.86483   0.00117   0.00000   0.00599   0.00599   1.87082
    A5        1.86483   0.00117   0.00000   0.00599   0.00599   1.87082
    A6        1.88984  -0.00051   0.00000  -0.00077  -0.00081   1.88903
    A7        2.10771  -0.00028   0.00000   0.00849   0.00080   2.10852
    A8        2.10771  -0.00028   0.00000   0.00849   0.00080   2.10852
    A9        2.05589   0.00095   0.00000   0.01615   0.00845   2.06433
    D1        1.48650   0.00142   0.00000   0.11743   0.11729   1.60379
    D2       -1.48650  -0.00142   0.00000  -0.11743  -0.11729  -1.60379
    D3       -2.71254   0.00115   0.00000   0.11376   0.11360  -2.59893
    D4        0.59765  -0.00169   0.00000  -0.12110  -0.12097   0.47668
    D5       -0.59765   0.00169   0.00000   0.12110   0.12097  -0.47668
    D6        2.71254  -0.00115   0.00000  -0.11376  -0.11360   2.59893
         Item               Value     Threshold  Converged?
 Maximum Force            0.018696     0.000450     NO 
 RMS     Force            0.005001     0.000300     NO 
 Maximum Displacement     0.112369     0.001800     NO 
 RMS     Displacement     0.036723     0.001200     NO 
 Predicted change in Energy=-1.417577D-03
 Lowest energy point so far.  Saving SCF results.
 Largest change from initial coordinates is atom    2       0.036 Angstoms.
 GradGradGradGradGradGradGradGradGradGradGradGradGradGradGradGradGradGrad

 Leave Link  103 at Wed Oct 21 14:25:06 2020, MaxMem=  2684354560 cpu:               5.6 elap:               1.0
 (Enter /udrive/faculty/rpeverati/g16/g16/l202.exe)
                          Input orientation:                          
 ---------------------------------------------------------------------
 Center     Atomic      Atomic             Coordinates (Angstroms)
 Number     Number       Type             X           Y           Z
 ---------------------------------------------------------------------
      1          6           0       -0.003736   -0.682373   -0.000000
      2          6           0        0.048888    0.778269    0.000000
      3          1           0        1.013292   -1.100977   -0.000000
      4          1           0       -0.514685   -1.072295    0.888453
      5          1           0       -0.514685   -1.072295   -0.888453
      6          1           0        0.038337    1.326519   -0.917636
      7          1           0        0.038337    1.326519    0.917636
 ---------------------------------------------------------------------
                    Distance matrix (angstroms):
                    1          2          3          4          5
     1  C    0.000000
     2  C    1.461590   0.000000
     3  H    1.099807   2.112260   0.000000
     4  H    1.096566   2.128744   1.767734   0.000000
     5  H    1.096566   2.128744   1.767734   1.776905   0.000000
     6  H    2.208953   1.068993   2.772243   3.053212   2.461909
     7  H    2.208953   1.068993   2.772243   2.461909   3.053212
                    6          7
     6  H    0.000000
     7  H    1.835273   0.000000
 Stoichiometry    C2H5(2)
 Framework group  CS[SG(C2H),X(H4)]
 Deg. of freedom     9
 Full point group                 CS      NOp   2
 RotChk:  IX=0 Diff= 5.09D-02
 Largest Abelian subgroup         CS      NOp   2
 Largest concise Abelian subgroup CS      NOp   2
                         Standard orientation:                         
 ---------------------------------------------------------------------
 Center     Atomic      Atomic             Coordinates (Angstroms)
 Number     Number       Type             X           Y           Z
 ---------------------------------------------------------------------
      1          6           0        0.001311   -0.681759   -0.000000
      2          6           0        0.001311    0.779831    0.000000
      3          1           0        1.032751   -1.063474   -0.000000
      4          1           0       -0.495268   -1.089825    0.888453
      5          1           0       -0.495268   -1.089825   -0.888453
      6          1           0       -0.028973    1.327346   -0.917636
      7          1           0       -0.028973    1.327346    0.917636
 ---------------------------------------------------------------------
 Rotational constants (GHZ):         104.0107750          23.4845672          21.7485257
 Leave Link  202 at Wed Oct 21 14:25:07 2020, MaxMem=  2684354560 cpu:               2.2 elap:               0.7
 (Enter /udrive/faculty/rpeverati/g16/g16/l301.exe)
 Standard basis: VSTO-6G (5D, 7F)
 Ernie: Thresh=  0.10000D-02 Tol=  0.10000D-05 Strict=F.
  NNHCO=     0 NNPyr=     0 NCTC=     0               EPep=         0.000000000
    EC=        18.246357531  ECS=         1.104135402   EG=         0.080846603
   EHC=         0.000193009  EAt=       -10.533750842  AtH=         0.959810210
 EPDDG=         0.000000000  ECC=        19.431532545 EAtT=        11.493561052
 There are     9 symmetry adapted cartesian basis functions of A'  symmetry.
 There are     4 symmetry adapted cartesian basis functions of A"  symmetry.
 There are     9 symmetry adapted basis functions of A'  symmetry.
 There are     4 symmetry adapted basis functions of A"  symmetry.
    13 basis functions,    78 primitive gaussians,    13 cartesian basis functions
     7 alpha electrons        6 beta electrons
       nuclear repulsion energy        30.9250935970 Hartrees.
 IExCor=    0 DFT=F Ex=HF Corr=None ExCW=0 ScaHFX=  1.000000
 ScaDFX=  1.000000  1.000000  1.000000  1.000000 ScalE2=  1.000000  1.000000
 IRadAn=      5 IRanWt=     -1 IRanGd=            0 ICorTp=0 IEmpDi=  4
 Integral buffers will be    131072 words long.
 Regular integral format.
 Two-electron integral symmetry is turned off.
 Leave Link  301 at Wed Oct 21 14:25:09 2020, MaxMem=  2684354560 cpu:               5.3 elap:               1.1
 (Enter /udrive/faculty/rpeverati/g16/g16/l302.exe)
 Do NDO integrals.
 NPDir=0 NMtPBC=     1 NCelOv=     1 NCel=       1 NClECP=     1 NCelD=      1
         NCelK=      1 NCelE2=     1 NClLst=     1 CellRange=     0.0.
 One-electron integrals computed using PRISM.
 NBasis=    13 RedAO= T EigKep=  1.00D+00  NBF=     9     4
 NBsUse=    13 1.00D-06 EigRej= -1.00D+00 NBFU=     9     4
 Leave Link  302 at Wed Oct 21 14:25:10 2020, MaxMem=  2684354560 cpu:               4.1 elap:               1.0
 (Enter /udrive/faculty/rpeverati/g16/g16/l303.exe)
 DipDrv:  MaxL=1.
 Leave Link  303 at Wed Oct 21 14:25:11 2020, MaxMem=  2684354560 cpu:               3.2 elap:               1.0
 (Enter /udrive/faculty/rpeverati/g16/g16/l401.exe)
 Initial guess from the checkpoint file:  "MN_12_c2h5_lower_BH76_PM6_SE.chk"
 SCF N**3 symmetry information disabled.
 B after Tr=     0.000000    0.000000   -0.000000
         Rot=    0.999939    0.000000   -0.000000   -0.011033 Ang=  -1.26 deg.
 Guess basis will be translated and rotated to current coordinates.
 JPrj=0 DoOrth=T DoCkMO=T.
 Initial guess orbital symmetries:
 Alpha Orbitals:
       Occupied  (A') (A') (A") (A') (A') (A") (A')
       Virtual   (A') (A") (A') (A') (A") (A')
 Beta  Orbitals:
       Occupied  (A') (A') (A") (A') (A') (A")
       Virtual   (A') (A') (A") (A') (A') (A") (A')
 The electronic state of the initial guess is 2-A'.
 Initial guess <Sx>= 0.0000 <Sy>= 0.0000 <Sz>= 0.5000 <S**2>= 0.7545 S= 0.5022
 Leave Link  401 at Wed Oct 21 14:25:13 2020, MaxMem=  2684354560 cpu:               3.4 elap:               0.9
 (Enter /udrive/faculty/rpeverati/g16/g16/l502.exe)
 Keep J ints in memory in canonical form, NReq=859516.
 FoFCou: FMM=F IPFlag=           0 FMFlag=           0 FMFlg1=           0
         NFxFlg=           0 DoJE=F BraDBF=F KetDBF=F FulRan=T
         wScrn=  0.000000 ICntrl=       600 IOpCl=  2 I1Cent=           0 NGrid=           0
         NMat0=    1 NMatS0=     25 NMatT0=    0 NMatD0=    1 NMtDS0=    0 NMtDT0=    0
 Symmetry not used in FoFCou.
 Two-electron integral symmetry not used.
 UHF open shell SCF:
 Using DIIS extrapolation, IDIIS=  1040.
 Overlap will be assumed to be unity.
 NGot=  2684354560 LenX=  2684293739 LenY=  2684292857
 Requested convergence on RMS density matrix=1.00D-08 within 120 cycles.
 Requested convergence on MAX density matrix=1.00D-06.
 Requested convergence on             energy=1.00D-06.
 No special actions if energy rises.

 Cycle   1  Pass 1  IDiag  1:
 E= 0.277392657945938E-01
 DIIS: error= 5.81D-03 at cycle   1 NSaved=   1.
 NSaved= 1 IEnMin= 1 EnMin= 0.277392657945938E-01 IErMin= 1 ErrMin= 5.81D-03
 ErrMax= 5.81D-03  0.00D+00 EMaxC= 1.00D-01 BMatC= 1.35D-03 BMatP= 1.35D-03
 IDIUse=3 WtCom= 9.42D-01 WtEn= 5.81D-02
 Coeff-Com:  0.100D+01
 Coeff-En:   0.100D+01
 Coeff:      0.100D+01
 GapD=    2.000 DampG=2.000 DampE=1.000 DampFc=2.0000 IDamp=-1.
 RMSDP=2.82D-03 MaxDP=1.58D-02              OVMax= 0.00D+00

 Cycle   2  Pass 1  IDiag  3:
 E= 0.263328145544754E-01 Delta-E=       -0.001406451240 Rises=F Damp=F
 DIIS: error= 3.02D-03 at cycle   2 NSaved=   2.
 NSaved= 2 IEnMin= 2 EnMin= 0.263328145544754E-01 IErMin= 2 ErrMin= 3.02D-03
 ErrMax= 3.02D-03  0.00D+00 EMaxC= 1.00D-01 BMatC= 3.49D-04 BMatP= 1.35D-03
 IDIUse=3 WtCom= 9.70D-01 WtEn= 3.02D-02
 Coeff-Com: -0.853D+00 0.185D+01
 Coeff-En:   0.000D+00 0.100D+01
 Coeff:     -0.827D+00 0.183D+01
 Gap=     0.512 Goal=   None    Shift=    0.000
 Gap=     0.488 Goal=   None    Shift=    0.000
 RMSDP=2.85D-03 MaxDP=1.85D-02 DE=-1.41D-03 OVMax= 2.89D-02

 Cycle   3  Pass 1  IDiag  3:
 E= 0.257496276776763E-01 Delta-E=       -0.000583186877 Rises=F Damp=F
 DIIS: error= 9.38D-04 at cycle   3 NSaved=   3.
 NSaved= 3 IEnMin= 3 EnMin= 0.257496276776763E-01 IErMin= 3 ErrMin= 9.38D-04
 ErrMax= 9.38D-04  0.00D+00 EMaxC= 1.00D-01 BMatC= 2.32D-05 BMatP= 3.49D-04
 IDIUse=3 WtCom= 9.91D-01 WtEn= 9.38D-03
 Coeff-Com:  0.667D+00-0.162D+01 0.195D+01
 Coeff-En:   0.000D+00 0.000D+00 0.100D+01
 Coeff:      0.661D+00-0.160D+01 0.194D+01
 Gap=     0.511 Goal=   None    Shift=    0.000
 Gap=     0.488 Goal=   None    Shift=    0.000
 RMSDP=1.03D-03 MaxDP=7.62D-03 DE=-5.83D-04 OVMax= 1.18D-02

 Cycle   4  Pass 1  IDiag  3:
 E= 0.257007681399344E-01 Delta-E=       -0.000048859538 Rises=F Damp=F
 DIIS: error= 1.19D-04 at cycle   4 NSaved=   4.
 NSaved= 4 IEnMin= 4 EnMin= 0.257007681399344E-01 IErMin= 4 ErrMin= 1.19D-04
 ErrMax= 1.19D-04  0.00D+00 EMaxC= 1.00D-01 BMatC= 6.05D-07 BMatP= 2.32D-05
 IDIUse=3 WtCom= 9.99D-01 WtEn= 1.19D-03
 Coeff-Com: -0.380D+00 0.926D+00-0.120D+01 0.165D+01
 Coeff-En:   0.000D+00 0.000D+00 0.000D+00 0.100D+01
 Coeff:     -0.380D+00 0.925D+00-0.120D+01 0.165D+01
 Gap=     0.512 Goal=   None    Shift=    0.000
 Gap=     0.488 Goal=   None    Shift=    0.000
 RMSDP=1.41D-04 MaxDP=9.97D-04 DE=-4.89D-05 OVMax= 1.28D-03

 Cycle   5  Pass 1  IDiag  3:
 E= 0.256996923143618E-01 Delta-E=       -0.000001075826 Rises=F Damp=F
 DIIS: error= 2.70D-05 at cycle   5 NSaved=   5.
 NSaved= 5 IEnMin= 5 EnMin= 0.256996923143618E-01 IErMin= 5 ErrMin= 2.70D-05
 ErrMax= 2.70D-05  0.00D+00 EMaxC= 1.00D-01 BMatC= 3.39D-08 BMatP= 6.05D-07
 IDIUse=1 WtCom= 1.00D+00 WtEn= 0.00D+00
 Coeff-Com:  0.177D+00-0.431D+00 0.566D+00-0.900D+00 0.159D+01
 Coeff:      0.177D+00-0.431D+00 0.566D+00-0.900D+00 0.159D+01
 Gap=     0.512 Goal=   None    Shift=    0.000
 Gap=     0.488 Goal=   None    Shift=    0.000
 RMSDP=3.02D-05 MaxDP=1.82D-04 DE=-1.08D-06 OVMax= 3.12D-04

 Cycle   6  Pass 1  IDiag  3:
 E= 0.256996298673400E-01 Delta-E=       -0.000000062447 Rises=F Damp=F
 DIIS: error= 1.10D-05 at cycle   6 NSaved=   6.
 NSaved= 6 IEnMin= 6 EnMin= 0.256996298673400E-01 IErMin= 6 ErrMin= 1.10D-05
 ErrMax= 1.10D-05  0.00D+00 EMaxC= 1.00D-01 BMatC= 3.69D-09 BMatP= 3.39D-08
 IDIUse=1 WtCom= 1.00D+00 WtEn= 0.00D+00
 Coeff-Com: -0.756D-01 0.184D+00-0.242D+00 0.407D+00-0.956D+00 0.168D+01
 Coeff:     -0.756D-01 0.184D+00-0.242D+00 0.407D+00-0.956D+00 0.168D+01
 Gap=     0.512 Goal=   None    Shift=    0.000
 Gap=     0.488 Goal=   None    Shift=    0.000
 RMSDP=1.20D-05 MaxDP=8.26D-05 DE=-6.24D-08 OVMax= 1.32D-04

 Cycle   7  Pass 1  IDiag  3:
 E= 0.256996217480179E-01 Delta-E=       -0.000000008119 Rises=F Damp=F
 DIIS: error= 3.06D-06 at cycle   7 NSaved=   7.
 NSaved= 7 IEnMin= 7 EnMin= 0.256996217480179E-01 IErMin= 7 ErrMin= 3.06D-06
 ErrMax= 3.06D-06  0.00D+00 EMaxC= 1.00D-01 BMatC= 2.93D-10 BMatP= 3.69D-09
 IDIUse=1 WtCom= 1.00D+00 WtEn= 0.00D+00
 Coeff-Com:  0.820D-02-0.197D-01 0.269D-01-0.547D-01 0.185D+00-0.649D+00
 Coeff-Com:  0.150D+01
 Coeff:      0.820D-02-0.197D-01 0.269D-01-0.547D-01 0.185D+00-0.649D+00
 Coeff:      0.150D+01
 Gap=     0.512 Goal=   None    Shift=    0.000
 Gap=     0.488 Goal=   None    Shift=    0.000
 RMSDP=3.91D-06 MaxDP=2.80D-05 DE=-8.12D-09 OVMax= 4.23D-05

 Cycle   8  Pass 1  IDiag  3:
 E= 0.256996210805625E-01 Delta-E=       -0.000000000667 Rises=F Damp=F
 DIIS: error= 5.69D-07 at cycle   8 NSaved=   8.
 NSaved= 8 IEnMin= 8 EnMin= 0.256996210805625E-01 IErMin= 8 ErrMin= 5.69D-07
 ErrMax= 5.69D-07  0.00D+00 EMaxC= 1.00D-01 BMatC= 1.70D-11 BMatP= 2.93D-10
 IDIUse=1 WtCom= 1.00D+00 WtEn= 0.00D+00
 Coeff-Com:  0.656D-03-0.175D-02 0.178D-02 0.336D-02-0.481D-01 0.299D+00
 Coeff-Com: -0.937D+00 0.168D+01
 Coeff:      0.656D-03-0.175D-02 0.178D-02 0.336D-02-0.481D-01 0.299D+00
 Coeff:     -0.937D+00 0.168D+01
 Gap=     0.512 Goal=   None    Shift=    0.000
 Gap=     0.488 Goal=   None    Shift=    0.000
 RMSDP=7.50D-07 MaxDP=4.10D-06 DE=-6.67D-10 OVMax= 6.02D-06

 Cycle   9  Pass 1  IDiag  3:
 E= 0.256996210501867E-01 Delta-E=       -0.000000000030 Rises=F Damp=F
 DIIS: error= 1.16D-07 at cycle   9 NSaved=   9.
 NSaved= 9 IEnMin= 9 EnMin= 0.256996210501867E-01 IErMin= 9 ErrMin= 1.16D-07
 ErrMax= 1.16D-07  0.00D+00 EMaxC= 1.00D-01 BMatC= 8.24D-13 BMatP= 1.70D-11
 IDIUse=1 WtCom= 1.00D+00 WtEn= 0.00D+00
 Coeff-Com: -0.374D-04 0.186D-03 0.702D-04-0.388D-02 0.329D-01-0.188D+00
 Coeff-Com:  0.584D+00-0.115D+01 0.173D+01
 Coeff:     -0.374D-04 0.186D-03 0.702D-04-0.388D-02 0.329D-01-0.188D+00
 Coeff:      0.584D+00-0.115D+01 0.173D+01
 Gap=     0.512 Goal=   None    Shift=    0.000
 Gap=     0.488 Goal=   None    Shift=    0.000
 RMSDP=1.61D-07 MaxDP=9.58D-07 DE=-3.04D-11 OVMax= 1.58D-06

 Cycle  10  Pass 1  IDiag  3:
 E= 0.256996210487372E-01 Delta-E=       -0.000000000001 Rises=F Damp=F
 DIIS: error= 2.23D-08 at cycle  10 NSaved=  10.
 NSaved=10 IEnMin=10 EnMin= 0.256996210487372E-01 IErMin=10 ErrMin= 2.23D-08
 ErrMax= 2.23D-08  0.00D+00 EMaxC= 1.00D-01 BMatC= 4.08D-14 BMatP= 8.24D-13
 IDIUse=1 WtCom= 1.00D+00 WtEn= 0.00D+00
 Coeff-Com:  0.937D-04-0.294D-03 0.170D-03 0.233D-02-0.222D-01 0.130D+00
 Coeff-Com: -0.405D+00 0.809D+00-0.133D+01 0.182D+01
 Coeff:      0.937D-04-0.294D-03 0.170D-03 0.233D-02-0.222D-01 0.130D+00
 Coeff:     -0.405D+00 0.809D+00-0.133D+01 0.182D+01
 Gap=     0.512 Goal=   None    Shift=    0.000
 Gap=     0.488 Goal=   None    Shift=    0.000
 RMSDP=3.34D-08 MaxDP=1.59D-07 DE=-1.45D-12 OVMax= 2.28D-07

 Cycle  11  Pass 1  IDiag  3:
 E= 0.256996210486733E-01 Delta-E=       -0.000000000000 Rises=F Damp=F
 DIIS: error= 5.39D-09 at cycle  11 NSaved=  11.
 NSaved=11 IEnMin=11 EnMin= 0.256996210486733E-01 IErMin=11 ErrMin= 5.39D-09
 ErrMax= 5.39D-09  0.00D+00 EMaxC= 1.00D-01 BMatC= 1.40D-15 BMatP= 4.08D-14
 IDIUse=1 WtCom= 1.00D+00 WtEn= 0.00D+00
 Coeff-Com: -0.341D-04 0.112D-03-0.546D-04-0.104D-02 0.965D-02-0.564D-01
 Coeff-Com:  0.175D+00-0.350D+00 0.589D+00-0.917D+00 0.155D+01
 Coeff:     -0.341D-04 0.112D-03-0.546D-04-0.104D-02 0.965D-02-0.564D-01
 Coeff:      0.175D+00-0.350D+00 0.589D+00-0.917D+00 0.155D+01
 Gap=     0.512 Goal=   None    Shift=    0.000
 Gap=     0.488 Goal=   None    Shift=    0.000
 RMSDP=5.44D-09 MaxDP=2.99D-08 DE=-6.39D-14 OVMax= 3.87D-08

 Cycle  12  Pass 2  IDiag  1:
 SCF Done:  E(UPM6) =  0.256996210487E-01 A.U. after   12 cycles
            NFock= 11  Conv=0.54D-08     -V/T= 1.0014
 <Sx>= 0.0000 <Sy>= 0.0000 <Sz>= 0.5000 <S**2>= 0.7543 S= 0.5022
 <L.S>= 0.000000000000E+00
 KE=-1.811774456062D+01 PE=-3.577999633266D+01 EE= 2.299834691734D+01
 Annihilation of the first spin contaminant:
 S**2 before annihilation     0.7543,   after     0.7500
 Leave Link  502 at Wed Oct 21 14:25:14 2020, MaxMem=  2684354560 cpu:               7.8 elap:               1.4
 (Enter /udrive/faculty/rpeverati/g16/g16/l508.exe)
 QCSCF skips out because SCF is already converged.
 Leave Link  508 at Wed Oct 21 14:25:15 2020, MaxMem=  2684354560 cpu:               0.7 elap:               0.7
 (Enter /udrive/faculty/rpeverati/g16/g16/l701.exe)
 ... and contract with generalized density number  0.
 Compute integral first derivatives.
 Leave Link  701 at Wed Oct 21 14:25:17 2020, MaxMem=  2684354560 cpu:               4.1 elap:               1.0
 (Enter /udrive/faculty/rpeverati/g16/g16/l702.exe)
 L702 exits ... SP integral derivatives will be done elsewhere.
 Leave Link  702 at Wed Oct 21 14:25:18 2020, MaxMem=  2684354560 cpu:               2.4 elap:               0.9
 (Enter /udrive/faculty/rpeverati/g16/g16/l703.exe)
 Integral derivatives from FoFJK, PRISM(SPDF).
 Compute integral first derivatives, UseDBF=F ICtDFT=           0.
 Calling FoFJK, ICntrl=      2127 FMM=F ISym2X=1 I1Cent= 0 IOpClX= 1 NMat=1 NMatS=1 NMatT=0.
 FoFJK:  IHMeth=40 ICntrl=    2127 DoSepK=F KAlg= 0 I1Cent=           0 FoldK=F
 IRaf=         0 NMat=       1 IRICut=       1 DoRegI=T DoRafI=F ISym2E= 1 IDoP0=3 IntGTp=3.
 FoFCou: FMM=F IPFlag=           0 FMFlag=      100000 FMFlg1=         800
         NFxFlg=           0 DoJE=F BraDBF=F KetDBF=F FulRan=T
         wScrn=  0.000000 ICntrl=      2127 IOpCl=  1 I1Cent=           0 NGrid=           0
         NMat0=    1 NMatS0=      1 NMatT0=    0 NMatD0=    1 NMtDS0=    0 NMtDT0=    0
 Petite list used in FoFCou.
 Leave Link  703 at Wed Oct 21 14:25:19 2020, MaxMem=  2684354560 cpu:               3.3 elap:               0.9
 (Enter /udrive/faculty/rpeverati/g16/g16/l716.exe)
 Dipole        = 1.06630340D-02-1.73266873D-01 3.33066907D-15
 ***** Axes restored to original set *****
 -------------------------------------------------------------------
 Center     Atomic                   Forces (Hartrees/Bohr)
 Number     Number              X              Y              Z
 -------------------------------------------------------------------
      1        6          -0.000188794    0.000330995   -0.000000000
      2        6          -0.002918152    0.004484439   -0.000000000
      3        1           0.001836191   -0.001396643   -0.000000000
      4        1          -0.000694757   -0.001973935    0.000986191
      5        1          -0.000694757   -0.001973935   -0.000986191
      6        1           0.001330135    0.000264540    0.000826171
      7        1           0.001330135    0.000264540   -0.000826171
 -------------------------------------------------------------------
 Cartesian Forces:  Max     0.004484439 RMS     0.001540565
 Leave Link  716 at Wed Oct 21 14:25:20 2020, MaxMem=  2684354560 cpu:               1.9 elap:               0.8
 (Enter /udrive/faculty/rpeverati/g16/g16/l103.exe)

 GradGradGradGradGradGradGradGradGradGradGradGradGradGradGradGradGradGrad
 Berny optimization.
 Optmz: redundant internal coordinate code flag= 1
 Using GEDIIS/GDIIS optimizer.
 Red2BG:  D1=  2.85D-01 OD1=  3.40D-01 B2RMS=  0.00D+00 IAprox=0
 FormGI is forming the generalized inverse of G from B-inverse, IUseBI=4.
 Internal  Forces:  Max     0.005000983 RMS     0.001568451
 Search for a local minimum.
 Step number   2 out of a maximum of  100
 All quantities printed in internal units (Hartrees-Bohrs-Radians)
 RMS Force = .15685D-02 SwitMx=.10000D-02 MixMth= 1
 Mixed Optimization -- RFO/linear search
 Update second derivatives using D2CorX and points    1    2
 DE= -9.55D-04 DEPred=-1.42D-03 R= 6.74D-01
 TightC=F SS=  1.41D+00  RLast= 2.96D-01 DXNew= 5.0454D-01 8.8766D-01
 Trust test= 6.74D-01 RLast= 2.96D-01 DXMaxT set to 5.05D-01
 The second derivative matrix:
                          R1        R2        R3        R4        R5
           R1           0.35298
           R2           0.01779   0.33876
           R3           0.01692  -0.00392   0.34190
           R4           0.01692  -0.00392  -0.00618   0.34190
           R5          -0.01057   0.00670   0.00845   0.00845   0.35137
           R6          -0.01057   0.00670   0.00845   0.00845  -0.00916
           A1          -0.00330   0.00341   0.00406   0.00406  -0.00406
           A2           0.01284  -0.00078  -0.00233  -0.00233   0.00442
           A3           0.01284  -0.00078  -0.00233  -0.00233   0.00442
           A4          -0.00787  -0.00098  -0.00015  -0.00015  -0.00137
           A5          -0.00787  -0.00098  -0.00015  -0.00015  -0.00137
           A6          -0.00841   0.00004   0.00102   0.00102  -0.00246
           A7           0.00671  -0.00006  -0.00084  -0.00084   0.00199
           A8           0.00671  -0.00006  -0.00084  -0.00084   0.00199
           A9          -0.00253  -0.00131  -0.00112  -0.00112   0.00046
           D1          -0.00726  -0.00105  -0.00029  -0.00029  -0.00113
           D2           0.00726   0.00105   0.00029   0.00029   0.00113
           D3          -0.00653  -0.00102  -0.00034  -0.00034  -0.00096
           D4           0.00799   0.00109   0.00025   0.00025   0.00131
           D5          -0.00799  -0.00109  -0.00025  -0.00025  -0.00131
           D6           0.00653   0.00102   0.00034   0.00034   0.00096
                          R6        A1        A2        A3        A4
           R6           0.35137
           A1          -0.00406   0.15826
           A2           0.00442   0.00229   0.15976
           A3           0.00442   0.00229  -0.00024   0.15976
           A4          -0.00137  -0.00088  -0.00087  -0.00087   0.16104
           A5          -0.00137  -0.00088  -0.00087  -0.00087   0.00104
           A6          -0.00246  -0.00133  -0.00017  -0.00017   0.00073
           A7           0.00199   0.00107   0.00012   0.00012  -0.00057
           A8           0.00199   0.00107   0.00012   0.00012  -0.00057
           A9           0.00046   0.00007  -0.00097  -0.00097   0.00067
           D1          -0.00113  -0.00076  -0.00090  -0.00090   0.00101
           D2           0.00113   0.00076   0.00090   0.00090  -0.00101
           D3          -0.00096  -0.00066  -0.00086  -0.00086   0.00093
           D4           0.00131   0.00086   0.00095   0.00095  -0.00108
           D5          -0.00131  -0.00086  -0.00095  -0.00095   0.00108
           D6           0.00096   0.00066   0.00086   0.00086  -0.00093
                          A5        A6        A7        A8        A9
           A5           0.16104
           A6           0.00073   0.16031
           A7          -0.00057  -0.00024   0.16018
           A8          -0.00057  -0.00024   0.00018   0.16018
           A9           0.00067   0.00066  -0.00052  -0.00052   0.16027
           D1           0.00101   0.00074  -0.00058  -0.00058   0.00063
           D2          -0.00101  -0.00074   0.00058   0.00058  -0.00063
           D3           0.00093   0.00069  -0.00055  -0.00055   0.00057
           D4          -0.00108  -0.00078   0.00061   0.00061  -0.00069
           D5           0.00108   0.00078  -0.00061  -0.00061   0.00069
           D6          -0.00093  -0.00069   0.00055   0.00055  -0.00057
                          D1        D2        D3        D4        D5
           D1           0.00982
           D2          -0.00097   0.00982
           D3           0.00090  -0.00090   0.00967
           D4          -0.00105   0.00105  -0.00097   0.00998
           D5           0.00105  -0.00105   0.00097  -0.00113   0.00998
           D6          -0.00090   0.00090  -0.00083   0.00097  -0.00097
                          D6
           D6           0.00967
 ITU=  1  0
 Use linear search instead of GDIIS.
 Eigenvectors of the second derivative matrix:
                           1         2         3         4         5
     Eigenvalues --     0.00884   0.01365   0.07087   0.07361   0.15331
   1         R1        -0.00000  -0.05164  -0.01250  -0.00000  -0.09737
   2         R2         0.00000  -0.00435   0.00381   0.00000   0.02956
   3         R3         0.00000   0.00113   0.00537   0.00000   0.04105
   4         R4         0.00000   0.00113   0.00537   0.00000   0.04105
   5         R5        -0.00000  -0.00999  -0.00650  -0.00000  -0.04874
   6         R6        -0.00000  -0.00999  -0.00650  -0.00000  -0.04874
   7         A1        -0.00000  -0.01512  -0.25955  -0.00000  -0.56890
   8         A2         0.00000  -0.00896   0.13375   0.21207   0.44341
   9         A3         0.00000  -0.00896   0.13375  -0.21207   0.44341
  10         A4         0.00000   0.01249  -0.23630   0.41143   0.07779
  11         A5         0.00000   0.01249  -0.23630  -0.41143   0.07779
  12         A6        -0.00000   0.01021   0.44404   0.00000  -0.50101
  13         A7        -0.00000   0.00962   0.00018  -0.00000   0.01509
  14         A8        -0.00000   0.00962   0.00018   0.00000   0.01509
  15         A9        -0.00000   0.02580  -0.00042   0.00000  -0.03025
  16         D1         0.40825  -0.40732   0.00049  -0.43647   0.00121
  17         D2         0.40825   0.40732  -0.00049  -0.43647  -0.00121
  18         D3         0.40825  -0.40750  -0.38282   0.21823   0.00738
  19         D4         0.40825   0.40714  -0.38380   0.21823   0.00497
  20         D5         0.40825  -0.40714   0.38380   0.21823  -0.00497
  21         D6         0.40825   0.40750   0.38282   0.21823  -0.00738
                           6         7         8         9        10
     Eigenvalues --     0.16000   0.16000   0.16000   0.16395   0.30059
   1         R1        -0.00000   0.00000   0.00000   0.09066  -0.47756
   2         R2        -0.00000  -0.00000  -0.00000   0.00494   0.42195
   3         R3         0.00000  -0.00000   0.00000  -0.00455   0.42039
   4         R4         0.00000  -0.00000   0.00000  -0.00455   0.42039
   5         R5        -0.00000   0.00000   0.00000   0.01849  -0.33134
   6         R6        -0.00000   0.00000   0.00000   0.01849  -0.33134
   7         A1         0.21577  -0.02850   0.05777  -0.54198   0.04606
   8         A2         0.08343   0.46598   0.43412  -0.23963  -0.07343
   9         A3         0.17018  -0.49948  -0.36622  -0.23963  -0.07343
  10         A4        -0.15733  -0.22508  -0.25438   0.41033   0.01792
  11         A5        -0.20204   0.27256   0.15816   0.41033   0.01792
  12         A6        -0.14055   0.01857  -0.03763   0.26630   0.07269
  13         A7        -0.55156  -0.39698   0.41909  -0.17098  -0.01241
  14         A8        -0.15893   0.49083  -0.60932  -0.17098  -0.01241
  15         A9         0.70902  -0.09366   0.18984   0.34008   0.02330
  16         D1        -0.00000   0.00000   0.00000   0.01058   0.01332
  17         D2         0.00000   0.00000   0.00000  -0.01058  -0.01332
  18         D3        -0.00000   0.00000  -0.00000   0.01014   0.01895
  19         D4         0.00000  -0.00000  -0.00000  -0.01103  -0.00769
  20         D5        -0.00000  -0.00000   0.00000   0.01103   0.00769
  21         D6         0.00000  -0.00000  -0.00000  -0.01014  -0.01895
                          11        12        13        14        15
     Eigenvalues --     0.34265   0.34809   0.35575   0.36053   0.37626
   1         R1         0.05602  -0.00000  -0.22593   0.00000  -0.83501
   2         R2        -0.83766  -0.00000   0.10586   0.00000  -0.32886
   3         R3         0.37062   0.70711   0.30375   0.00000  -0.30318
   4         R4         0.37062  -0.70711   0.30375   0.00000  -0.30318
   5         R5        -0.10080   0.00000   0.61365   0.70711   0.02511
   6         R6        -0.10080  -0.00000   0.61365  -0.70711   0.02511
   7         A1         0.00286  -0.00000  -0.00601   0.00000  -0.01221
   8         A2        -0.00626   0.00000   0.00463   0.00000  -0.03885
   9         A3        -0.00626  -0.00000   0.00463   0.00000  -0.03885
  10         A4         0.00209   0.00000   0.00039  -0.00000   0.02803
  11         A5         0.00209   0.00000   0.00039  -0.00000   0.02803
  12         A6         0.00619  -0.00000  -0.00433  -0.00000   0.04008
  13         A7        -0.00128   0.00000   0.00017   0.00000  -0.01395
  14         A8        -0.00128  -0.00000   0.00017   0.00000  -0.01395
  15         A9         0.00238   0.00000  -0.00032  -0.00000   0.02578
  16         D1         0.00156  -0.00000  -0.00016  -0.00000   0.01872
  17         D2        -0.00156  -0.00000   0.00016   0.00000  -0.01872
  18         D3         0.00205   0.00000  -0.00068  -0.00000   0.02066
  19         D4        -0.00108  -0.00000  -0.00036   0.00000  -0.01679
  20         D5         0.00108   0.00000   0.00036  -0.00000   0.01679
  21         D6        -0.00205  -0.00000   0.00068   0.00000  -0.02066
 Iter=   1 RLamda= 0.00000000D+00 Sum=-1.57155442D-04.
 Iter=   2 RLamda=-1.57155442D-04 Sum=-1.56762916D-04.
 Iter=   3 RLamda=-1.56762916D-04 Sum=-1.56763888D-04.
 RFO step:  Lambda=-1.56762916D-04 EMin= 8.84451838D-03
 Quartic linear search produced a step of -0.21001.
 Iteration  1 RMS(Cart)=  0.01551910 RMS(Int)=  0.00043654
 Iteration  2 RMS(Cart)=  0.00035897 RMS(Int)=  0.00023528
 Iteration  3 RMS(Cart)=  0.00000010 RMS(Int)=  0.00023528
 ITry= 1 IFail=0 DXMaxC= 3.76D-02 DCOld= 1.00D+10 DXMaxT= 5.05D-01 DXLimC= 3.00D+00 Rises=F
 ClnCor:  largest displacement from symmetrization is 6.86D-14 for atom     5.
 Variable       Old X    -DE/DX   Delta X   Delta X   Delta X     New X
                                 (Linear)    (Quad)   (Total)
    R1        2.76200   0.00500   0.01169  -0.00488   0.00681   2.76881
    R2        2.07833   0.00223  -0.00123   0.00693   0.00570   2.08404
    R3        2.07221   0.00182  -0.00259   0.00785   0.00526   2.07747
    R4        2.07221   0.00182  -0.00259   0.00785   0.00526   2.07747
    R5        2.02010  -0.00059   0.00417  -0.00726  -0.00308   2.01702
    R6        2.02010  -0.00059   0.00417  -0.00726  -0.00308   2.01702
    A1        1.92525   0.00017   0.00475  -0.00663  -0.00187   1.92338
    A2        1.95210   0.00157  -0.00125   0.00986   0.00859   1.96069
    A3        1.95210   0.00157  -0.00125   0.00986   0.00859   1.96069
    A4        1.87082  -0.00101  -0.00126  -0.00368  -0.00493   1.86589
    A5        1.87082  -0.00101  -0.00126  -0.00368  -0.00493   1.86589
    A6        1.88903  -0.00154   0.00017  -0.00683  -0.00670   1.88233
    A7        2.10852   0.00051  -0.00017   0.00225   0.00271   2.11122
    A8        2.10852   0.00051  -0.00017   0.00225   0.00271   2.11122
    A9        2.06433  -0.00093  -0.00177  -0.00257  -0.00373   2.06061
    D1        1.60379  -0.00076  -0.02463  -0.01741  -0.04205   1.56174
    D2       -1.60379   0.00076   0.02463   0.01741   0.04205  -1.56174
    D3       -2.59893  -0.00090  -0.02386  -0.02006  -0.04394  -2.64287
    D4        0.47668   0.00063   0.02541   0.01476   0.04015   0.51683
    D5       -0.47668  -0.00063  -0.02541  -0.01476  -0.04015  -0.51683
    D6        2.59893   0.00090   0.02386   0.02006   0.04394   2.64287
         Item               Value     Threshold  Converged?
 Maximum Force            0.005001     0.000450     NO 
 RMS     Force            0.001568     0.000300     NO 
 Maximum Displacement     0.037602     0.001800     NO 
 RMS     Displacement     0.015452     0.001200     NO 
 Predicted change in Energy=-1.659860D-04
 Lowest energy point so far.  Saving SCF results.
 Largest change from initial coordinates is atom    6       0.085 Angstoms.
 GradGradGradGradGradGradGradGradGradGradGradGradGradGradGradGradGradGrad

 Leave Link  103 at Wed Oct 21 14:25:22 2020, MaxMem=  2684354560 cpu:               6.0 elap:               1.1
 (Enter /udrive/faculty/rpeverati/g16/g16/l202.exe)
                          Input orientation:                          
 ---------------------------------------------------------------------
 Center     Atomic      Atomic             Coordinates (Angstroms)
 Number     Number       Type             X           Y           Z
 ---------------------------------------------------------------------
      1          6           0       -0.010186   -0.681540   -0.000000
      2          6           0        0.028990    0.783128    0.000000
      3          1           0        1.014246   -1.089906   -0.000000
      4          1           0       -0.515608   -1.086025    0.888543
      5          1           0       -0.515608   -1.086025   -0.888543
      6          1           0        0.051958    1.331867   -0.915214
      7          1           0        0.051958    1.331867    0.915214
 ---------------------------------------------------------------------
                    Distance matrix (angstroms):
                    1          2          3          4          5
     1  C    0.000000
     2  C    1.465191   0.000000
     3  H    1.102825   2.116361   0.000000
     4  H    1.099349   2.140053   1.769174   0.000000
     5  H    1.099349   2.140053   1.769174   1.777086   0.000000
     6  H    2.212529   1.067361   2.761992   3.069507   2.483756
     7  H    2.212529   1.067361   2.761992   2.483756   3.069507
                    6          7
     6  H    0.000000
     7  H    1.830428   0.000000
 Stoichiometry    C2H5(2)
 Framework group  CS[SG(C2H),X(H4)]
 Deg. of freedom     9
 Full point group                 CS      NOp   2
 RotChk:  IX=0 Diff= 1.31D-02
 Largest Abelian subgroup         CS      NOp   2
 Largest concise Abelian subgroup CS      NOp   2
                         Standard orientation:                         
 ---------------------------------------------------------------------
 Center     Atomic      Atomic             Coordinates (Angstroms)
 Number     Number       Type             X           Y           Z
 ---------------------------------------------------------------------
      1          6           0       -0.003689   -0.682548    0.000000
      2          6           0       -0.003689    0.782644   -0.000000
      3          1           0        1.031296   -1.063377    0.000000
      4          1           0       -0.498115   -1.100402    0.888543
      5          1           0       -0.498115   -1.100402   -0.888543
      6          1           0        0.004599    1.331801   -0.915214
      7          1           0        0.004599    1.331801    0.915214
 ---------------------------------------------------------------------
 Rotational constants (GHZ):         104.1583088          23.3362411          21.6308542
 Leave Link  202 at Wed Oct 21 14:25:23 2020, MaxMem=  2684354560 cpu:               2.1 elap:               0.9
 (Enter /udrive/faculty/rpeverati/g16/g16/l301.exe)
 Standard basis: VSTO-6G (5D, 7F)
 Ernie: Thresh=  0.10000D-02 Tol=  0.10000D-05 Strict=F.
  NNHCO=     0 NNPyr=     0 NCTC=     0               EPep=         0.000000000
    EC=        18.220805035  ECS=         1.099135114   EG=         0.080469838
   EHC=         0.000191168  EAt=       -10.533750842  AtH=         0.959810210
 EPDDG=         0.000000000  ECC=        19.400601155 EAtT=        11.493561052
 There are     9 symmetry adapted cartesian basis functions of A'  symmetry.
 There are     4 symmetry adapted cartesian basis functions of A"  symmetry.
 There are     9 symmetry adapted basis functions of A'  symmetry.
 There are     4 symmetry adapted basis functions of A"  symmetry.
    13 basis functions,    78 primitive gaussians,    13 cartesian basis functions
     7 alpha electrons        6 beta electrons
       nuclear repulsion energy        30.8941622068 Hartrees.
 IExCor=    0 DFT=F Ex=HF Corr=None ExCW=0 ScaHFX=  1.000000
 ScaDFX=  1.000000  1.000000  1.000000  1.000000 ScalE2=  1.000000  1.000000
 IRadAn=      5 IRanWt=     -1 IRanGd=            0 ICorTp=0 IEmpDi=  4
 Integral buffers will be    131072 words long.
 Regular integral format.
 Two-electron integral symmetry is turned off.
 Leave Link  301 at Wed Oct 21 14:25:24 2020, MaxMem=  2684354560 cpu:               5.4 elap:               1.1
 (Enter /udrive/faculty/rpeverati/g16/g16/l302.exe)
 Do NDO integrals.
 NPDir=0 NMtPBC=     1 NCelOv=     1 NCel=       1 NClECP=     1 NCelD=      1
         NCelK=      1 NCelE2=     1 NClLst=     1 CellRange=     0.0.
 One-electron integrals computed using PRISM.
 NBasis=    13 RedAO= T EigKep=  1.00D+00  NBF=     9     4
 NBsUse=    13 1.00D-06 EigRej= -1.00D+00 NBFU=     9     4
 Leave Link  302 at Wed Oct 21 14:25:26 2020, MaxMem=  2684354560 cpu:               3.5 elap:               0.9
 (Enter /udrive/faculty/rpeverati/g16/g16/l303.exe)
 DipDrv:  MaxL=1.
 Leave Link  303 at Wed Oct 21 14:25:27 2020, MaxMem=  2684354560 cpu:               3.0 elap:               1.0
 (Enter /udrive/faculty/rpeverati/g16/g16/l401.exe)
 Initial guess from the checkpoint file:  "MN_12_c2h5_lower_BH76_PM6_SE.chk"
 SCF N**3 symmetry information disabled.
 B after Tr=     0.000000   -0.000000   -0.000000
         Rot=    0.999996   -0.000000   -0.000000    0.002772 Ang=   0.32 deg.
 Guess basis will be translated and rotated to current coordinates.
 JPrj=0 DoOrth=T DoCkMO=T.
 Initial guess orbital symmetries:
 Alpha Orbitals:
       Occupied  (A') (A') (A") (A') (A') (A") (A')
       Virtual   (A') (A") (A') (A') (A") (A')
 Beta  Orbitals:
       Occupied  (A') (A') (A") (A') (A') (A")
       Virtual   (A') (A') (A") (A') (A') (A") (A')
 The electronic state of the initial guess is 2-A'.
 Initial guess <Sx>= 0.0000 <Sy>= 0.0000 <Sz>= 0.5000 <S**2>= 0.7543 S= 0.5022
 Leave Link  401 at Wed Oct 21 14:25:28 2020, MaxMem=  2684354560 cpu:               3.4 elap:               0.9
 (Enter /udrive/faculty/rpeverati/g16/g16/l502.exe)
[...]
                          A5        A6        A7        A8        A9
           A5           0.16018
           A6          -0.00390   0.13617
           A7           0.00063   0.00278   0.15944
           A8           0.00063   0.00278  -0.00056   0.15944
           A9          -0.00081  -0.00696   0.00006   0.00006   0.15911
           D1           0.00009   0.00002  -0.00005  -0.00005  -0.00032
           D2          -0.00009  -0.00002   0.00005   0.00005   0.00032
           D3          -0.00079  -0.00217  -0.00009  -0.00009  -0.00050
           D4          -0.00096  -0.00221   0.00001   0.00001   0.00015
           D5           0.00096   0.00221  -0.00001  -0.00001  -0.00015
           D6           0.00079   0.00217   0.00009   0.00009   0.00050
                          D1        D2        D3        D4        D5
           D1           0.01058
           D2          -0.00174   0.01058
           D3           0.00189  -0.00189   0.01140
           D4          -0.00158   0.00158  -0.00124   0.01078
           D5           0.00158  -0.00158   0.00124  -0.00193   0.01078
           D6          -0.00189   0.00189  -0.00255   0.00124  -0.00124
                          D6
           D6           0.01140
 ITU=  1  1  1  1  0
 Eigenvectors of the second derivative matrix:
                           1         2         3         4         5
     Eigenvalues --     0.00884   0.01925   0.06952   0.07309   0.10857
   1         R1         0.00000   0.00257  -0.01002   0.00000   0.18808
   2         R2        -0.00000   0.00076   0.01197   0.00000  -0.14189
   3         R3        -0.00000   0.00131  -0.00158   0.00000  -0.02102
   4         R4        -0.00000   0.00131  -0.00158   0.00000  -0.02102
   5         R5         0.00000  -0.00406   0.00872  -0.00000  -0.00457
   6         R6         0.00000  -0.00406   0.00872  -0.00000  -0.00457
   7         A1        -0.00000  -0.00205   0.25873  -0.00000   0.01108
   8         A2        -0.00000   0.00207  -0.09409   0.21185  -0.47839
   9         A3        -0.00000   0.00207  -0.09409  -0.21185  -0.47839
  10         A4         0.00000  -0.00404   0.21364   0.40944   0.26494
  11         A5         0.00000  -0.00404   0.21364  -0.40944   0.26494
  12         A6         0.00000   0.00551  -0.47940   0.00000   0.49692
  13         A7        -0.00000   0.00109   0.01305   0.00000  -0.12578
  14         A8        -0.00000   0.00109   0.01305   0.00000  -0.12578
  15         A9         0.00000   0.00663  -0.02598  -0.00000   0.25154
  16         D1         0.40825   0.40819   0.00550  -0.43778   0.00011
  17         D2         0.40825  -0.40819  -0.00550  -0.43778  -0.00011
  18         D3         0.40825   0.40304   0.39041   0.21889   0.02969
  19         D4         0.40825  -0.41335   0.37942   0.21889   0.02947
  20         D5         0.40825   0.41335  -0.37942   0.21889  -0.02947
  21         D6         0.40825  -0.40304  -0.39041   0.21889  -0.02969
                           6         7         8         9        10
     Eigenvalues --     0.15944   0.16000   0.16000   0.16107   0.31723
   1         R1         0.04385  -0.00000  -0.00000  -0.03176  -0.17127
   2         R2         0.00523  -0.00000  -0.00000   0.00676   0.74076
   3         R3         0.01894  -0.00000  -0.00000  -0.00521   0.41705
   4         R4         0.01894  -0.00000  -0.00000  -0.00521   0.41705
   5         R5        -0.01487   0.00000   0.00000  -0.00466  -0.15612
   6         R6        -0.01487   0.00000   0.00000  -0.00466  -0.15612
   7         A1        -0.80219   0.00000   0.00000  -0.13827   0.01377
   8         A2         0.15197  -0.44707  -0.44107  -0.14236  -0.07827
   9         A3         0.15197   0.44707   0.44107  -0.14236  -0.07827
  10         A4         0.35571   0.23132   0.22821   0.14595   0.03471
  11         A5         0.35571  -0.23132  -0.22821   0.14595   0.03471
  12         A6        -0.17694   0.00000   0.00000   0.16542   0.08554
  13         A7        -0.06164  -0.49661   0.50337   0.38064  -0.02286
  14         A8        -0.06164   0.49661  -0.50337   0.38064  -0.02286
  15         A9         0.12328  -0.00000  -0.00000  -0.76118   0.04569
  16         D1         0.00027   0.00000   0.00000   0.00196  -0.00103
  17         D2        -0.00027  -0.00000  -0.00000  -0.00196   0.00103
  18         D3         0.00341  -0.00000  -0.00000  -0.00076   0.00102
  19         D4         0.00286  -0.00000  -0.00000  -0.00467   0.00309
  20         D5        -0.00286   0.00000   0.00000   0.00467  -0.00309
  21         D6        -0.00341   0.00000   0.00000   0.00076  -0.00102
                          11        12        13        14        15
     Eigenvalues --     0.32946   0.34809   0.35361   0.36053   0.47051
   1         R1        -0.11623   0.00000   0.25696  -0.00000   0.92343
   2         R2         0.56734  -0.00000   0.29053   0.00000   0.15696
   3         R3        -0.38720   0.70711  -0.39408  -0.00000   0.14146
   4         R4        -0.38720  -0.70711  -0.39408  -0.00000   0.14146
   5         R5         0.42126  -0.00000  -0.51858  -0.70711   0.16995
   6         R6         0.42126  -0.00000  -0.51858   0.70711   0.16995
   7         A1        -0.02631  -0.00000   0.01270   0.00000   0.02960
   8         A2        -0.03840   0.00000   0.01209   0.00000   0.06158
   9         A3        -0.03840   0.00000   0.01209   0.00000   0.06158
  10         A4         0.03120  -0.00000  -0.01168  -0.00000  -0.04989
  11         A5         0.03120  -0.00000  -0.01168  -0.00000  -0.04989
  12         A6         0.04896  -0.00000  -0.01643  -0.00000  -0.06574
  13         A7        -0.01728   0.00000   0.00376  -0.00000   0.03432
  14         A8        -0.01728   0.00000   0.00376  -0.00000   0.03432
  15         A9         0.03458  -0.00000  -0.00756   0.00000  -0.06864
  16         D1         0.00168  -0.00000  -0.00164   0.00000  -0.00057
  17         D2        -0.00168   0.00000   0.00164  -0.00000   0.00057
  18         D3        -0.00190  -0.00000   0.00016   0.00000  -0.00321
  19         D4        -0.00526   0.00000   0.00343   0.00000  -0.00207
  20         D5         0.00526  -0.00000  -0.00343  -0.00000   0.00207
  21         D6         0.00190   0.00000  -0.00016  -0.00000   0.00321
 DoSqrt=T IScMMF=    -3 MM Scaling Factor =       0.00000
 En-DIIS/RFO-DIIS/Sim-DIIS IScMMF=       -3 using points:     5    4    3
 Iter=   1 RLamda=-4.11554816D-02 Sum=-4.64851410D-08.
 Iter=   2 RLamda=-4.64851410D-08 Sum=-5.84021834D-08.
 Iter=   3 RLamda=-5.84021834D-08 Sum=-5.84021761D-08.
 RFO step:  Lambda=-5.84021834D-08.
 NNeg= 0 NGDIIS= 3 SimSw=  2.50D-01 Rises=F DC= -1.04D-06 SmlDif=  1.00D-05
 NRisDI= 0 DoIntr=F SqrtH=F CThrHd= 10.0 CDAdj=  3.0
 RMS Error=  0.1699176944D-03 NUsed= 3 OKEnD=F EnDIS=F
 Total RFO-DIIS matrix:
                 1             2             3             4 
      1   0.000000D+00 -0.100000D+01 -0.100000D+01 -0.100000D+01
      2  -0.100000D+01  0.606312D-06 -0.212784D-05  0.521956D-05
      3  -0.100000D+01 -0.212784D-05  0.222179D-04 -0.179471D-04
      4  -0.100000D+01  0.521956D-05 -0.179471D-04  0.121991D-03
 InvSVX:  RCond= 2.42D-06 Info=           0 Equed=N FErr=  1.58D-15 BErr=  1.05D-16
 DidBck=F Rises=F RFO-DIIS coefs:    0.94529    0.08108   -0.02636
 Iteration  1 RMS(Cart)=  0.00009997 RMS(Int)=  0.00000005
 Iteration  2 RMS(Cart)=  0.00000001 RMS(Int)=  0.00000005
 ITry= 1 IFail=0 DXMaxC= 2.46D-04 DCOld= 1.00D+10 DXMaxT= 5.05D-01 DXLimC= 3.00D+00 Rises=F
 ClnCor:  largest displacement from symmetrization is 1.86D-14 for atom     5.
 Variable       Old X    -DE/DX   Delta X   Delta X   Delta X     New X
                                 (Linear)    (Quad)   (Total)
    R1        2.76908  -0.00005   0.00016  -0.00029  -0.00013   2.76895
    R2        2.08686  -0.00004   0.00004  -0.00015  -0.00010   2.08676
    R3        2.07776  -0.00003   0.00003  -0.00012  -0.00010   2.07766
    R4        2.07776  -0.00003   0.00003  -0.00012  -0.00010   2.07766
    R5        2.01712   0.00007   0.00000   0.00020   0.00020   2.01732
    R6        2.01712   0.00007   0.00000   0.00020   0.00020   2.01732
    A1        1.92495  -0.00000   0.00003  -0.00004  -0.00000   1.92495
    A2        1.96404   0.00000   0.00005  -0.00001   0.00004   1.96408
    A3        1.96404   0.00000   0.00005  -0.00001   0.00004   1.96408
    A4        1.86394  -0.00000  -0.00004   0.00001  -0.00003   1.86391
    A5        1.86394  -0.00000  -0.00004   0.00001  -0.00003   1.86391
    A6        1.87733  -0.00000  -0.00006   0.00004  -0.00002   1.87731
    A7        2.11205   0.00001   0.00002   0.00007   0.00009   2.11214
    A8        2.11205   0.00001   0.00002   0.00007   0.00009   2.11214
    A9        2.05902  -0.00002  -0.00003  -0.00014  -0.00017   2.05885
    D1        1.56431   0.00001   0.00022   0.00004   0.00027   1.56458
    D2       -1.56431  -0.00001  -0.00022  -0.00004  -0.00027  -1.56458
    D3       -2.63950   0.00000   0.00022   0.00003   0.00025  -2.63925
    D4        0.51506  -0.00001  -0.00022  -0.00006  -0.00028   0.51478
    D5       -0.51506   0.00001   0.00022   0.00006   0.00028  -0.51478
    D6        2.63950  -0.00000  -0.00022  -0.00003  -0.00025   2.63925
         Item               Value     Threshold  Converged?
 Maximum Force            0.000067     0.000450     YES
 RMS     Force            0.000027     0.000300     YES
 Maximum Displacement     0.000246     0.001800     YES
 RMS     Displacement     0.000100     0.001200     YES
 Predicted change in Energy=-2.919957D-08
 Optimization completed.
    -- Stationary point found.
                           ----------------------------
                           !   Optimized Parameters   !
                           ! (Angstroms and Degrees)  !
 --------------------------                            --------------------------
 ! Name  Definition              Value          Derivative Info.                !
 --------------------------------------------------------------------------------
 ! R1    R(1,2)                  1.4653         -DE/DX =    0.0                 !
 ! R2    R(1,3)                  1.1043         -DE/DX =    0.0                 !
 ! R3    R(1,4)                  1.0995         -DE/DX =    0.0                 !
 ! R4    R(1,5)                  1.0995         -DE/DX =    0.0                 !
 ! R5    R(2,6)                  1.0674         -DE/DX =    0.0001              !
 ! R6    R(2,7)                  1.0674         -DE/DX =    0.0001              !
 ! A1    A(2,1,3)              110.2917         -DE/DX =    0.0                 !
 ! A2    A(2,1,4)              112.5313         -DE/DX =    0.0                 !
 ! A3    A(2,1,5)              112.5313         -DE/DX =    0.0                 !
 ! A4    A(3,1,4)              106.7959         -DE/DX =    0.0                 !
 ! A5    A(3,1,5)              106.7959         -DE/DX =    0.0                 !
 ! A6    A(4,1,5)              107.563          -DE/DX =    0.0                 !
 ! A7    A(1,2,6)              121.0113         -DE/DX =    0.0                 !
 ! A8    A(1,2,7)              121.0113         -DE/DX =    0.0                 !
 ! A9    A(6,2,7)              117.9733         -DE/DX =    0.0                 !
 ! D1    D(3,1,2,6)             89.6286         -DE/DX =    0.0                 !
 ! D2    D(3,1,2,7)            -89.6286         -DE/DX =    0.0                 !
 ! D3    D(4,1,2,6)           -151.2322         -DE/DX =    0.0                 !
 ! D4    D(4,1,2,7)             29.5107         -DE/DX =    0.0                 !
 ! D5    D(5,1,2,6)            -29.5107         -DE/DX =    0.0                 !
 ! D6    D(5,1,2,7)            151.2322         -DE/DX =    0.0                 !
 --------------------------------------------------------------------------------
 Lowest energy point so far.  Saving SCF results.
 Largest change from initial coordinates is atom    6       0.067 Angstoms.
 GradGradGradGradGradGradGradGradGradGradGradGradGradGradGradGradGradGrad

 Leave Link  103 at Wed Oct 21 14:26:08 2020, MaxMem=  2684354560 cpu:               6.3 elap:               1.3
 (Enter /udrive/faculty/rpeverati/g16/g16/l202.exe)
                          Input orientation:                          
 ---------------------------------------------------------------------
 Center     Atomic      Atomic             Coordinates (Angstroms)
 Number     Number       Type             X           Y           Z
 ---------------------------------------------------------------------
      1          6           0       -0.010107   -0.680522   -0.000000
      2          6           0        0.030354    0.784252    0.000000
      3          1           0        1.014709   -1.091955   -0.000000
      4          1           0       -0.516071   -1.088023    0.887045
      5          1           0       -0.516071   -1.088023   -0.887045
      6          1           0        0.051468    1.333819   -0.914825
      7          1           0        0.051468    1.333819    0.914825
 ---------------------------------------------------------------------
                    Distance matrix (angstroms):
                    1          2          3          4          5
     1  C    0.000000
     2  C    1.465332   0.000000
     3  H    1.104321   2.118751   0.000000
     4  H    1.099502   2.142625   1.769224   0.000000
     5  H    1.099502   2.142625   1.769224   1.774090   0.000000
     6  H    2.213202   1.067415   2.765704   3.071507   2.487607
     7  H    2.213202   1.067415   2.765704   2.487607   3.071507
                    6          7
     6  H    0.000000
     7  H    1.829650   0.000000
 Stoichiometry    C2H5(2)
 Framework group  CS[SG(C2H),X(H4)]
 Deg. of freedom     9
 Full point group                 CS      NOp   2
 RotChk:  IX=0 Diff= 3.35D-16
 Largest Abelian subgroup         CS      NOp   2
 Largest concise Abelian subgroup CS      NOp   2
                         Standard orientation:                         
 ---------------------------------------------------------------------
 Center     Atomic      Atomic             Coordinates (Angstroms)
 Number     Number       Type             X           Y           Z
 ---------------------------------------------------------------------
      1          6           0       -0.003448   -0.682172    0.000000
      2          6           0       -0.003448    0.783160   -0.000000
      3          1           0        1.032339   -1.065151    0.000000
      4          1           0       -0.497967   -1.103489    0.887045
      5          1           0       -0.497967   -1.103489   -0.887045
      6          1           0        0.002483    1.333100   -0.914825
      7          1           0        0.002483    1.333100    0.914825
 ---------------------------------------------------------------------
 Rotational constants (GHZ):         104.2654259          23.3043427          21.6113945
 Leave Link  202 at Wed Oct 21 14:26:09 2020, MaxMem=  2684354560 cpu:               2.4 elap:               0.8
 (Enter /udrive/faculty/rpeverati/g16/g16/l601.exe)
 Copying SCF densities to generalized density rwf, IOpCl= 1 IROHF=0.

 **********************************************************************

            Population analysis using the SCF density.

 **********************************************************************

 Orbital symmetries:
 Alpha Orbitals:
       Occupied  (A') (A') (A") (A') (A') (A") (A')
       Virtual   (A') (A") (A') (A') (A") (A')
 Beta  Orbitals:
       Occupied  (A') (A') (A") (A') (A') (A")
       Virtual   (A') (A') (A") (A') (A') (A") (A')
 The electronic state is 2-A'.
 Alpha  occ. eigenvalues --   -0.98083  -0.77515  -0.57157  -0.52282  -0.50380
 Alpha  occ. eigenvalues --   -0.44990  -0.33689
 Alpha virt. eigenvalues --    0.17471   0.20580   0.20864   0.23606   0.23826
 Alpha virt. eigenvalues --    0.24806
  Beta  occ. eigenvalues --   -0.97429  -0.76392  -0.56422  -0.50783  -0.49442
  Beta  occ. eigenvalues --   -0.44493
  Beta virt. eigenvalues --    0.04253   0.18808   0.20715   0.21283   0.24256
  Beta virt. eigenvalues --    0.24614   0.25217
          Condensed to atoms (all electrons):
               1          2          3          4          5          6
     1  C    4.447060   0.000000   0.000000   0.000000   0.000000   0.000000
     2  C    0.000000   4.293220   0.000000   0.000000   0.000000   0.000000
     3  H    0.000000   0.000000   0.836507   0.000000   0.000000   0.000000
     4  H    0.000000   0.000000   0.000000   0.846109   0.000000   0.000000
     5  H    0.000000   0.000000   0.000000   0.000000   0.846109   0.000000
     6  H    0.000000   0.000000   0.000000   0.000000   0.000000   0.865497
     7  H    0.000000   0.000000   0.000000   0.000000   0.000000   0.000000
               7
     1  C    0.000000
     2  C    0.000000
     3  H    0.000000
     4  H    0.000000
     5  H    0.000000
     6  H    0.000000
     7  H    0.865497
          Atomic-Atomic Spin Densities.
               1          2          3          4          5          6
     1  C   -0.051711   0.000000   0.000000   0.000000   0.000000   0.000000
     2  C    0.000000   1.058689   0.000000   0.000000   0.000000   0.000000
     3  H    0.000000   0.000000   0.039400   0.000000   0.000000   0.000000
     4  H    0.000000   0.000000   0.000000   0.011052   0.000000   0.000000
     5  H    0.000000   0.000000   0.000000   0.000000   0.011052   0.000000
     6  H    0.000000   0.000000   0.000000   0.000000   0.000000  -0.034242
     7  H    0.000000   0.000000   0.000000   0.000000   0.000000   0.000000
               7
     1  C    0.000000
     2  C    0.000000
     3  H    0.000000
     4  H    0.000000
     5  H    0.000000
     6  H    0.000000
     7  H   -0.034242
 Mulliken charges and spin densities:
               1          2
     1  C   -0.447060  -0.051711
     2  C   -0.293220   1.058689
     3  H    0.163493   0.039400
     4  H    0.153891   0.011052
     5  H    0.153891   0.011052
     6  H    0.134503  -0.034242
     7  H    0.134503  -0.034242
 Sum of Mulliken charges =  -0.00000   1.00000
 Mulliken charges and spin densities with hydrogens summed into heavy atoms:
               1          2
     1  C    0.024214   0.009795
     2  C   -0.024214   0.990205
 Charge=             -0.0000 electrons
 Dipole moment (field-independent basis, Debye):
    X=              0.1032    Y=             -0.4551    Z=              0.0000  Tot=              0.4667
 N-N= 3.088769402315D+01 E-N=-3.572355458041D+01  KE=-1.811019537241D+01
 Leave Link  601 at Wed Oct 21 14:26:11 2020, MaxMem=  2684354560 cpu:               4.6 elap:               1.1
 (Enter /udrive/faculty/rpeverati/g16/g16/l9999.exe)

 Test job not archived.
 1\1\GINC-NODE06\FOpt\UPM6\ZDO\C2H5(2)\RPEVERATI\21-Oct-2020\0\\#P Opt(
 MaxCyc=150) PM6 5D 7F Integral=UltraFineGrid SCF=(NoSymm,XQC,MaxCyc=12
 0) IOp(1/33=1)\\TS search on BH76.\\0,2\C,-0.0101070012,-0.6805216847,
 0.\C,0.0303543113,0.7842519144,0.\H,1.0147092004,-1.0919549957,0.\H,-0
 .5160709822,-1.0880227566,0.8870451007\H,-0.5160709822,-1.0880227566,-
 0.8870451007\H,0.0514676375,1.3338187333,-0.9148250154\H,0.0514676375,
 1.3338187333,0.9148250154\\Version=ES64L-G16RevA.03\State=2-A'\HF=0.02
 55331\S2=0.754326\S2-1=0.\S2A=0.750014\RMSD=7.140e-09\RMSF=4.153e-05\D
 ipole=0.0356411,-0.1801209,0.\PG=CS [SG(C2H1),X(H4)]\\@


 WE SHOULD BE CAREFUL TO GET OUT OF AN EXPERIENCE ONLY THE WISDOM
 THAT IS IN IT -- AND STOP THERE;
 LEST WE BE LIKE THE CAT THAT SITS DOWN ON A HOT STOVE-LID.
 SHE WILL NEVER SIT DOWN ON A HOT STOVE LID AGAIN;
 BUT ALSO SHE WILL NEVER SIT DOWN ON A COLD ONE ANY MORE.

                                                     -- MARK TWAIN
 Job cpu time:       0 days  0 hours  4 minutes 16.4 seconds.
 Elapsed time:       0 days  0 hours  1 minutes  4.0 seconds.
 File lengths (MBytes):  RWF=      5 Int=      0 D2E=      0 Chk=      2 Scr=      1
 Normal termination of Gaussian 16 at Wed Oct 21 14:26:13 2020.
