 Entering Gaussian System, Link 0=g16
 Input=MN_17_c3h7ts_BH76_PM6_SE.in
 Output=MN_17_c3h7ts_BH76_PM6_SE.log
 Initial command:
 /udrive/faculty/rpeverati/g16/g16/l1.exe "/udrive/scratch-directories/gaussian09/rpeverati/Gau-38924.inp" -scrdir="/udrive/scratch-directories/gaussian09/rpeverati/"
 Entering Link 1 = /udrive/faculty/rpeverati/g16/g16/l1.exe PID=     38925.
  
 Copyright (c) 1988,1990,1992,1993,1995,1998,2003,2009,2016,
            Gaussian, Inc.  All Rights Reserved.
  
 This is part of the Gaussian(R) 16 program.  It is based on
 the Gaussian(R) 09 system (copyright 2009, Gaussian, Inc.),
 the Gaussian(R) 03 system (copyright 2003, Gaussian, Inc.),
 the Gaussian(R) 98 system (copyright 1998, Gaussian, Inc.),
 the Gaussian(R) 94 system (copyright 1995, Gaussian, Inc.),
 the Gaussian 92(TM) system (copyright 1992, Gaussian, Inc.),
 the Gaussian 90(TM) system (copyright 1990, Gaussian, Inc.),
 the Gaussian 88(TM) system (copyright 1988, Gaussian, Inc.),
 the Gaussian 86(TM) system (copyright 1986, Carnegie Mellon
 University), and the Gaussian 82(TM) system (copyright 1983,
 Carnegie Mellon University). Gaussian is a federally registered
 trademark of Gaussian, Inc.
  
 This software contains proprietary and confidential information,
 including trade secrets, belonging to Gaussian, Inc.
  
 This software is provided under written license and may be
 used, copied, transmitted, or stored only in accord with that
 written license.
  
 The following legend is applicable only to US Government
 contracts under FAR:
  
                    RESTRICTED RIGHTS LEGEND
  
 Use, reproduction and disclosure by the US Government is
 subject to restrictions as set forth in subparagraphs (a)
 and (c) of the Commercial Computer Software - Restricted
 Rights clause in FAR 52.227-19.
  
 Gaussian, Inc.
 340 Quinnipiac St., Bldg. 40, Wallingford CT 06492
  
  
 ---------------------------------------------------------------
 Warning -- This program may not be used in any manner that
 competes with the business of Gaussian, Inc. or will provide
 assistance to any competitor of Gaussian, Inc.  The licensee
 of this program is prohibited from giving any competitor of
 Gaussian, Inc. access to this program.  By using this program,
 the user acknowledges that Gaussian, Inc. is engaged in the
 business of creating and licensing software in the field of
 computational chemistry and represents and warrants to the
 licensee that it is not a competitor of Gaussian, Inc. and that
 it will not use this program in any manner prohibited above.
 ---------------------------------------------------------------
  

 Cite this work as:
 Gaussian 16, Revision A.03,
 M. J. Frisch, G. W. Trucks, H. B. Schlegel, G. E. Scuseria, 
 M. A. Robb, J. R. Cheeseman, G. Scalmani, V. Barone, 
 G. A. Petersson, H. Nakatsuji, X. Li, M. Caricato, A. V. Marenich, 
 J. Bloino, B. G. Janesko, R. Gomperts, B. Mennucci, H. P. Hratchian, 
 J. V. Ortiz, A. F. Izmaylov, J. L. Sonnenberg, D. Williams-Young, 
 F. Ding, F. Lipparini, F. Egidi, J. Goings, B. Peng, A. Petrone, 
 T. Henderson, D. Ranasinghe, V. G. Zakrzewski, J. Gao, N. Rega, 
 G. Zheng, W. Liang, M. Hada, M. Ehara, K. Toyota, R. Fukuda, 
 J. Hasegawa, M. Ishida, T. Nakajima, Y. Honda, O. Kitao, H. Nakai, 
 T. Vreven, K. Throssell, J. A. Montgomery, Jr., J. E. Peralta, 
 F. Ogliaro, M. J. Bearpark, J. J. Heyd, E. N. Brothers, K. N. Kudin, 
 V. N. Staroverov, T. A. Keith, R. Kobayashi, J. Normand, 
 K. Raghavachari, A. P. Rendell, J. C. Burant, S. S. Iyengar, 
 J. Tomasi, M. Cossi, J. M. Millam, M. Klene, C. Adamo, R. Cammi, 
 J. W. Ochterski, R. L. Martin, K. Morokuma, O. Farkas, 
 J. B. Foresman, and D. J. Fox, Gaussian, Inc., Wallingford CT, 2016.
 
 ******************************************
 Gaussian 16:  ES64L-G16RevA.03 25-Dec-2016
                21-Oct-2020 
 ******************************************
 %NoSave
 %nproc=12
 Will use up to   12 processors via shared memory.
 %mem=20GB
 %chk=MN_17_c3h7ts_BH76_PM6_SE
 ----------------------------------------------------------------------
 #P Opt(TS,MaxCyc=50,NoEigenTest,MaxStep=10,AddRedundant) PM6 5D 7F Int
 egral=UltraFineGrid SCF=(NoSymm,XQC,MaxCyc=120) IOp(1/33=1)
 ----------------------------------------------------------------------
 1/5=1,6=50,8=10,11=1,18=120,26=1,33=1,38=1/1,3;
 2/9=110,12=2,17=6,18=5,40=1/2;
 3/5=2,8=11,25=1,41=3900000,71=1,75=-5/1,2,3;
 4/9=2,35=1/1;
 5/5=2,7=120,8=3,13=1,35=1,38=5/2,8;
 6/7=2,8=2,9=2,10=2,28=1/1;
 7//1,2,3,16;
 1/5=1,6=50,8=10,11=1,18=20,26=1,33=1/3(2);
 2/9=110/2;
 99//99;
 2/9=110/2;
 3/5=2,8=11,25=1,41=3900000,71=1,75=-5,135=20/1,2,3;
 4/5=5,9=2,16=3,35=1/1;
 5/5=2,7=120,8=3,13=1,35=1,38=5/2,8;
 7//1,2,3,16;
 1/5=1,6=50,8=10,11=1,18=20,26=1,33=1/3(-5);
 2/9=110/2;
 6/7=2,8=2,9=2,10=2,19=2,28=1/1;
 99/9=1/99;
 Leave Link    1 at Wed Oct 21 14:25:41 2020, MaxMem=  2684354560 cpu:              10.0 elap:               1.0
 (Enter /udrive/faculty/rpeverati/g16/g16/l101.exe)
 ONIOM data not found on unit 2.
 ------------------
 TS search on BH76.
 ------------------
 TstMul:  ICh=     0
 TstMul:  Mul=     2
 TstMul:  ICh=     0
 TstMul:  Mul=     2
 Symbolic Z-matrix:
 Charge =  0 Multiplicity = 2
 C                    -0.47213   0.64593  -0.00004 
 C                    -1.38262  -0.36389  0. 
 H                    -0.23204   1.16458  -0.91727 
 H                    -0.23234   1.16476   0.91717 
 H                    -1.72713  -0.80981   0.92252 
 H                    -1.72694  -0.81013  -0.92244 
 C                     1.61202  -0.24219   0.00004 
 H                     2.19518   0.66867  -0.00127 
 H                     1.58943  -0.80962  -0.91863 
 H                     1.59025  -0.8076    0.91997 
 
 RdStrC is calling ZToCFu for IStruc=1 NZ=    10.
 PrtBox:  NBox=     1 Levels=  1 BoxLen=    8.00 SMaxX=        7.41
          Shift=            3.263800            1.530930            1.743150
 Box      1 Number                   0 centers from      1 to     10:
 After GenITR:
 ITRead=  0  0  0  0  0  0  0  0  0  0
 MicOpt= -1 -1 -1 -1 -1 -1 -1 -1 -1 -1
 Add virtual bond connecting atoms C7         and C1         Dist= 4.28D+00.
 The following ModRedundant input section has been read:
 
 ITRead=  0  0  0  0  0  0  0  0  0  0
 MicOpt= -1 -1 -1 -1 -1 -1 -1 -1 -1 -1
 NAtoms=     10 NQM=       10 NQMF=       0 NMMI=      0 NMMIF=      0
                NMic=       0 NMicF=      0.
                    Isotopes and Nuclear Properties:
 (Nuclear quadrupole moments (NQMom) in fm**2, nuclear magnetic moments (NMagM)
  in nuclear magnetons)

  Atom         1           2           3           4           5           6           7           8           9          10
 IAtWgt=          12          12           1           1           1           1          12           1           1           1
 AtmWgt=  12.0000000  12.0000000   1.0078250   1.0078250   1.0078250   1.0078250  12.0000000   1.0078250   1.0078250   1.0078250
 NucSpn=           0           0           1           1           1           1           0           1           1           1
 AtZEff=   0.0000000   0.0000000   0.0000000   0.0000000   0.0000000   0.0000000   0.0000000   0.0000000   0.0000000   0.0000000
 NQMom=    0.0000000   0.0000000   0.0000000   0.0000000   0.0000000   0.0000000   0.0000000   0.0000000   0.0000000   0.0000000
 NMagM=    0.0000000   0.0000000   2.7928460   2.7928460   2.7928460   2.7928460   0.0000000   2.7928460   2.7928460   2.7928460
 AtZNuc=   6.0000000   6.0000000   1.0000000   1.0000000   1.0000000   1.0000000   6.0000000   1.0000000   1.0000000   1.0000000
 No MM parameters found.
 Leave Link  101 at Wed Oct 21 14:25:43 2020, MaxMem=  2684354560 cpu:              13.7 elap:               1.4
 (Enter /udrive/faculty/rpeverati/g16/g16/l103.exe)

 GradGradGradGradGradGradGradGradGradGradGradGradGradGradGradGradGradGrad
 Berny optimization.
 Optmz: redundant internal coordinate code flag= 1
 Initialization pass.
                           ----------------------------
                           !    Initial Parameters    !
                           ! (Angstroms and Degrees)  !
 --------------------------                            --------------------------
 ! Name  Definition              Value          Derivative Info.                !
 --------------------------------------------------------------------------------
 ! R1    R(1,2)                  1.3597         estimate D2E/DX2                !
 ! R2    R(1,3)                  1.0807         estimate D2E/DX2                !
 ! R3    R(1,4)                  1.0807         estimate D2E/DX2                !
 ! R4    R(1,7)                  2.2655         estimate D2E/DX2                !
 ! R5    R(2,5)                  1.081          estimate D2E/DX2                !
 ! R6    R(2,6)                  1.081          estimate D2E/DX2                !
 ! R7    R(7,8)                  1.0816         estimate D2E/DX2                !
 ! R8    R(7,9)                  1.08           estimate D2E/DX2                !
 ! R9    R(7,10)                 1.08           estimate D2E/DX2                !
 ! A1    A(2,1,3)              120.3456         estimate D2E/DX2                !
 ! A2    A(2,1,4)              120.3379         estimate D2E/DX2                !
 ! A3    A(2,1,7)              108.9584         estimate D2E/DX2                !
 ! A4    A(3,1,4)              116.1442         estimate D2E/DX2                !
 ! A5    A(3,1,7)               89.0711         estimate D2E/DX2                !
 ! A6    A(4,1,7)               89.0862         estimate D2E/DX2                !
 ! A7    A(1,2,5)              121.3188         estimate D2E/DX2                !
 ! A8    A(1,2,6)              121.3224         estimate D2E/DX2                !
 ! A9    A(5,2,6)              117.1556         estimate D2E/DX2                !
 ! A10   A(1,7,8)               99.5482         estimate D2E/DX2                !
 ! A11   A(1,7,9)              100.7599         estimate D2E/DX2                !
 ! A12   A(1,7,10)             100.7612         estimate D2E/DX2                !
 ! A13   A(8,7,9)              116.9188         estimate D2E/DX2                !
 ! A14   A(8,7,10)             116.923          estimate D2E/DX2                !
 ! A15   A(9,7,10)             116.6828         estimate D2E/DX2                !
 ! D1    D(3,1,2,5)           -172.2135         estimate D2E/DX2                !
 ! D2    D(3,1,2,6)             13.1144         estimate D2E/DX2                !
 ! D3    D(4,1,2,5)            -13.1126         estimate D2E/DX2                !
 ! D4    D(4,1,2,6)            172.2152         estimate D2E/DX2                !
 ! D5    D(7,1,2,5)             87.3445         estimate D2E/DX2                !
 ! D6    D(7,1,2,6)            -87.3276         estimate D2E/DX2                !
 ! D7    D(2,1,7,8)            179.9321         estimate D2E/DX2                !
 ! D8    D(2,1,7,9)             59.9805         estimate D2E/DX2                !
 ! D9    D(2,1,7,10)           -60.1113         estimate D2E/DX2                !
 ! D10   D(3,1,7,8)             58.0149         estimate D2E/DX2                !
 ! D11   D(3,1,7,9)            -61.9367         estimate D2E/DX2                !
 ! D12   D(3,1,7,10)           177.9715         estimate D2E/DX2                !
 ! D13   D(4,1,7,8)            -58.153          estimate D2E/DX2                !
 ! D14   D(4,1,7,9)           -178.1047         estimate D2E/DX2                !
 ! D15   D(4,1,7,10)            61.8035         estimate D2E/DX2                !
 --------------------------------------------------------------------------------
 Maximum allowed force set to 1.00D+20.
 Trust Radius=1.00D-01 FncErr=1.00D-07 GrdErr=1.00D-07 EigMax=2.50D+02 EigMin=1.00D-04
 Number of steps in this run=     50 maximum allowed number of steps=    100.
 Search for a saddle point of order  1.
 GradGradGradGradGradGradGradGradGradGradGradGradGradGradGradGradGradGrad

 Leave Link  103 at Wed Oct 21 14:25:45 2020, MaxMem=  2684354560 cpu:               2.4 elap:               1.1
 (Enter /udrive/faculty/rpeverati/g16/g16/l202.exe)
                          Input orientation:                          
 ---------------------------------------------------------------------
 Center     Atomic      Atomic             Coordinates (Angstroms)
 Number     Number       Type             X           Y           Z
 ---------------------------------------------------------------------
      1          6           0       -0.472132    0.645935   -0.000043
      2          6           0       -1.382618   -0.363885   -0.000002
      3          1           0       -0.232044    1.164576   -0.917265
      4          1           0       -0.232342    1.164761    0.917170
      5          1           0       -1.727129   -0.809810    0.922520
      6          1           0       -1.726938   -0.810133   -0.922435
      7          6           0        1.612017   -0.242189    0.000035
      8          1           0        2.195181    0.668674   -0.001269
      9          1           0        1.589426   -0.809620   -0.918630
     10          1           0        1.590246   -0.807599    0.919969
 ---------------------------------------------------------------------
                    Distance matrix (angstroms):
                    1          2          3          4          5
     1  C    0.000000
     2  C    1.359677   0.000000
     3  H    1.080707   2.121647   0.000000
     4  H    1.080722   2.121579   1.834435   0.000000
     5  H    2.131978   1.081010   3.085172   2.476560   0.000000
     6  H    2.132013   1.081007   2.476734   3.085154   1.844955
     7  C    2.265489   2.997107   2.494191   2.494455   3.510422
     8  H    2.667410   3.723818   2.641285   2.642442   4.292297
     9  H    2.685604   3.142548   2.686114   3.253795   3.793332
    10  H    2.685626   3.143430   3.253559   2.685524   3.317377
                    6          7          8          9         10
     6  H    0.000000
     7  C    3.510289   0.000000
     8  H    4.291670   1.081551   0.000000
     9  H    3.316366   1.080016   1.842238   0.000000
    10  H    3.794492   1.080019   1.842282   1.838601   0.000000
 Stoichiometry    C3H7(2)
 Framework group  C1[X(C3H7)]
 Deg. of freedom    24
 Full point group                 C1      NOp   1
 Largest Abelian subgroup         C1      NOp   1
 Largest concise Abelian subgroup C1      NOp   1
                         Standard orientation:                         
 ---------------------------------------------------------------------
 Center     Atomic      Atomic             Coordinates (Angstroms)
 Number     Number       Type             X           Y           Z
 ---------------------------------------------------------------------
      1          6           0       -0.472132    0.645934   -0.000043
      2          6           0       -1.382618   -0.363886   -0.000002
      3          1           0       -0.232044    1.164576   -0.917265
      4          1           0       -0.232342    1.164761    0.917170
      5          1           0       -1.727128   -0.809811    0.922520
      6          1           0       -1.726938   -0.810134   -0.922435
      7          6           0        1.612017   -0.242189    0.000035
      8          1           0        2.195181    0.668673   -0.001269
      9          1           0        1.589426   -0.809620   -0.918630
     10          1           0        1.590247   -0.807599    0.919969
 ---------------------------------------------------------------------
 Rotational constants (GHZ):          27.7434342           6.4827804           5.8803005
 Leave Link  202 at Wed Oct 21 14:25:47 2020, MaxMem=  2684354560 cpu:               4.5 elap:               1.5
 (Enter /udrive/faculty/rpeverati/g16/g16/l301.exe)
 Standard basis: VSTO-6G (5D, 7F)
 Ernie: Thresh=  0.10000D-02 Tol=  0.10000D-05 Strict=F.
  NNHCO=     0 NNPyr=     0 NCTC=     0               EPep=         0.000000000
    EC=        34.990181001  ECS=         1.567470076   EG=         0.102455124
   EHC=         0.000302077  EAt=       -15.593967212  AtH=         1.398200403
 EPDDG=         0.000000000  ECC=        36.660408278 EAtT=        16.992167616
 There are    19 symmetry adapted cartesian basis functions of A   symmetry.
 There are    19 symmetry adapted basis functions of A   symmetry.
    19 basis functions,   114 primitive gaussians,    19 cartesian basis functions
    10 alpha electrons        9 beta electrons
       nuclear repulsion energy        53.6525758940 Hartrees.
 IExCor=    0 DFT=F Ex=HF Corr=None ExCW=0 ScaHFX=  1.000000
 ScaDFX=  1.000000  1.000000  1.000000  1.000000 ScalE2=  1.000000  1.000000
 IRadAn=      5 IRanWt=     -1 IRanGd=            0 ICorTp=0 IEmpDi=  4
 Integral buffers will be    131072 words long.
 Regular integral format.
 Two-electron integral symmetry is turned off.
 Leave Link  301 at Wed Oct 21 14:25:48 2020, MaxMem=  2684354560 cpu:               5.8 elap:               1.1
 (Enter /udrive/faculty/rpeverati/g16/g16/l302.exe)
 Do NDO integrals.
 NPDir=0 NMtPBC=     1 NCelOv=     1 NCel=       1 NClECP=     1 NCelD=      1
         NCelK=      1 NCelE2=     1 NClLst=     1 CellRange=     0.0.
 One-electron integrals computed using PRISM.
 NBasis=    19 RedAO= F EigKep=  0.00D+00  NBF=    19
 NBsUse=    19 1.00D-04 EigRej=  0.00D+00 NBFU=    19
 Leave Link  302 at Wed Oct 21 14:25:50 2020, MaxMem=  2684354560 cpu:               5.1 elap:               1.1
 (Enter /udrive/faculty/rpeverati/g16/g16/l303.exe)
 DipDrv:  MaxL=1.
 Leave Link  303 at Wed Oct 21 14:25:52 2020, MaxMem=  2684354560 cpu:               3.2 elap:               0.8
 (Enter /udrive/faculty/rpeverati/g16/g16/l401.exe)
 SCF N**3 symmetry information disabled.
 Simple Huckel Guess.
 JPrj=0 DoOrth=F DoCkMO=F.
 Initial guess <Sx>= 0.0000 <Sy>= 0.0000 <Sz>= 0.5000 <S**2>= 0.7500 S= 0.5000
 Leave Link  401 at Wed Oct 21 14:25:53 2020, MaxMem=  2684354560 cpu:               3.1 elap:               1.2
 (Enter /udrive/faculty/rpeverati/g16/g16/l502.exe)
 Keep J ints in memory in canonical form, NReq=859987.
 FoFCou: FMM=F IPFlag=           0 FMFlag=           0 FMFlg1=           0
         NFxFlg=           0 DoJE=F BraDBF=F KetDBF=F FulRan=T
         wScrn=  0.000000 ICntrl=       600 IOpCl=  2 I1Cent=           0 NGrid=           0
         NMat0=    1 NMatS0=     37 NMatT0=    0 NMatD0=    1 NMtDS0=    0 NMtDT0=    0
 Symmetry not used in FoFCou.
 Two-electron integral symmetry not used.
 UHF open shell SCF:
 Using DIIS extrapolation, IDIIS=  1040.
 Overlap will be assumed to be unity.
 NGot=  2684354560 LenX=  2684293262 LenY=  2684292380
 Requested convergence on RMS density matrix=1.00D-08 within 120 cycles.
 Requested convergence on MAX density matrix=1.00D-06.
 Requested convergence on             energy=1.00D-06.
 No special actions if energy rises.

 Cycle   1  Pass 1  IDiag  1:
 E= 0.156365927566604    
 DIIS: error= 2.37D-02 at cycle   1 NSaved=   1.
 NSaved= 1 IEnMin= 1 EnMin= 0.156365927566604     IErMin= 1 ErrMin= 2.37D-02
 ErrMax= 2.37D-02  0.00D+00 EMaxC= 1.00D-01 BMatC= 8.30D-02 BMatP= 8.30D-02
 IDIUse=3 WtCom= 7.63D-01 WtEn= 2.37D-01
 Coeff-Com:  0.100D+01
 Coeff-En:   0.100D+01
 Coeff:      0.100D+01
 GapD=    2.000 DampG=2.000 DampE=0.500 DampFc=1.0000 IDamp=-1.
 RMSDP=1.24D-02 MaxDP=8.02D-02              OVMax= 0.00D+00

 Cycle   2  Pass 1  IDiag  1:
 E= 0.953407436352265E-01 Delta-E=       -0.061025183931 Rises=F Damp=F
 DIIS: error= 8.08D-03 at cycle   2 NSaved=   2.
 NSaved= 2 IEnMin= 2 EnMin= 0.953407436352265E-01 IErMin= 2 ErrMin= 8.08D-03
 ErrMax= 8.08D-03  0.00D+00 EMaxC= 1.00D-01 BMatC= 8.99D-03 BMatP= 8.30D-02
 IDIUse=3 WtCom= 9.19D-01 WtEn= 8.08D-02
 Coeff-Com: -0.389D+00 0.139D+01
 Coeff-En:   0.000D+00 0.100D+01
 Coeff:     -0.357D+00 0.136D+01
 RMSDP=7.49D-03 MaxDP=4.13D-02 DE=-6.10D-02 OVMax= 0.00D+00

 Cycle   3  Pass 1  IDiag  3:
 E= 0.836388483288744E-01 Delta-E=       -0.011701895306 Rises=F Damp=F
 DIIS: error= 4.68D-03 at cycle   3 NSaved=   3.
 NSaved= 3 IEnMin= 3 EnMin= 0.836388483288744E-01 IErMin= 3 ErrMin= 4.68D-03
 ErrMax= 4.68D-03  0.00D+00 EMaxC= 1.00D-01 BMatC= 1.08D-03 BMatP= 8.99D-03
 IDIUse=3 WtCom= 9.53D-01 WtEn= 4.68D-02
 Coeff-Com:  0.507D+00-0.194D+01 0.243D+01
 Coeff-En:   0.000D+00 0.000D+00 0.100D+01
 Coeff:      0.483D+00-0.185D+01 0.237D+01
 Gap=     0.376 Goal=   None    Shift=    0.000
 Gap=     0.394 Goal=   None    Shift=    0.000
 RMSDP=6.30D-03 MaxDP=4.36D-02 DE=-1.17D-02 OVMax= 6.56D-02

 Cycle   4  Pass 1  IDiag  3:
 E= 0.805648414847013E-01 Delta-E=       -0.003074006844 Rises=F Damp=F
 DIIS: error= 5.40D-04 at cycle   4 NSaved=   4.
 NSaved= 4 IEnMin= 4 EnMin= 0.805648414847013E-01 IErMin= 4 ErrMin= 5.40D-04
 ErrMax= 5.40D-04  0.00D+00 EMaxC= 1.00D-01 BMatC= 3.51D-05 BMatP= 1.08D-03
 IDIUse=3 WtCom= 9.95D-01 WtEn= 5.40D-03
 Coeff-Com: -0.222D+00 0.864D+00-0.115D+01 0.150D+01
 Coeff-En:   0.000D+00 0.000D+00 0.000D+00 0.100D+01
 Coeff:     -0.221D+00 0.859D+00-0.114D+01 0.150D+01
 Gap=     0.379 Goal=   None    Shift=    0.000
 Gap=     0.397 Goal=   None    Shift=    0.000
 RMSDP=7.30D-04 MaxDP=4.73D-03 DE=-3.07D-03 OVMax= 7.47D-03

 Cycle   5  Pass 1  IDiag  3:
 E= 0.804965336367545E-01 Delta-E=       -0.000068307848 Rises=F Damp=F
 DIIS: error= 1.80D-04 at cycle   5 NSaved=   5.
 NSaved= 5 IEnMin= 5 EnMin= 0.804965336367545E-01 IErMin= 5 ErrMin= 1.80D-04
 ErrMax= 1.80D-04  0.00D+00 EMaxC= 1.00D-01 BMatC= 4.25D-06 BMatP= 3.51D-05
 IDIUse=3 WtCom= 9.98D-01 WtEn= 1.80D-03
 Coeff-Com:  0.625D-01-0.246D+00 0.321D+00-0.722D+00 0.158D+01
 Coeff-En:   0.000D+00 0.000D+00 0.000D+00 0.000D+00 0.100D+01
 Coeff:      0.623D-01-0.246D+00 0.321D+00-0.721D+00 0.158D+01
 Gap=     0.382 Goal=   None    Shift=    0.000
 Gap=     0.399 Goal=   None    Shift=    0.000
 RMSDP=3.17D-04 MaxDP=1.99D-03 DE=-6.83D-05 OVMax= 3.64D-03

 Cycle   6  Pass 1  IDiag  3:
 E= 0.804874743223607E-01 Delta-E=       -0.000009059314 Rises=F Damp=F
 DIIS: error= 9.22D-05 at cycle   6 NSaved=   6.
 NSaved= 6 IEnMin= 6 EnMin= 0.804874743223607E-01 IErMin= 6 ErrMin= 9.22D-05
 ErrMax= 9.22D-05  0.00D+00 EMaxC= 1.00D-01 BMatC= 7.88D-07 BMatP= 4.25D-06
 IDIUse=1 WtCom= 1.00D+00 WtEn= 0.00D+00
 Coeff-Com:  0.413D-02-0.138D-01 0.241D-01 0.134D+00-0.653D+00 0.150D+01
 Coeff:      0.413D-02-0.138D-01 0.241D-01 0.134D+00-0.653D+00 0.150D+01
 Gap=     0.381 Goal=   None    Shift=    0.000
 Gap=     0.399 Goal=   None    Shift=    0.000
 RMSDP=1.22D-04 MaxDP=8.16D-04 DE=-9.06D-06 OVMax= 1.53D-03

 Cycle   7  Pass 1  IDiag  3:
 E= 0.804851128683524E-01 Delta-E=       -0.000002361454 Rises=F Damp=F
 DIIS: error= 8.02D-05 at cycle   7 NSaved=   7.
 NSaved= 7 IEnMin= 7 EnMin= 0.804851128683524E-01 IErMin= 7 ErrMin= 8.02D-05
 ErrMax= 8.02D-05  0.00D+00 EMaxC= 1.00D-01 BMatC= 3.96D-07 BMatP= 7.88D-07
 IDIUse=1 WtCom= 1.00D+00 WtEn= 0.00D+00
 Coeff-Com:  0.367D-02-0.176D-01 0.680D-02-0.238D+00 0.966D+00-0.276D+01
 Coeff-Com:  0.304D+01
 Coeff:      0.367D-02-0.176D-01 0.680D-02-0.238D+00 0.966D+00-0.276D+01
 Coeff:      0.304D+01
 Gap=     0.382 Goal=   None    Shift=    0.000
 Gap=     0.399 Goal=   None    Shift=    0.000
 RMSDP=1.92D-04 MaxDP=1.42D-03 DE=-2.36D-06 OVMax= 1.97D-03

 Cycle   8  Pass 1  IDiag  3:
 E= 0.804826408476558E-01 Delta-E=       -0.000002472021 Rises=F Damp=F
 DIIS: error= 4.96D-05 at cycle   8 NSaved=   8.
 NSaved= 8 IEnMin= 8 EnMin= 0.804826408476558E-01 IErMin= 8 ErrMin= 4.96D-05
 ErrMax= 4.96D-05  0.00D+00 EMaxC= 1.00D-01 BMatC= 1.46D-07 BMatP= 3.96D-07
 IDIUse=1 WtCom= 1.00D+00 WtEn= 0.00D+00
 Coeff-Com:  0.676D-02-0.225D-01 0.563D-01 0.203D+00-0.105D+01 0.375D+01
 Coeff-Com: -0.532D+01 0.337D+01
 Coeff:      0.676D-02-0.225D-01 0.563D-01 0.203D+00-0.105D+01 0.375D+01
 Coeff:     -0.532D+01 0.337D+01
 Gap=     0.381 Goal=   None    Shift=    0.000
 Gap=     0.399 Goal=   None    Shift=    0.000
 RMSDP=2.12D-04 MaxDP=1.53D-03 DE=-2.47D-06 OVMax= 2.51D-03

 Cycle   9  Pass 1  IDiag  3:
 E= 0.804814198295745E-01 Delta-E=       -0.000001221018 Rises=F Damp=F
 DIIS: error= 1.47D-05 at cycle   9 NSaved=   9.
 NSaved= 9 IEnMin= 9 EnMin= 0.804814198295745E-01 IErMin= 9 ErrMin= 1.47D-05
 ErrMax= 1.47D-05  0.00D+00 EMaxC= 1.00D-01 BMatC= 1.90D-08 BMatP= 1.46D-07
 IDIUse=1 WtCom= 1.00D+00 WtEn= 0.00D+00
 Coeff-Com: -0.194D-02 0.633D-02-0.209D-01-0.765D-01 0.354D+00-0.129D+01
 Coeff-Com:  0.202D+01-0.164D+01 0.164D+01
 Coeff:     -0.194D-02 0.633D-02-0.209D-01-0.765D-01 0.354D+00-0.129D+01
 Coeff:      0.202D+01-0.164D+01 0.164D+01
 Gap=     0.382 Goal=   None    Shift=    0.000
 Gap=     0.399 Goal=   None    Shift=    0.000
 RMSDP=4.13D-05 MaxDP=3.55D-04 DE=-1.22D-06 OVMax= 5.40D-04

 Cycle  10  Pass 1  IDiag  3:
 E= 0.804813476606441E-01 Delta-E=       -0.000000072169 Rises=F Damp=F
 DIIS: error= 4.27D-06 at cycle  10 NSaved=  10.
 NSaved=10 IEnMin=10 EnMin= 0.804813476606441E-01 IErMin=10 ErrMin= 4.27D-06
 ErrMax= 4.27D-06  0.00D+00 EMaxC= 1.00D-01 BMatC= 2.30D-09 BMatP= 1.90D-08
 IDIUse=1 WtCom= 1.00D+00 WtEn= 0.00D+00
 Coeff-Com:  0.829D-03-0.302D-02 0.816D-02 0.151D-01-0.703D-01 0.276D+00
 Coeff-Com: -0.486D+00 0.379D+00-0.619D+00 0.150D+01
 Coeff:      0.829D-03-0.302D-02 0.816D-02 0.151D-01-0.703D-01 0.276D+00
 Coeff:     -0.486D+00 0.379D+00-0.619D+00 0.150D+01
 Gap=     0.382 Goal=   None    Shift=    0.000
 Gap=     0.399 Goal=   None    Shift=    0.000
 RMSDP=2.19D-05 MaxDP=1.47D-04 DE=-7.22D-08 OVMax= 2.83D-04

 Cycle  11  Pass 1  IDiag  3:
 E= 0.804813384706051E-01 Delta-E=       -0.000000009190 Rises=F Damp=F
 DIIS: error= 1.34D-06 at cycle  11 NSaved=  11.
 NSaved=11 IEnMin=11 EnMin= 0.804813384706051E-01 IErMin=11 ErrMin= 1.34D-06
 ErrMax= 1.34D-06  0.00D+00 EMaxC= 1.00D-01 BMatC= 1.71D-10 BMatP= 2.30D-09
 IDIUse=1 WtCom= 1.00D+00 WtEn= 0.00D+00
 Coeff-Com: -0.233D-03 0.920D-03-0.214D-02-0.579D-04-0.403D-03-0.101D-01
 Coeff-Com:  0.466D-01-0.291D-01 0.126D+00-0.537D+00 0.141D+01
 Coeff:     -0.233D-03 0.920D-03-0.214D-02-0.579D-04-0.403D-03-0.101D-01
 Coeff:      0.466D-01-0.291D-01 0.126D+00-0.537D+00 0.141D+01
 Gap=     0.382 Goal=   None    Shift=    0.000
 Gap=     0.399 Goal=   None    Shift=    0.000
 RMSDP=3.06D-06 MaxDP=2.00D-05 DE=-9.19D-09 OVMax= 4.17D-05

 Cycle  12  Pass 1  IDiag  3:
 E= 0.804813381277043E-01 Delta-E=       -0.000000000343 Rises=F Damp=F
 DIIS: error= 2.93D-07 at cycle  12 NSaved=  12.
 NSaved=12 IEnMin=12 EnMin= 0.804813381277043E-01 IErMin=12 ErrMin= 2.93D-07
 ErrMax= 2.93D-07  0.00D+00 EMaxC= 1.00D-01 BMatC= 1.10D-11 BMatP= 1.71D-10
 IDIUse=1 WtCom= 1.00D+00 WtEn= 0.00D+00
 Coeff-Com:  0.274D-04-0.126D-03 0.272D-03-0.924D-03 0.502D-02-0.155D-01
 Coeff-Com:  0.148D-01-0.153D-01-0.863D-02 0.104D+00-0.499D+00 0.141D+01
 Coeff:      0.274D-04-0.126D-03 0.272D-03-0.924D-03 0.502D-02-0.155D-01
 Coeff:      0.148D-01-0.153D-01-0.863D-02 0.104D+00-0.499D+00 0.141D+01
 Gap=     0.382 Goal=   None    Shift=    0.000
 Gap=     0.399 Goal=   None    Shift=    0.000
 RMSDP=6.95D-07 MaxDP=4.62D-06 DE=-3.43D-10 OVMax= 8.78D-06

 Cycle  13  Pass 1  IDiag  3:
 E= 0.804813381059049E-01 Delta-E=       -0.000000000022 Rises=F Damp=F
 DIIS: error= 6.68D-08 at cycle  13 NSaved=  13.
 NSaved=13 IEnMin=13 EnMin= 0.804813381059049E-01 IErMin=13 ErrMin= 6.68D-08
 ErrMax= 6.68D-08  0.00D+00 EMaxC= 1.00D-01 BMatC= 5.18D-13 BMatP= 1.10D-11
 IDIUse=1 WtCom= 1.00D+00 WtEn= 0.00D+00
 Coeff-Com: -0.548D-05 0.302D-04-0.878D-04 0.374D-03-0.223D-02 0.714D-02
 Coeff-Com: -0.699D-02 0.737D-02 0.349D-02-0.470D-01 0.217D+00-0.717D+00
 Coeff-Com:  0.154D+01
 Coeff:     -0.548D-05 0.302D-04-0.878D-04 0.374D-03-0.223D-02 0.714D-02
 Coeff:     -0.699D-02 0.737D-02 0.349D-02-0.470D-01 0.217D+00-0.717D+00
 Coeff:      0.154D+01
 Gap=     0.382 Goal=   None    Shift=    0.000
 Gap=     0.399 Goal=   None    Shift=    0.000
 RMSDP=7.59D-08 MaxDP=4.43D-07 DE=-2.18D-11 OVMax= 5.13D-07

 Cycle  14  Pass 1  IDiag  3:
 E= 0.804813381051517E-01 Delta-E=       -0.000000000001 Rises=F Damp=F
 DIIS: error= 1.68D-08 at cycle  14 NSaved=  14.
 NSaved=14 IEnMin=14 EnMin= 0.804813381051517E-01 IErMin=14 ErrMin= 1.68D-08
 ErrMax= 1.68D-08  0.00D+00 EMaxC= 1.00D-01 BMatC= 3.49D-14 BMatP= 5.18D-13
 IDIUse=1 WtCom= 1.00D+00 WtEn= 0.00D+00
 Coeff-Com:  0.309D-05-0.170D-04 0.485D-04-0.209D-03 0.123D-02-0.392D-02
 Coeff-Com:  0.380D-02-0.406D-02-0.193D-02 0.257D-01-0.115D+00 0.383D+00
 Coeff-Com: -0.963D+00 0.167D+01
 Coeff:      0.309D-05-0.170D-04 0.485D-04-0.209D-03 0.123D-02-0.392D-02
 Coeff:      0.380D-02-0.406D-02-0.193D-02 0.257D-01-0.115D+00 0.383D+00
 Coeff:     -0.963D+00 0.167D+01
 Gap=     0.382 Goal=   None    Shift=    0.000
 Gap=     0.399 Goal=   None    Shift=    0.000
 RMSDP=4.07D-08 MaxDP=3.01D-07 DE=-7.53D-13 OVMax= 4.13D-07

 Cycle  15  Pass 1  IDiag  3:
 E= 0.804813381050806E-01 Delta-E=       -0.000000000000 Rises=F Damp=F
 DIIS: error= 4.46D-09 at cycle  15 NSaved=  15.
 NSaved=15 IEnMin=15 EnMin= 0.804813381050806E-01 IErMin=15 ErrMin= 4.46D-09
 ErrMax= 4.46D-09  0.00D+00 EMaxC= 1.00D-01 BMatC= 2.25D-15 BMatP= 3.49D-14
 IDIUse=1 WtCom= 1.00D+00 WtEn= 0.00D+00
 Coeff-Com: -0.132D-05 0.797D-05-0.221D-04 0.125D-03-0.719D-03 0.231D-02
 Coeff-Com: -0.235D-02 0.245D-02 0.742D-03-0.131D-01 0.603D-01-0.202D+00
 Coeff-Com:  0.524D+00-0.107D+01 0.170D+01
 Coeff:     -0.132D-05 0.797D-05-0.221D-04 0.125D-03-0.719D-03 0.231D-02
 Coeff:     -0.235D-02 0.245D-02 0.742D-03-0.131D-01 0.603D-01-0.202D+00
 Coeff:      0.524D+00-0.107D+01 0.170D+01
 Gap=     0.382 Goal=   None    Shift=    0.000
 Gap=     0.399 Goal=   None    Shift=    0.000
 RMSDP=1.38D-08 MaxDP=1.02D-07 DE=-7.11D-14 OVMax= 1.54D-07

 Cycle  16  Pass 1  IDiag  3:
 E= 0.804813381050380E-01 Delta-E=       -0.000000000000 Rises=F Damp=F
 DIIS: error= 1.02D-09 at cycle  16 NSaved=  16.
 NSaved=16 IEnMin=16 EnMin= 0.804813381050380E-01 IErMin=16 ErrMin= 1.02D-09
 ErrMax= 1.02D-09  0.00D+00 EMaxC= 1.00D-01 BMatC= 1.25D-16 BMatP= 2.25D-15
 IDIUse=1 WtCom= 1.00D+00 WtEn= 0.00D+00
 Large coefficients: NSaved= 16 BigCof=    0.00 CofMax=   10.00 Det=-7.52D-17
 Inversion failed.  Reducing to 15 matrices.
 Coeff-Com: -0.754D-06 0.314D-05-0.329D-04 0.189D-03-0.622D-03 0.664D-03
 Coeff-Com: -0.688D-03-0.894D-04 0.303D-02-0.145D-01 0.491D-01-0.131D+00
 Coeff-Com:  0.288D+00-0.609D+00 0.142D+01
 Coeff:     -0.754D-06 0.314D-05-0.329D-04 0.189D-03-0.622D-03 0.664D-03
 Coeff:     -0.688D-03-0.894D-04 0.303D-02-0.145D-01 0.491D-01-0.131D+00
 Coeff:      0.288D+00-0.609D+00 0.142D+01
 Gap=     0.382 Goal=   None    Shift=    0.000
 Gap=     0.399 Goal=   None    Shift=    0.000
 RMSDP=5.26D-09 MaxDP=3.85D-08 DE=-4.26D-14 OVMax= 5.23D-08

 Cycle  17  Pass 2  IDiag  1:
 SCF Done:  E(UPM6) =  0.804813381050E-01 A.U. after   17 cycles
            NFock= 16  Conv=0.53D-08     -V/T= 1.0030
 <Sx>= 0.0000 <Sy>= 0.0000 <Sz>= 0.5000 <S**2>= 0.8648 S= 0.5558
 <L.S>= 0.000000000000E+00
 KE=-2.669428816207D+01 PE=-6.902173242478D+01 EE= 4.214392603100D+01
 Annihilation of the first spin contaminant:
 S**2 before annihilation     0.8648,   after     0.7512
 Leave Link  502 at Wed Oct 21 14:25:56 2020, MaxMem=  2684354560 cpu:              16.9 elap:               2.5
 (Enter /udrive/faculty/rpeverati/g16/g16/l508.exe)
 QCSCF skips out because SCF is already converged.
 Leave Link  508 at Wed Oct 21 14:25:57 2020, MaxMem=  2684354560 cpu:               0.6 elap:               0.6
 (Enter /udrive/faculty/rpeverati/g16/g16/l601.exe)
 Copying SCF densities to generalized density rwf, IOpCl= 1 IROHF=0.

 **********************************************************************

            Population analysis using the SCF density.

 **********************************************************************

 Orbital symmetries:
 Alpha Orbitals:
       Occupied  (A) (A) (A) (A) (A) (A) (A) (A) (A) (A)
       Virtual   (A) (A) (A) (A) (A) (A) (A) (A) (A)
 Beta  Orbitals:
       Occupied  (A) (A) (A) (A) (A) (A) (A) (A) (A)
       Virtual   (A) (A) (A) (A) (A) (A) (A) (A) (A) (A)
 The electronic state is 2-A.
 Alpha  occ. eigenvalues --   -0.98277  -0.86210  -0.74509  -0.59018  -0.52784
 Alpha  occ. eigenvalues --   -0.51356  -0.50518  -0.44434  -0.41231  -0.33286
 Alpha virt. eigenvalues --    0.04851   0.20805   0.20929   0.22675   0.22795
 Alpha virt. eigenvalues --    0.23245   0.23908   0.24284   0.24366
  Beta  occ. eigenvalues --   -0.98100  -0.84947  -0.74247  -0.58906  -0.52280
  Beta  occ. eigenvalues --   -0.50238  -0.49713  -0.44349  -0.38413
  Beta virt. eigenvalues --    0.01466   0.07216   0.20895   0.20956   0.23293
  Beta virt. eigenvalues --    0.23496   0.23600   0.24102   0.24435   0.24909
          Condensed to atoms (all electrons):
               1          2          3          4          5          6
     1  C    4.239110   0.000000   0.000000   0.000000   0.000000   0.000000
     2  C    0.000000   4.310816   0.000000   0.000000   0.000000   0.000000
     3  H    0.000000   0.000000   0.858530   0.000000   0.000000   0.000000
     4  H    0.000000   0.000000   0.000000   0.858537   0.000000   0.000000
     5  H    0.000000   0.000000   0.000000   0.000000   0.856495   0.000000
     6  H    0.000000   0.000000   0.000000   0.000000   0.000000   0.856494
     7  C    0.000000   0.000000   0.000000   0.000000   0.000000   0.000000
     8  H    0.000000   0.000000   0.000000   0.000000   0.000000   0.000000
     9  H    0.000000   0.000000   0.000000   0.000000   0.000000   0.000000
    10  H    0.000000   0.000000   0.000000   0.000000   0.000000   0.000000
               7          8          9         10
     1  C    0.000000   0.000000   0.000000   0.000000
     2  C    0.000000   0.000000   0.000000   0.000000
     3  H    0.000000   0.000000   0.000000   0.000000
     4  H    0.000000   0.000000   0.000000   0.000000
     5  H    0.000000   0.000000   0.000000   0.000000
     6  H    0.000000   0.000000   0.000000   0.000000
     7  C    4.447639   0.000000   0.000000   0.000000
     8  H    0.000000   0.859413   0.000000   0.000000
     9  H    0.000000   0.000000   0.856483   0.000000
    10  H    0.000000   0.000000   0.000000   0.856484
          Atomic-Atomic Spin Densities.
               1          2          3          4          5          6
     1  C   -0.374714   0.000000   0.000000   0.000000   0.000000   0.000000
     2  C    0.000000   0.472600   0.000000   0.000000   0.000000   0.000000
     3  H    0.000000   0.000000   0.015748   0.000000   0.000000   0.000000
     4  H    0.000000   0.000000   0.000000   0.015744   0.000000   0.000000
     5  H    0.000000   0.000000   0.000000   0.000000  -0.015794   0.000000
     6  H    0.000000   0.000000   0.000000   0.000000   0.000000  -0.015794
     7  C    0.000000   0.000000   0.000000   0.000000   0.000000   0.000000
     8  H    0.000000   0.000000   0.000000   0.000000   0.000000   0.000000
     9  H    0.000000   0.000000   0.000000   0.000000   0.000000   0.000000
    10  H    0.000000   0.000000   0.000000   0.000000   0.000000   0.000000
               7          8          9         10
     1  C    0.000000   0.000000   0.000000   0.000000
     2  C    0.000000   0.000000   0.000000   0.000000
     3  H    0.000000   0.000000   0.000000   0.000000
     4  H    0.000000   0.000000   0.000000   0.000000
     5  H    0.000000   0.000000   0.000000   0.000000
     6  H    0.000000   0.000000   0.000000   0.000000
     7  C    0.994899   0.000000   0.000000   0.000000
     8  H    0.000000  -0.030439   0.000000   0.000000
     9  H    0.000000   0.000000  -0.031125   0.000000
    10  H    0.000000   0.000000   0.000000  -0.031124
 Mulliken charges and spin densities:
               1          2
     1  C   -0.239110  -0.374714
     2  C   -0.310816   0.472600
     3  H    0.141470   0.015748
     4  H    0.141463   0.015744
     5  H    0.143505  -0.015794
     6  H    0.143506  -0.015794
     7  C   -0.447639   0.994899
     8  H    0.140587  -0.030439
     9  H    0.143517  -0.031125
    10  H    0.143516  -0.031124
 Sum of Mulliken charges =  -0.00000   1.00000
 Mulliken charges and spin densities with hydrogens summed into heavy atoms:
               1          2
     1  C    0.043823  -0.343222
     2  C   -0.023805   0.441011
     7  C   -0.020018   0.902211
 Charge=             -0.0000 electrons
 Dipole moment (field-independent basis, Debye):
    X=              0.2480    Y=              0.0564    Z=             -0.0000  Tot=              0.2543
 N-N= 5.365257589395D+01 E-N=-6.902173241814D+01  KE=-2.669428816207D+01
 Leave Link  601 at Wed Oct 21 14:25:59 2020, MaxMem=  2684354560 cpu:               2.8 elap:               1.0
 (Enter /udrive/faculty/rpeverati/g16/g16/l701.exe)
 ... and contract with generalized density number  0.
 Compute integral first derivatives.
 Leave Link  701 at Wed Oct 21 14:26:01 2020, MaxMem=  2684354560 cpu:               5.1 elap:               1.1
 (Enter /udrive/faculty/rpeverati/g16/g16/l702.exe)
 L702 exits ... SP integral derivatives will be done elsewhere.
 Leave Link  702 at Wed Oct 21 14:26:03 2020, MaxMem=  2684354560 cpu:               3.1 elap:               1.5
 (Enter /udrive/faculty/rpeverati/g16/g16/l703.exe)
 Integral derivatives from FoFJK, PRISM(SPDF).
 Compute integral first derivatives, UseDBF=F ICtDFT=           0.
 Calling FoFJK, ICntrl=      2127 FMM=F ISym2X=0 I1Cent= 0 IOpClX= 1 NMat=1 NMatS=1 NMatT=0.
 FoFJK:  IHMeth=40 ICntrl=    2127 DoSepK=F KAlg= 0 I1Cent=           0 FoldK=F
 IRaf=         0 NMat=       1 IRICut=       1 DoRegI=T DoRafI=F ISym2E= 0 IDoP0=3 IntGTp=3.
 FoFCou: FMM=F IPFlag=           0 FMFlag=      100000 FMFlg1=         800
         NFxFlg=           0 DoJE=F BraDBF=F KetDBF=F FulRan=T
         wScrn=  0.000000 ICntrl=      2127 IOpCl=  1 I1Cent=           0 NGrid=           0
         NMat0=    1 NMatS0=      1 NMatT0=    0 NMatD0=    1 NMtDS0=    0 NMtDT0=    0
 Symmetry not used in FoFCou.
 Leave Link  703 at Wed Oct 21 14:26:05 2020, MaxMem=  2684354560 cpu:               4.7 elap:               1.4
 (Enter /udrive/faculty/rpeverati/g16/g16/l716.exe)
 Dipole        = 9.75750370D-02 2.21752177D-02-8.27659113D-07
 ***** Axes restored to original set *****
 -------------------------------------------------------------------
 Center     Atomic                   Forces (Hartrees/Bohr)
 Number     Number              X              Y              Z
 -------------------------------------------------------------------
      1        6          -0.020510591   -0.002761350    0.000005637
      2        6           0.016974686    0.004887255   -0.000000434
      3        1           0.005732817   -0.000048953    0.000230202
      4        1           0.005739939   -0.000047570   -0.000235194
      5        1          -0.002084355   -0.001055857   -0.003455595
      6        1          -0.002083106   -0.001052325    0.003454235
      7        6           0.017546503   -0.007594756   -0.000001622
      8        1          -0.010359931   -0.005240650    0.000013888
      9        1          -0.005475115    0.006462832    0.006953022
     10        1          -0.005480848    0.006451375   -0.006964140
 -------------------------------------------------------------------
 Cartesian Forces:  Max     0.020510591 RMS     0.007260947
 Leave Link  716 at Wed Oct 21 14:26:07 2020, MaxMem=  2684354560 cpu:               4.8 elap:               1.2
 (Enter /udrive/faculty/rpeverati/g16/g16/l103.exe)

 GradGradGradGradGradGradGradGradGradGradGradGradGradGradGradGradGradGrad
 Berny optimization.
 Optmz: redundant internal coordinate code flag= 1
 FormGI is forming the generalized inverse of G from B-inverse, IUseBI=4.
 Internal  Forces:  Max     0.010640147 RMS     0.004837793
 Search for a saddle point.
 Step number   1 out of a maximum of   50
 All quantities printed in internal units (Hartrees-Bohrs-Radians)
 Swapping is turned off.
 Second derivative matrix not updated -- first step.
 The second derivative matrix:
                          R1        R2        R3        R4        R5
           R1           0.53013
           R2           0.00000   0.35909
           R3           0.00000   0.00000   0.35907
           R4           0.00000   0.00000   0.00000   0.05311
           R5           0.00000   0.00000   0.00000   0.00000   0.35873
           R6           0.00000   0.00000   0.00000   0.00000   0.00000
           R7           0.00000   0.00000   0.00000   0.00000   0.00000
           R8           0.00000   0.00000   0.00000   0.00000   0.00000
           R9           0.00000   0.00000   0.00000   0.00000   0.00000
           A1           0.00000   0.00000   0.00000   0.00000   0.00000
           A2           0.00000   0.00000   0.00000   0.00000   0.00000
           A3           0.00000   0.00000   0.00000   0.00000   0.00000
           A4           0.00000   0.00000   0.00000   0.00000   0.00000
           A5           0.00000   0.00000   0.00000   0.00000   0.00000
           A6           0.00000   0.00000   0.00000   0.00000   0.00000
           A7           0.00000   0.00000   0.00000   0.00000   0.00000
           A8           0.00000   0.00000   0.00000   0.00000   0.00000
           A9           0.00000   0.00000   0.00000   0.00000   0.00000
           A10          0.00000   0.00000   0.00000   0.00000   0.00000
           A11          0.00000   0.00000   0.00000   0.00000   0.00000
           A12          0.00000   0.00000   0.00000   0.00000   0.00000
           A13          0.00000   0.00000   0.00000   0.00000   0.00000
           A14          0.00000   0.00000   0.00000   0.00000   0.00000
           A15          0.00000   0.00000   0.00000   0.00000   0.00000
           D1           0.00000   0.00000   0.00000   0.00000   0.00000
           D2           0.00000   0.00000   0.00000   0.00000   0.00000
           D3           0.00000   0.00000   0.00000   0.00000   0.00000
           D4           0.00000   0.00000   0.00000   0.00000   0.00000
           D5           0.00000   0.00000   0.00000   0.00000   0.00000
           D6           0.00000   0.00000   0.00000   0.00000   0.00000
           D7           0.00000   0.00000   0.00000   0.00000   0.00000
           D8           0.00000   0.00000   0.00000   0.00000   0.00000
           D9           0.00000   0.00000   0.00000   0.00000   0.00000
           D10          0.00000   0.00000   0.00000   0.00000   0.00000
           D11          0.00000   0.00000   0.00000   0.00000   0.00000
           D12          0.00000   0.00000   0.00000   0.00000   0.00000
           D13          0.00000   0.00000   0.00000   0.00000   0.00000
           D14          0.00000   0.00000   0.00000   0.00000   0.00000
           D15          0.00000   0.00000   0.00000   0.00000   0.00000
                          R6        R7        R8        R9        A1
           R6           0.35873
           R7           0.00000   0.35808
           R8           0.00000   0.00000   0.35992
           R9           0.00000   0.00000   0.00000   0.35992
           A1           0.00000   0.00000   0.00000   0.00000   0.16000
           A2           0.00000   0.00000   0.00000   0.00000   0.00000
           A3           0.00000   0.00000   0.00000   0.00000   0.00000
           A4           0.00000   0.00000   0.00000   0.00000   0.00000
           A5           0.00000   0.00000   0.00000   0.00000   0.00000
           A6           0.00000   0.00000   0.00000   0.00000   0.00000
           A7           0.00000   0.00000   0.00000   0.00000   0.00000
           A8           0.00000   0.00000   0.00000   0.00000   0.00000
           A9           0.00000   0.00000   0.00000   0.00000   0.00000
           A10          0.00000   0.00000   0.00000   0.00000   0.00000
           A11          0.00000   0.00000   0.00000   0.00000   0.00000
           A12          0.00000   0.00000   0.00000   0.00000   0.00000
           A13          0.00000   0.00000   0.00000   0.00000   0.00000
           A14          0.00000   0.00000   0.00000   0.00000   0.00000
           A15          0.00000   0.00000   0.00000   0.00000   0.00000
           D1           0.00000   0.00000   0.00000   0.00000   0.00000
           D2           0.00000   0.00000   0.00000   0.00000   0.00000
           D3           0.00000   0.00000   0.00000   0.00000   0.00000
           D4           0.00000   0.00000   0.00000   0.00000   0.00000
           D5           0.00000   0.00000   0.00000   0.00000   0.00000
           D6           0.00000   0.00000   0.00000   0.00000   0.00000
           D7           0.00000   0.00000   0.00000   0.00000   0.00000
           D8           0.00000   0.00000   0.00000   0.00000   0.00000
           D9           0.00000   0.00000   0.00000   0.00000   0.00000
           D10          0.00000   0.00000   0.00000   0.00000   0.00000
           D11          0.00000   0.00000   0.00000   0.00000   0.00000
           D12          0.00000   0.00000   0.00000   0.00000   0.00000
           D13          0.00000   0.00000   0.00000   0.00000   0.00000
           D14          0.00000   0.00000   0.00000   0.00000   0.00000
           D15          0.00000   0.00000   0.00000   0.00000   0.00000
                          A2        A3        A4        A5        A6
           A2           0.16000
           A3           0.00000   0.25000
           A4           0.00000   0.00000   0.16000
           A5           0.00000   0.00000   0.00000   0.16000
           A6           0.00000   0.00000   0.00000   0.00000   0.16000
           A7           0.00000   0.00000   0.00000   0.00000   0.00000
           A8           0.00000   0.00000   0.00000   0.00000   0.00000
           A9           0.00000   0.00000   0.00000   0.00000   0.00000
           A10          0.00000   0.00000   0.00000   0.00000   0.00000
           A11          0.00000   0.00000   0.00000   0.00000   0.00000
           A12          0.00000   0.00000   0.00000   0.00000   0.00000
           A13          0.00000   0.00000   0.00000   0.00000   0.00000
           A14          0.00000   0.00000   0.00000   0.00000   0.00000
           A15          0.00000   0.00000   0.00000   0.00000   0.00000
           D1           0.00000   0.00000   0.00000   0.00000   0.00000
           D2           0.00000   0.00000   0.00000   0.00000   0.00000
           D3           0.00000   0.00000   0.00000   0.00000   0.00000
           D4           0.00000   0.00000   0.00000   0.00000   0.00000
           D5           0.00000   0.00000   0.00000   0.00000   0.00000
           D6           0.00000   0.00000   0.00000   0.00000   0.00000
           D7           0.00000   0.00000   0.00000   0.00000   0.00000
           D8           0.00000   0.00000   0.00000   0.00000   0.00000
           D9           0.00000   0.00000   0.00000   0.00000   0.00000
           D10          0.00000   0.00000   0.00000   0.00000   0.00000
           D11          0.00000   0.00000   0.00000   0.00000   0.00000
           D12          0.00000   0.00000   0.00000   0.00000   0.00000
           D13          0.00000   0.00000   0.00000   0.00000   0.00000
           D14          0.00000   0.00000   0.00000   0.00000   0.00000
           D15          0.00000   0.00000   0.00000   0.00000   0.00000
                          A7        A8        A9        A10       A11
           A7           0.16000
           A8           0.00000   0.16000
           A9           0.00000   0.00000   0.16000
           A10          0.00000   0.00000   0.00000   0.16000
           A11          0.00000   0.00000   0.00000   0.00000   0.16000
           A12          0.00000   0.00000   0.00000   0.00000   0.00000
           A13          0.00000   0.00000   0.00000   0.00000   0.00000
           A14          0.00000   0.00000   0.00000   0.00000   0.00000
           A15          0.00000   0.00000   0.00000   0.00000   0.00000
           D1           0.00000   0.00000   0.00000   0.00000   0.00000
           D2           0.00000   0.00000   0.00000   0.00000   0.00000
           D3           0.00000   0.00000   0.00000   0.00000   0.00000
           D4           0.00000   0.00000   0.00000   0.00000   0.00000
           D5           0.00000   0.00000   0.00000   0.00000   0.00000
           D6           0.00000   0.00000   0.00000   0.00000   0.00000
           D7           0.00000   0.00000   0.00000   0.00000   0.00000
           D8           0.00000   0.00000   0.00000   0.00000   0.00000
           D9           0.00000   0.00000   0.00000   0.00000   0.00000
           D10          0.00000   0.00000   0.00000   0.00000   0.00000
           D11          0.00000   0.00000   0.00000   0.00000   0.00000
           D12          0.00000   0.00000   0.00000   0.00000   0.00000
           D13          0.00000   0.00000   0.00000   0.00000   0.00000
           D14          0.00000   0.00000   0.00000   0.00000   0.00000
           D15          0.00000   0.00000   0.00000   0.00000   0.00000
                          A12       A13       A14       A15       D1
           A12          0.16000
           A13          0.00000   0.16000
           A14          0.00000   0.00000   0.16000
           A15          0.00000   0.00000   0.00000   0.16000
           D1           0.00000   0.00000   0.00000   0.00000   0.02622
           D2           0.00000   0.00000   0.00000   0.00000   0.00000
           D3           0.00000   0.00000   0.00000   0.00000   0.00000
           D4           0.00000   0.00000   0.00000   0.00000   0.00000
           D5           0.00000   0.00000   0.00000   0.00000   0.00000
           D6           0.00000   0.00000   0.00000   0.00000   0.00000
           D7           0.00000   0.00000   0.00000   0.00000   0.00000
           D8           0.00000   0.00000   0.00000   0.00000   0.00000
           D9           0.00000   0.00000   0.00000   0.00000   0.00000
           D10          0.00000   0.00000   0.00000   0.00000   0.00000
           D11          0.00000   0.00000   0.00000   0.00000   0.00000
           D12          0.00000   0.00000   0.00000   0.00000   0.00000
           D13          0.00000   0.00000   0.00000   0.00000   0.00000
           D14          0.00000   0.00000   0.00000   0.00000   0.00000
           D15          0.00000   0.00000   0.00000   0.00000   0.00000
                          D2        D3        D4        D5        D6
           D2           0.02622
           D3           0.00000   0.02622
           D4           0.00000   0.00000   0.02622
           D5           0.00000   0.00000   0.00000   0.02622
           D6           0.00000   0.00000   0.00000   0.00000   0.02622
           D7           0.00000   0.00000   0.00000   0.00000   0.00000
           D8           0.00000   0.00000   0.00000   0.00000   0.00000
           D9           0.00000   0.00000   0.00000   0.00000   0.00000
           D10          0.00000   0.00000   0.00000   0.00000   0.00000
           D11          0.00000   0.00000   0.00000   0.00000   0.00000
           D12          0.00000   0.00000   0.00000   0.00000   0.00000
           D13          0.00000   0.00000   0.00000   0.00000   0.00000
           D14          0.00000   0.00000   0.00000   0.00000   0.00000
           D15          0.00000   0.00000   0.00000   0.00000   0.00000
                          D7        D8        D9        D10       D11
           D7           0.00230
           D8           0.00000   0.00230
           D9           0.00000   0.00000   0.00230
           D10          0.00000   0.00000   0.00000   0.00230
           D11          0.00000   0.00000   0.00000   0.00000   0.00230
           D12          0.00000   0.00000   0.00000   0.00000   0.00000
           D13          0.00000   0.00000   0.00000   0.00000   0.00000
           D14          0.00000   0.00000   0.00000   0.00000   0.00000
           D15          0.00000   0.00000   0.00000   0.00000   0.00000
                          D12       D13       D14       D15
           D12          0.00230
           D13          0.00000   0.00230
           D14          0.00000   0.00000   0.00230
           D15          0.00000   0.00000   0.00000   0.00230
 ITU=  0
 Eigenvectors of the second derivative matrix:
                           1         2         3         4         5
     Eigenvalues --     0.00230   0.02622   0.02639   0.05311   0.05392
   1         R1        -0.00000  -0.00000   0.00000  -0.00000   0.00000
   2         R2        -0.00000  -0.00000  -0.00000   0.00000   0.00000
   3         R3         0.00000   0.00000  -0.00000  -0.00000  -0.00000
   4         R4        -0.00000   0.00000   0.00000  -1.00000   0.00000
   5         R5        -0.00000   0.00000   0.00000   0.00000   0.00000
   6         R6         0.00000  -0.00000   0.00000   0.00000  -0.00000
   7         R7        -0.00000   0.00000   0.00000  -0.00000   0.00000
   8         R8        -0.00000   0.00000   0.00000  -0.00000  -0.00000
   9         R9        -0.00000  -0.00000  -0.00000  -0.00000  -0.00000
  10         A1         0.00000  -0.00000  -0.00000   0.00000   0.02381
  11         A2         0.00000   0.00000   0.00000  -0.00000   0.02414
  12         A3        -0.00000  -0.00000   0.00000   0.00000   0.13582
  13         A4        -0.00000   0.00000  -0.00000  -0.00000  -0.28368
  14         A5        -0.00000  -0.00000   0.00000   0.00000   0.24291
  15         A6         0.00000   0.00000   0.00000   0.00000   0.24313
  16         A7        -0.00000   0.00000  -0.02074  -0.00000   0.00000
  17         A8         0.00000   0.00000  -0.02074   0.00000  -0.00000
  18         A9         0.00000  -0.00000  -0.02082  -0.00000   0.00000
  19         A10        0.00000   0.00000   0.00000   0.00000  -0.00000
  20         A11       -0.00000  -0.00000   0.00000   0.00000   0.00000
  21         A12       -0.00000  -0.00000  -0.00000   0.00000  -0.00000
  22         A13        0.00000   0.00000  -0.00000  -0.00000   0.00000
  23         A14        0.00000  -0.00000  -0.00000  -0.00000   0.00000
  24         A15        0.00000   0.00000   0.00000   0.00000  -0.00000
  25         D1         0.00000   0.40825  -0.40798   0.00000   0.40307
  26         D2        -0.00000   0.40825   0.40798   0.00000   0.40307
  27         D3         0.00000   0.40825  -0.40798  -0.00000  -0.40320
  28         D4        -0.00000   0.40825   0.40798  -0.00000  -0.40320
  29         D5         0.00000   0.40825  -0.40798  -0.00000   0.00014
  30         D6         0.00000   0.40825   0.40798   0.00000   0.00014
  31         D7         0.33333  -0.00000   0.00000   0.00000  -0.00018
  32         D8         0.33333  -0.00000   0.00000   0.00000  -0.00018
  33         D9         0.33333  -0.00000   0.00000   0.00000  -0.00018
  34         D10        0.33333   0.00000   0.00000  -0.00000  -0.14809
  35         D11        0.33333   0.00000   0.00000  -0.00000  -0.14809
  36         D12        0.33333   0.00000   0.00000  -0.00000  -0.14809
  37         D13        0.33333   0.00000   0.00000   0.00000   0.14827
  38         D14        0.33333   0.00000   0.00000   0.00000   0.14827
  39         D15        0.33333   0.00000   0.00000   0.00000   0.14827
                           6         7         8         9        10
     Eigenvalues --     0.06085   0.07245   0.07332   0.09012   0.11652
   1         R1         0.00000  -0.00000   0.00000  -0.00000  -0.00000
   2         R2         0.00000  -0.00000   0.00000  -0.00000  -0.00000
   3         R3        -0.00000  -0.00000  -0.00000  -0.00000  -0.00000
   4         R4        -0.00000   0.00000  -0.00000   0.00000   0.00000
   5         R5        -0.00000   0.00000  -0.00000  -0.00000  -0.00000
   6         R6         0.00000  -0.00000  -0.00000   0.00000  -0.00000
   7         R7        -0.00000  -0.00000   0.00000  -0.00000   0.00000
   8         R8        -0.00000   0.00000   0.00000  -0.00000   0.00000
   9         R9        -0.00000   0.00000  -0.00000   0.00000   0.00000
  10         A1        -0.33338   0.00000   0.00000  -0.31691   0.37250
  11         A2         0.33336  -0.00000  -0.00000  -0.31667  -0.37271
  12         A3        -0.00006   0.00000   0.00000   0.10100  -0.00001
  13         A4         0.00014  -0.00000   0.00000   0.49788   0.00018
  14         A5        -0.23384   0.00000   0.00000   0.19492  -0.45527
  15         A6         0.23353  -0.00000  -0.00000   0.19469   0.45548
  16         A7         0.00000   0.00000   0.00000   0.00000   0.00000
  17         A8         0.00000  -0.00000   0.00000   0.00000  -0.00000
  18         A9        -0.00000   0.00000  -0.00000  -0.00000   0.00000
  19         A10       -0.00000  -0.15698  -0.00012   0.00000   0.00000
  20         A11       -0.00000   0.08405  -0.13035  -0.00000  -0.00000
  21         A12        0.00000   0.08381   0.13050  -0.00000  -0.00000
  22         A13       -0.00000  -0.26323  -0.45648  -0.00000  -0.00000
  23         A14        0.00000  -0.26400   0.45601  -0.00000   0.00000
  24         A15        0.00000   0.51683   0.00044   0.00000   0.00000
  25         D1        -0.14806   0.00000   0.00000   0.16436  -0.13224
  26         D2        -0.14806   0.00000   0.00000   0.16436  -0.13224
  27         D3        -0.14763  -0.00000   0.00000  -0.16429  -0.13234
  28         D4        -0.14763  -0.00000   0.00000  -0.16429  -0.13234
  29         D5         0.29569  -0.00000  -0.00000  -0.00008   0.26458
  30         D6         0.29569  -0.00000  -0.00000  -0.00008   0.26458
  31         D7        -0.30045   0.00030  -0.34949  -0.00007   0.14726
  32         D8        -0.30045   0.30403   0.17501  -0.00007   0.14726
  33         D9        -0.30045  -0.30433   0.17449  -0.00007   0.14726
  34         D10        0.15028   0.00030  -0.34949   0.24406  -0.07358
  35         D11        0.15028   0.30403   0.17501   0.24406  -0.07358
  36         D12        0.15028  -0.30433   0.17449   0.24406  -0.07358
  37         D13        0.15017   0.00030  -0.34949  -0.24399  -0.07368
  38         D14        0.15017   0.30403   0.17501  -0.24399  -0.07368
  39         D15        0.15017  -0.30433   0.17449  -0.24399  -0.07368
                          11        12        13        14        15
     Eigenvalues --     0.16000   0.16000   0.16000   0.16000   0.16000
   1         R1         0.00000  -0.00000   0.00000   0.00000  -0.00000
   2         R2         0.00000  -0.00000  -0.00000   0.00000  -0.00000
   3         R3        -0.00000   0.00000  -0.00000  -0.00000  -0.00000
   4         R4         0.00000  -0.00000   0.00000  -0.00000   0.00000
   5         R5        -0.00000   0.00000   0.00000   0.00000   0.00000
   6         R6        -0.00000   0.00000   0.00000   0.00000  -0.00000
   7         R7        -0.00000   0.00000   0.00000  -0.00000   0.00000
   8         R8        -0.00000   0.00000  -0.00000   0.00000   0.00000
   9         R9         0.00000  -0.00000   0.00000  -0.00000  -0.00000
  10         A1        -0.00000   0.00000   0.00000  -0.00000   0.00000
  11         A2         0.00000  -0.00000  -0.00000  -0.00000  -0.00000
  12         A3        -0.00000  -0.00000   0.00000  -0.00000   0.00000
  13         A4        -0.00000   0.00000   0.00000   0.00000  -0.00000
  14         A5         0.00000   0.00000  -0.00000  -0.00000  -0.00000
  15         A6        -0.00000   0.00000   0.00000   0.00000   0.00000
  16         A7         0.32731   0.05861   0.35715  -0.30646  -0.57923
  17         A8        -0.30902  -0.00636  -0.06601  -0.45641   0.59946
  18         A9        -0.01822  -0.05204  -0.28998   0.75984  -0.02014
  19         A10        0.55542  -0.66533  -0.25818  -0.12669   0.15438
  20         A11       -0.55136  -0.59098   0.40888   0.09781  -0.17100
  21         A12        0.33450   0.16469   0.65489   0.28144   0.46058
  22         A13       -0.00776   0.36702  -0.04001   0.00976   0.00292
  23         A14       -0.26102   0.15104  -0.11035  -0.04273  -0.17764
  24         A15        0.06684   0.13139  -0.32786  -0.11689  -0.08925
  25         D1         0.00000  -0.00000  -0.00000   0.00000  -0.00000
  26         D2         0.00000   0.00000   0.00000   0.00000   0.00000
  27         D3         0.00000  -0.00000  -0.00000   0.00000  -0.00000
  28         D4        -0.00000   0.00000  -0.00000  -0.00000  -0.00000
  29         D5        -0.00000  -0.00000   0.00000   0.00000   0.00000
  30         D6        -0.00000   0.00000   0.00000   0.00000   0.00000
  31         D7        -0.00000   0.00000   0.00000  -0.00000   0.00000
  32         D8        -0.00000  -0.00000   0.00000  -0.00000   0.00000
  33         D9        -0.00000   0.00000   0.00000   0.00000   0.00000
  34         D10       -0.00000  -0.00000  -0.00000   0.00000  -0.00000
  35         D11       -0.00000  -0.00000   0.00000   0.00000   0.00000
  36         D12        0.00000   0.00000  -0.00000   0.00000  -0.00000
  37         D13        0.00000  -0.00000  -0.00000  -0.00000  -0.00000
  38         D14        0.00000  -0.00000   0.00000  -0.00000   0.00000
  39         D15        0.00000   0.00000  -0.00000   0.00000  -0.00000
                          16        17        18        19        20
     Eigenvalues --     0.22007   0.35808   0.35873   0.35873   0.35907
   1         R1         0.00000   0.00000  -0.00000  -0.00000  -0.00000
   2         R2        -0.00000   0.00000   0.00000   0.00000   0.00000
   3         R3        -0.00000   0.00000  -0.00000  -0.00000  -1.00000
   4         R4         0.00000  -0.00000   0.00000   0.00000   0.00000
   5         R5         0.00000  -0.00000   1.00000  -0.00000  -0.00000
   6         R6         0.00000  -0.00000   0.00000   1.00000  -0.00000
   7         R7         0.00000   1.00000   0.00000   0.00000   0.00000
   8         R8        -0.00000  -0.00000   0.00000  -0.00000   0.00000
   9         R9        -0.00000  -0.00000   0.00000  -0.00000   0.00000
  10         A1         0.01907  -0.00000   0.00000   0.00000  -0.00000
  11         A2         0.01923   0.00000  -0.00000  -0.00000  -0.00000
  12         A3        -0.82864   0.00000   0.00000   0.00000   0.00000
  13         A4        -0.00364   0.00000   0.00000  -0.00000   0.00000
  14         A5         0.38722   0.00000  -0.00000  -0.00000  -0.00000
  15         A6         0.38716  -0.00000   0.00000   0.00000  -0.00000
  16         A7        -0.00000   0.00000   0.00000  -0.00000   0.00000
  17         A8         0.00000  -0.00000  -0.00000   0.00000  -0.00000
  18         A9        -0.00000   0.00000  -0.00000  -0.00000  -0.00000
  19         A10        0.00000   0.00000   0.00000   0.00000  -0.00000
  20         A11        0.00000   0.00000   0.00000  -0.00000  -0.00000
  21         A12        0.00000  -0.00000  -0.00000  -0.00000  -0.00000
  22         A13       -0.00000  -0.00000  -0.00000  -0.00000   0.00000
  23         A14       -0.00000  -0.00000   0.00000  -0.00000   0.00000
  24         A15       -0.00000   0.00000   0.00000   0.00000   0.00000
  25         D1        -0.05464  -0.00000  -0.00000   0.00000   0.00000
  26         D2        -0.05464  -0.00000  -0.00000   0.00000  -0.00000
  27         D3         0.05463   0.00000  -0.00000  -0.00000   0.00000
  28         D4         0.05463   0.00000  -0.00000   0.00000   0.00000
  29         D5         0.00001  -0.00000   0.00000   0.00000   0.00000
  30         D6         0.00001  -0.00000   0.00000   0.00000   0.00000
  31         D7         0.00001   0.00000  -0.00000   0.00000   0.00000
  32         D8         0.00001   0.00000   0.00000   0.00000  -0.00000
  33         D9         0.00001  -0.00000   0.00000   0.00000  -0.00000
  34         D10       -0.01182   0.00000   0.00000  -0.00000   0.00000
  35         D11       -0.01182   0.00000   0.00000  -0.00000  -0.00000
  36         D12       -0.01182  -0.00000   0.00000  -0.00000  -0.00000
  37         D13        0.01181   0.00000  -0.00000  -0.00000   0.00000
  38         D14        0.01181   0.00000   0.00000   0.00000  -0.00000
  39         D15        0.01181  -0.00000   0.00000  -0.00000  -0.00000
                          21        22        23        24
     Eigenvalues --     0.35909   0.35992   0.35992   0.53013
   1         R1         0.00000  -0.00000   0.00000   1.00000
   2         R2        -1.00000   0.00000  -0.00000   0.00000
   3         R3        -0.00000  -0.00000   0.00000  -0.00000
   4         R4        -0.00000   0.00000   0.00000  -0.00000
   5         R5         0.00000   0.00000  -0.00000   0.00000
   6         R6         0.00000  -0.00000   0.00000   0.00000
   7         R7         0.00000  -0.00000   0.00000  -0.00000
   8         R8        -0.00000   0.00000   1.00000  -0.00000
   9         R9        -0.00000  -1.00000   0.00000   0.00000
  10         A1        -0.00000   0.00000  -0.00000  -0.00000
  11         A2         0.00000  -0.00000  -0.00000   0.00000
  12         A3         0.00000   0.00000  -0.00000   0.00000
  13         A4        -0.00000   0.00000   0.00000   0.00000
  14         A5         0.00000  -0.00000   0.00000  -0.00000
  15         A6        -0.00000  -0.00000   0.00000  -0.00000
  16         A7        -0.00000   0.00000   0.00000   0.00000
  17         A8        -0.00000  -0.00000  -0.00000   0.00000
  18         A9         0.00000  -0.00000  -0.00000  -0.00000
  19         A10        0.00000   0.00000   0.00000  -0.00000
  20         A11        0.00000   0.00000   0.00000  -0.00000
  21         A12       -0.00000  -0.00000  -0.00000  -0.00000
  22         A13       -0.00000  -0.00000  -0.00000   0.00000
  23         A14        0.00000  -0.00000   0.00000   0.00000
  24         A15       -0.00000   0.00000  -0.00000   0.00000
  25         D1        -0.00000  -0.00000   0.00000  -0.00000
  26         D2        -0.00000  -0.00000  -0.00000  -0.00000
  27         D3        -0.00000  -0.00000   0.00000   0.00000
  28         D4        -0.00000   0.00000  -0.00000  -0.00000
  29         D5        -0.00000  -0.00000  -0.00000   0.00000
  30         D6        -0.00000  -0.00000  -0.00000   0.00000
  31         D7        -0.00000   0.00000  -0.00000   0.00000
  32         D8        -0.00000   0.00000  -0.00000   0.00000
  33         D9        -0.00000  -0.00000  -0.00000   0.00000
  34         D10       -0.00000   0.00000  -0.00000   0.00000
  35         D11        0.00000   0.00000  -0.00000   0.00000
  36         D12        0.00000  -0.00000  -0.00000   0.00000
  37         D13        0.00000   0.00000  -0.00000  -0.00000
  38         D14        0.00000  -0.00000  -0.00000  -0.00000
  39         D15        0.00000  -0.00000  -0.00000  -0.00000
 Eigenvalue     1 is   2.30D-03 should be less than     0.000000 Eigenvector:
                          D14       D15       D13       D9        D8
   1                    0.33333   0.33333   0.33333   0.33333   0.33333
                          D11       D12       D7        D10       D5
   1                    0.33333   0.33333   0.33333   0.33333   0.00000
 RLam0= 2.30D-03.
 Iter=   1 RLamda= 0.00000000D+00 Sum=-5.19903075D-03.
 Iter=   2 RLamda=-5.19903075D-03 Sum=-4.97396003D-03.
 Iter=   3 RLamda=-4.97396003D-03 Sum=-4.98312015D-03.
 Iter=   4 RLamda=-4.98312015D-03 Sum=-4.98274640D-03.
 Iter=   5 RLamda=-4.98274640D-03 Sum=-4.98276165D-03.
 Iter=   6 RLamda=-4.98276165D-03 Sum=-4.98276102D-03.
 RFO step:  Lambda0=2.300010134D-03 Lambda=-4.98276165D-03.
 Linear search not attempted -- option 19 set.
 Maximum step size (   0.100) exceeded in Quadratic search.
    -- Step size scaled by   0.625
 Iteration  1 RMS(Cart)=  0.04215213 RMS(Int)=  0.00088530
 Iteration  2 RMS(Cart)=  0.00071194 RMS(Int)=  0.00051181
 Iteration  3 RMS(Cart)=  0.00000072 RMS(Int)=  0.00051181
 ITry= 1 IFail=0 DXMaxC= 1.33D-01 DCOld= 1.00D+10 DXMaxT= 1.00D-01 DXLimC= 3.00D+00 Rises=F
 Variable       Old X    -DE/DX   Delta X   Delta X   Delta X     New X
                                 (Linear)    (Quad)   (Total)
    R1        2.56942  -0.01064   0.00000  -0.01244  -0.01244   2.55698
    R2        2.04224   0.00105   0.00000   0.00181   0.00181   2.04405
    R3        2.04227   0.00105   0.00000   0.00181   0.00181   2.04407
    R4        4.28115  -0.00350   0.00000  -0.03767  -0.03767   4.24348
    R5        2.04281  -0.00185   0.00000  -0.00318  -0.00318   2.03963
    R6        2.04281  -0.00185   0.00000  -0.00318  -0.00318   2.03963
    R7        2.04384  -0.01000   0.00000  -0.01723  -0.01723   2.02661
    R8        2.04093  -0.00920   0.00000  -0.01576  -0.01576   2.02517
    R9        2.04094  -0.00920   0.00000  -0.01577  -0.01577   2.02517
    A1        2.10043   0.00248   0.00000   0.01526   0.01431   2.11474
    A2        2.10029   0.00249   0.00000   0.01530   0.01436   2.11465
    A3        1.90168  -0.00686   0.00000  -0.02896  -0.02869   1.87299
    A4        2.02710  -0.00217   0.00000  -0.00680  -0.00759   2.01951
    A5        1.55458  -0.00068   0.00000  -0.01999  -0.01976   1.53482
    A6        1.55485  -0.00069   0.00000  -0.02002  -0.01979   1.53506
    A7        2.11741   0.00255   0.00000   0.01008   0.01001   2.12742
    A8        2.11748   0.00254   0.00000   0.01005   0.00999   2.12746
    A9        2.04475  -0.00499   0.00000  -0.01847  -0.01854   2.02621
   A10        1.73744  -0.00889   0.00000  -0.03343  -0.03412   1.70333
   A11        1.75859  -0.00899   0.00000  -0.03424  -0.03493   1.72367
   A12        1.75862  -0.00900   0.00000  -0.03425  -0.03493   1.72368
   A13        2.04062   0.00533   0.00000   0.02063   0.01923   2.05985
   A14        2.04069   0.00532   0.00000   0.02061   0.01921   2.05990
   A15        2.03650   0.00533   0.00000   0.01937   0.01794   2.05444
    D1       -3.00569  -0.00371   0.00000  -0.02659  -0.02682  -3.03251
    D2        0.22889  -0.00476   0.00000  -0.04742  -0.04764   0.18125
    D3       -0.22886   0.00476   0.00000   0.04742   0.04764  -0.18121
    D4        3.00572   0.00371   0.00000   0.02660   0.02682   3.03254
    D5        1.52445   0.00052   0.00000   0.01041   0.01041   1.53486
    D6       -1.52415  -0.00052   0.00000  -0.01041  -0.01042  -1.53457
    D7        3.14041  -0.00000   0.00000  -0.04211  -0.04211   3.09829
    D8        1.04686  -0.00012   0.00000  -0.04306  -0.04305   1.00381
    D9       -1.04914   0.00011   0.00000  -0.04120  -0.04121  -1.09035
   D10        1.01255  -0.00106   0.00000  -0.04498  -0.04508   0.96747
   D11       -1.08100  -0.00118   0.00000  -0.04593  -0.04601  -1.12701
   D12        3.10619  -0.00095   0.00000  -0.04407  -0.04417   3.06202
   D13       -1.01496   0.00107   0.00000  -0.03921  -0.03912  -1.05408
   D14       -3.10851   0.00095   0.00000  -0.04016  -0.04006   3.13462
   D15        1.07868   0.00118   0.00000  -0.03830  -0.03821   1.04046
         Item               Value     Threshold  Converged?
 Maximum Force            0.010640     0.000450     NO 
 RMS     Force            0.004838     0.000300     NO 
 Maximum Displacement     0.132919     0.001800     NO 
 RMS     Displacement     0.042232     0.001200     NO 
 Predicted change in Energy=-2.166484D-03
 Lowest energy point so far.  Saving SCF results.
 Largest change from initial coordinates is atom    9       0.059 Angstoms.
 GradGradGradGradGradGradGradGradGradGradGradGradGradGradGradGradGradGrad

 Leave Link  103 at Wed Oct 21 14:26:09 2020, MaxMem=  2684354560 cpu:               8.3 elap:               1.5
 (Enter /udrive/faculty/rpeverati/g16/g16/l202.exe)
                          Input orientation:                          
 ---------------------------------------------------------------------
 Center     Atomic      Atomic             Coordinates (Angstroms)
 Number     Number       Type             X           Y           Z
 ---------------------------------------------------------------------
      1          6           0       -0.462546    0.652977    0.006561
      2          6           0       -1.348356   -0.369782   -0.006488
      3          1           0       -0.195594    1.173947   -0.903014
      4          1           0       -0.199030    1.153458    0.928573
      5          1           0       -1.698375   -0.832655    0.903558
      6          1           0       -1.694993   -0.812261   -0.927897
      7          6           0        1.595521   -0.245263    0.000065
      8          1           0        2.150314    0.671860   -0.034670
      9          1           0        1.519088   -0.821842   -0.900047
     10          1           0        1.547637   -0.769729    0.933408
 ---------------------------------------------------------------------
                    Distance matrix (angstroms):
                    1          2          3          4          5
     1  C    0.000000
     2  C    1.353095   0.000000
     3  H    1.081666   2.125023   0.000000
     4  H    1.081678   2.124982   1.831705   0.000000
     5  H    2.130488   1.079328   3.090066   2.488636   0.000000
     6  H    2.130507   1.079324   2.488742   3.090055   1.831572
     7  C    2.245555   2.946516   2.457194   2.457430   3.465701
     8  H    2.613254   3.650548   2.551352   2.584413   4.237481
     9  H    2.631332   3.037276   2.631220   3.193367   3.688520
    10  H    2.631344   3.070852   3.192049   2.597984   3.246759
                    6          7          8          9         10
     6  H    0.000000
     7  C    3.465557   0.000000
     8  H    4.217447   1.072435   0.000000
     9  H    3.214216   1.071675   1.838062   0.000000
    10  H    3.739106   1.071675   1.838089   1.834418   0.000000
 Stoichiometry    C3H7(2)
 Framework group  C1[X(C3H7)]
 Deg. of freedom    24
 Full point group                 C1      NOp   1
 RotChk:  IX=0 Diff= 1.75D-02
 Largest Abelian subgroup         C1      NOp   1
 Largest concise Abelian subgroup C1      NOp   1
                         Standard orientation:                         
 ---------------------------------------------------------------------
 Center     Atomic      Atomic             Coordinates (Angstroms)
 Number     Number       Type             X           Y           Z
 ---------------------------------------------------------------------
      1          6           0       -0.464676    0.655775    0.000069
      2          6           0       -1.355697   -0.362531   -0.000031
      3          1           0       -0.196722    1.165215   -0.915722
      4          1           0       -0.196952    1.165140    0.915983
      5          1           0       -1.706420   -0.813449    0.915728
      6          1           0       -1.706244   -0.813467   -0.915844
      7          6           0        1.588782   -0.252976   -0.000019
      8          1           0        2.148168    0.660859   -0.045943
      9          1           0        1.507792   -0.839145   -0.893515
     10          1           0        1.539919   -0.766765    0.939193
 ---------------------------------------------------------------------
 Rotational constants (GHZ):          27.5181212           6.7136190           6.0532955
 Leave Link  202 at Wed Oct 21 14:26:10 2020, MaxMem=  2684354560 cpu:               5.0 elap:               1.3
 (Enter /udrive/faculty/rpeverati/g16/g16/l301.exe)
 Standard basis: VSTO-6G (5D, 7F)
 Ernie: Thresh=  0.10000D-02 Tol=  0.10000D-05 Strict=F.
  NNHCO=     0 NNPyr=     0 NCTC=     0               EPep=         0.000000000
    EC=        35.244457958  ECS=         1.588148132   EG=         0.103455393
   EHC=         0.000316552  EAt=       -15.593967212  AtH=         1.398200403
 EPDDG=         0.000000000  ECC=        36.936378034 EAtT=        16.992167616
 There are    19 symmetry adapted cartesian basis functions of A   symmetry.
 There are    19 symmetry adapted basis functions of A   symmetry.
    19 basis functions,   114 primitive gaussians,    19 cartesian basis functions
    10 alpha electrons        9 beta electrons
       nuclear repulsion energy        53.9285456495 Hartrees.
 IExCor=    0 DFT=F Ex=HF Corr=None ExCW=0 ScaHFX=  1.000000
 ScaDFX=  1.000000  1.000000  1.000000  1.000000 ScalE2=  1.000000  1.000000
 IRadAn=      5 IRanWt=     -1 IRanGd=            0 ICorTp=0 IEmpDi=  4
 Integral buffers will be    131072 words long.
 Regular integral format.
 Two-electron integral symmetry is turned off.
 Leave Link  301 at Wed Oct 21 14:26:12 2020, MaxMem=  2684354560 cpu:               5.3 elap:               1.3
 (Enter /udrive/faculty/rpeverati/g16/g16/l302.exe)
 Do NDO integrals.
 NPDir=0 NMtPBC=     1 NCelOv=     1 NCel=       1 NClECP=     1 NCelD=      1
         NCelK=      1 NCelE2=     1 NClLst=     1 CellRange=     0.0.
 One-electron integrals computed using PRISM.
 NBasis=    19 RedAO= F EigKep=  0.00D+00  NBF=    19
 NBsUse=    19 1.00D-04 EigRej=  0.00D+00 NBFU=    19
 Leave Link  302 at Wed Oct 21 14:26:14 2020, MaxMem=  2684354560 cpu:               6.2 elap:               1.3
 (Enter /udrive/faculty/rpeverati/g16/g16/l303.exe)
 DipDrv:  MaxL=1.
 Leave Link  303 at Wed Oct 21 14:26:15 2020, MaxMem=  2684354560 cpu:               3.8 elap:               1.0
 (Enter /udrive/faculty/rpeverati/g16/g16/l401.exe)
 Initial guess from the checkpoint file:  "MN_17_c3h7ts_BH76_PM6_SE.chk"
 SCF N**3 symmetry information disabled.
 B after Tr=    -0.000000   -0.000000   -0.000000
         Rot=    0.999987    0.004431   -0.000585    0.002444 Ang=   0.58 deg.
 Guess basis will be translated and rotated to current coordinates.
 JPrj=0 DoOrth=T DoCkMO=T.
 Initial guess <Sx>= 0.0000 <Sy>= 0.0000 <Sz>= 0.5000 <S**2>= 0.8648 S= 0.5558
 Leave Link  401 at Wed Oct 21 14:26:17 2020, MaxMem=  2684354560 cpu:               4.7 elap:               1.3
 (Enter /udrive/faculty/rpeverati/g16/g16/l502.exe)
 Keep J ints in memory in canonical form, NReq=859987.
 FoFCou: FMM=F IPFlag=           0 FMFlag=           0 FMFlg1=           0
         NFxFlg=           0 DoJE=F BraDBF=F KetDBF=F FulRan=T
         wScrn=  0.000000 ICntrl=       600 IOpCl=  2 I1Cent=           0 NGrid=           0
         NMat0=    1 NMatS0=     37 NMatT0=    0 NMatD0=    1 NMtDS0=    0 NMtDT0=    0
 Symmetry not used in FoFCou.
 Two-electron integral symmetry not used.
 UHF open shell SCF:
 Using DIIS extrapolation, IDIIS=  1040.
 Overlap will be assumed to be unity.
 NGot=  2684354560 LenX=  2684293262 LenY=  2684292380
 Requested convergence on RMS density matrix=1.00D-08 within 120 cycles.
 Requested convergence on MAX density matrix=1.00D-06.
 Requested convergence on             energy=1.00D-06.
 No special actions if energy rises.

 Cycle   1  Pass 1  IDiag  1:
 E= 0.792875294243487E-01
 DIIS: error= 3.08D-03 at cycle   1 NSaved=   1.
 NSaved= 1 IEnMin= 1 EnMin= 0.792875294243487E-01 IErMin= 1 ErrMin= 3.08D-03
 ErrMax= 3.08D-03  0.00D+00 EMaxC= 1.00D-01 BMatC= 9.93D-04 BMatP= 9.93D-04
 IDIUse=3 WtCom= 9.69D-01 WtEn= 3.08D-02
 Coeff-Com:  0.100D+01
 Coeff-En:   0.100D+01
 Coeff:      0.100D+01
 GapD=    2.000 DampG=2.000 DampE=1.000 DampFc=2.0000 IDamp=-1.
 RMSDP=1.57D-03 MaxDP=8.43D-03              OVMax= 0.00D+00

 Cycle   2  Pass 1  IDiag  3:
 E= 0.783399578857527E-01 Delta-E=       -0.000947571539 Rises=F Damp=F
 DIIS: error= 1.36D-03 at cycle   2 NSaved=   2.
 NSaved= 2 IEnMin= 2 EnMin= 0.783399578857527E-01 IErMin= 2 ErrMin= 1.36D-03
 ErrMax= 1.36D-03  0.00D+00 EMaxC= 1.00D-01 BMatC= 1.96D-04 BMatP= 9.93D-04
 IDIUse=3 WtCom= 9.86D-01 WtEn= 1.36D-02
 Coeff-Com: -0.709D+00 0.171D+01
 Coeff-En:   0.000D+00 0.100D+01
 Coeff:     -0.699D+00 0.170D+01
 Gap=     0.381 Goal=   None    Shift=    0.000
 Gap=     0.401 Goal=   None    Shift=    0.000
 RMSDP=1.27D-03 MaxDP=7.72D-03 DE=-9.48D-04 OVMax= 9.07D-03

 Cycle   3  Pass 1  IDiag  3:
 E= 0.780731670561465E-01 Delta-E=       -0.000266790830 Rises=F Damp=F
 DIIS: error= 3.59D-04 at cycle   3 NSaved=   3.
 NSaved= 3 IEnMin= 3 EnMin= 0.780731670561465E-01 IErMin= 3 ErrMin= 3.59D-04
 ErrMax= 3.59D-04  0.00D+00 EMaxC= 1.00D-01 BMatC= 7.10D-06 BMatP= 1.96D-04
 IDIUse=3 WtCom= 9.96D-01 WtEn= 3.59D-03
 Coeff-Com:  0.420D+00-0.110D+01 0.168D+01
 Coeff-En:   0.000D+00 0.000D+00 0.100D+01
 Coeff:      0.419D+00-0.109D+01 0.167D+01
 Gap=     0.381 Goal=   None    Shift=    0.000
 Gap=     0.401 Goal=   None    Shift=    0.000
 RMSDP=3.06D-04 MaxDP=2.22D-03 DE=-2.67D-04 OVMax= 3.24D-03

 Cycle   4  Pass 1  IDiag  3:
[...]
    A9        1.98822   0.00001   0.00000   0.00007   0.00007   1.98828
   A10        1.66058   0.00002   0.00000   0.00036   0.00036   1.66095
   A11        1.71263  -0.00002   0.00000  -0.00038  -0.00038   1.71225
   A12        1.71225  -0.00000   0.00000  -0.00000  -0.00000   1.71225
   A13        2.07060  -0.00000   0.00000  -0.00003  -0.00003   2.07057
   A14        2.07066  -0.00000   0.00000  -0.00009  -0.00009   2.07057
   A15        2.06260   0.00001   0.00000   0.00012   0.00012   2.06272
    D1       -3.03130  -0.00000   0.00000  -0.00000  -0.00000  -3.03130
    D2        0.14890  -0.00000   0.00000  -0.00008  -0.00008   0.14881
    D3       -0.14888   0.00000   0.00000   0.00006   0.00006  -0.14881
    D4        3.03132   0.00000   0.00000  -0.00002  -0.00002   3.03130
    D5        1.55153   0.00000   0.00000   0.00001   0.00001   1.55154
    D6       -1.55146  -0.00000   0.00000  -0.00007  -0.00007  -1.55154
    D7        3.14058   0.00000   0.00000   0.00101   0.00101   3.14159
    D8        1.04742   0.00000   0.00000   0.00104   0.00104   1.04846
    D9       -1.04946  -0.00000   0.00000   0.00100   0.00100  -1.04846
   D10        0.99364   0.00000   0.00000   0.00104   0.00104   0.99468
   D11       -1.09952   0.00000   0.00000   0.00106   0.00106  -1.09846
   D12        3.08679   0.00000   0.00000   0.00103   0.00103   3.08781
   D13       -0.99564  -0.00000   0.00000   0.00096   0.00096  -0.99468
   D14       -3.08880  -0.00000   0.00000   0.00099   0.00099  -3.08781
   D15        1.09751  -0.00000   0.00000   0.00095   0.00095   1.09846
         Item               Value     Threshold  Converged?
 Maximum Force            0.000018     0.000450     YES
 RMS     Force            0.000005     0.000300     YES
 Maximum Displacement     0.001577     0.001800     YES
 RMS     Displacement     0.000507     0.001200     YES
 Predicted change in Energy=-9.103712D-09
 Optimization completed.
    -- Stationary point found.
                           ----------------------------
                           !   Optimized Parameters   !
                           ! (Angstroms and Degrees)  !
 --------------------------                            --------------------------
 ! Name  Definition              Value          Derivative Info.                !
 --------------------------------------------------------------------------------
 ! R1    R(1,2)                  1.3541         -DE/DX =    0.0                 !
 ! R2    R(1,3)                  1.0842         -DE/DX =    0.0                 !
 ! R3    R(1,4)                  1.0842         -DE/DX =    0.0                 !
 ! R4    R(1,7)                  2.1751         -DE/DX =    0.0                 !
 ! R5    R(2,5)                  1.0782         -DE/DX =    0.0                 !
 ! R6    R(2,6)                  1.0782         -DE/DX =    0.0                 !
 ! R7    R(7,8)                  1.0628         -DE/DX =    0.0                 !
 ! R8    R(7,9)                  1.063          -DE/DX =    0.0                 !
 ! R9    R(7,10)                 1.063          -DE/DX =    0.0                 !
 ! A1    A(2,1,3)              122.2768         -DE/DX =    0.0                 !
 ! A2    A(2,1,4)              122.278          -DE/DX =    0.0                 !
 ! A3    A(2,1,7)               99.3905         -DE/DX =    0.0                 !
 ! A4    A(3,1,4)              113.9396         -DE/DX =    0.0                 !
 ! A5    A(3,1,7)               91.1829         -DE/DX =    0.0                 !
 ! A6    A(4,1,7)               91.1848         -DE/DX =    0.0                 !
 ! A7    A(1,2,5)              123.0255         -DE/DX =    0.0                 !
 ! A8    A(1,2,6)              123.0253         -DE/DX =    0.0                 !
 ! A9    A(5,2,6)              113.9164         -DE/DX =    0.0                 !
 ! A10   A(1,7,8)               95.1445         -DE/DX =    0.0                 !
 ! A11   A(1,7,9)               98.1263         -DE/DX =    0.0                 !
 ! A12   A(1,7,10)              98.1049         -DE/DX =    0.0                 !
 ! A13   A(8,7,9)              118.6368         -DE/DX =    0.0                 !
 ! A14   A(8,7,10)             118.6399         -DE/DX =    0.0                 !
 ! A15   A(9,7,10)             118.1781         -DE/DX =    0.0                 !
 ! D1    D(3,1,2,5)           -173.6805         -DE/DX =    0.0                 !
 ! D2    D(3,1,2,6)              8.5312         -DE/DX =    0.0                 !
 ! D3    D(4,1,2,5)             -8.5301         -DE/DX =    0.0                 !
 ! D4    D(4,1,2,6)            173.6816         -DE/DX =    0.0                 !
 ! D5    D(7,1,2,5)             88.896          -DE/DX =    0.0                 !
 ! D6    D(7,1,2,6)            -88.8923         -DE/DX =    0.0                 !
 ! D7    D(2,1,7,8)            179.9419         -DE/DX =    0.0                 !
 ! D8    D(2,1,7,9)             60.0127         -DE/DX =    0.0                 !
 ! D9    D(2,1,7,10)           -60.1297         -DE/DX =    0.0                 !
 ! D10   D(3,1,7,8)             56.9313         -DE/DX =    0.0                 !
 ! D11   D(3,1,7,9)            -62.9979         -DE/DX =    0.0                 !
 ! D12   D(3,1,7,10)           176.8598         -DE/DX =    0.0                 !
 ! D13   D(4,1,7,8)            -57.0459         -DE/DX =    0.0                 !
 ! D14   D(4,1,7,9)           -176.9751         -DE/DX =    0.0                 !
 ! D15   D(4,1,7,10)            62.8825         -DE/DX =    0.0                 !
 --------------------------------------------------------------------------------
 GradGradGradGradGradGradGradGradGradGradGradGradGradGradGradGradGradGrad

 Leave Link  103 at Wed Oct 21 14:35:25 2020, MaxMem=  2684354560 cpu:               7.3 elap:               1.3
 (Enter /udrive/faculty/rpeverati/g16/g16/l9999.exe)

 ----------------------------------------------------------------------

 Electric dipole moment (input orientation):
 (Debye = 10**-18 statcoulomb cm , SI units = C m)
                  (au)            (Debye)         (10**-30 SI)
   Tot        0.644620D-01      0.163846D+00      0.546532D+00
   x          0.201745D-01      0.512784D-01      0.171046D+00
   y          0.612237D-01      0.155615D+00      0.519076D+00
   z         -0.237150D-04     -0.602774D-04     -0.201064D-03

 Dipole polarizability, Alpha (input orientation).
 (esu units = cm**3 , SI units = C**2 m**2 J**-1)
 Alpha(0;0):
               (au)            (10**-24 esu)      (10**-40 SI)
   iso        0.247448D+02      0.366680D+01      0.407986D+01
   aniso      0.207177D+02      0.307004D+01      0.341588D+01
   xx         0.345779D+02      0.512392D+01      0.570113D+01
   yx         0.796061D+01      0.117964D+01      0.131253D+01
   yy         0.225086D+02      0.333542D+01      0.371116D+01
   zx         0.261053D-03      0.386840D-04      0.430418D-04
   zy        -0.495480D-03     -0.734225D-04     -0.816936D-04
   zz         0.171478D+02      0.254105D+01      0.282730D+01

 First dipole hyperpolarizability, Beta (input orientation).
 ||, _|_  parallel and perpendicular components, (z) with respect to z axis,
 vector components x,y,z.  Values do not include the 1/n! factor of 1/2.
 (esu units = statvolt**-1 cm**4 , SI units = C**3 m**3 J**-2)
 Beta(0;0,0):
               (au)            (10**-30 esu)      (10**-50 SI)
   || (z)     0.244390D-03      0.211134D-05      0.783602D-06
   _|_(z)     0.814632D-04      0.703779D-06      0.261201D-06
   x          0.335975D+02      0.290256D+00      0.107726D+00
   y          0.428242D+02      0.369968D+00      0.137310D+00
   z          0.122195D-02      0.105567D-04      0.391801D-05
   ||         0.108861D+02      0.940478D-01      0.349049D-01
   xxx       -0.787685D+01     -0.680499D-01     -0.252560D-01
   xxy        0.136775D+02      0.118163D+00      0.438551D-01
   yxy        0.222321D+02      0.192068D+00      0.712842D-01
   yyy        0.555064D+01      0.479532D-01      0.177974D-01
   xxz       -0.721700D-02     -0.623493D-04     -0.231403D-04
   yxz       -0.159297D-01     -0.137620D-03     -0.510763D-04
   yyz       -0.181833D-01     -0.157090D-03     -0.583024D-04
   zxz       -0.315610D+01     -0.272663D-01     -0.101196D-01
   zyz       -0.495344D+01     -0.427938D-01     -0.158825D-01
   zzz        0.258077D-01      0.222958D-03      0.827487D-04

 ----------------------------------------------------------------------

 Dipole orientation:
     6         -1.13611644          0.37531109          1.01174998
     6         -1.88483565          0.62213221         -1.42262392
     1         -0.47966756          1.96773365          2.12139091
     1         -1.55670990         -1.29461434          2.12191081
     1         -2.71544273         -0.90244999         -2.48897321
     1         -1.64449841          2.34127511         -2.48946516
     6          2.72352644         -0.89893450          0.40040578
     1          3.17585508         -1.04584284          2.35159095
     1          3.38969518          0.69485973         -0.62494389
     1          2.30891915         -2.57830124         -0.62093927

 Electric dipole moment (dipole orientation):
 (Debye = 10**-18 statcoulomb cm , SI units = C m)
                  (au)            (Debye)         (10**-30 SI)
   Tot        0.644620D-01      0.163846D+00      0.546532D+00
   x          0.000000D+00      0.000000D+00      0.000000D+00
   y          0.000000D+00      0.000000D+00      0.000000D+00
   z          0.644620D-01      0.163846D+00      0.546532D+00

 Dipole polarizability, Alpha (dipole orientation).
 (esu units = cm**3 , SI units = C**2 m**2 J**-1)
 Alpha(0;0):
               (au)            (10**-24 esu)      (10**-40 SI)
   iso        0.247448D+02      0.366680D+01      0.407986D+01
   aniso      0.207177D+02      0.307004D+01      0.341588D+01
   xx         0.275329D+02      0.407996D+01      0.453957D+01
   yx        -0.342618D+01     -0.507707D+00     -0.564900D+00
   yy         0.182782D+02      0.270855D+01      0.301366D+01
   zx         0.948575D+01      0.140564D+01      0.156399D+01
   zy        -0.312971D+01     -0.463775D+00     -0.516019D+00
   zz         0.284232D+02      0.421189D+01      0.468636D+01

 First dipole hyperpolarizability, Beta (dipole orientation).
 ||, _|_  parallel and perpendicular components, (z) with respect to z axis,
 vector components x,y,z.  Values do not include the 1/n! factor of 1/2.
 (esu units = statvolt**-1 cm**4 , SI units = C**3 m**3 J**-2)
 Beta(0;0,0):
               (au)            (10**-30 esu)      (10**-50 SI)
   || (z)     0.102376D+02      0.884445D-01      0.328253D-01
   _|_(z)     0.341252D+01      0.294815D-01      0.109418D-01
   x          0.175711D+02      0.151801D+00      0.563393D-01
   y         -0.581116D+01     -0.502039D-01     -0.186327D-01
   z          0.511878D+02      0.442222D+00      0.164126D+00
   ||         0.108861D+02      0.940478D-01      0.349049D-01
   xxx       -0.109402D+02     -0.945151D-01     -0.350783D-01
   xxy        0.269753D+01      0.233045D-01      0.864924D-02
   yxy       -0.212047D+01     -0.183192D-01     -0.679900D-02
   yyy        0.158615D+01      0.137031D-01      0.508578D-02
   xxz       -0.453044D+01     -0.391395D-01     -0.145262D-01
   yxz       -0.381191D+00     -0.329320D-02     -0.122224D-02
   yyz       -0.556732D+01     -0.480973D-01     -0.178508D-01
   zxz        0.189177D+02      0.163435D+00      0.606571D-01
   zyz       -0.622073D+01     -0.537423D-01     -0.199459D-01
   zzz        0.271603D+02      0.234644D+00      0.870859D-01

 ----------------------------------------------------------------------

 Test job not archived.
 1\1\GINC-NODE53\Freq\UPM6\ZDO\C3H7(2)\RPEVERATI\21-Oct-2020\0\\#P Freq
  PM6 5D 7F Integral=UltraFineGrid SCF=(NoSymm,XQC,MaxCyc=120) IOp(1/33
 =1) Geom=Check Guess=Read\\TS search on BH76.\\0,2\C,-0.4337936034,0.7
 06657376,-0.0006681102\C,-1.2331834129,-0.3862800299,-0.0002458446\H,-
 0.1872526754,1.2433202323,-0.9099430069\H,-0.1879271088,1.2445363467,0
 .9080659161\H,-1.5663597517,-0.8702761052,0.9037676923\H,-1.5656610695
 ,-0.8714806218,-0.9038715781\C,1.5077736277,-0.273749176,0.0006642164\
 H,2.0699436503,0.628139779,-0.0007928052\H,1.4051521019,-0.8115772573,
 -0.9104941889\H,1.404974058,-0.8085807981,0.9135669453\\Version=ES64L-
 G16RevA.03\State=2-A\HF=0.0769151\S2=0.874383\S2-1=0.\S2A=0.751315\RMS
 D=4.920e-10\RMSF=5.376e-06\ZeroPoint=0.0765912\Thermal=0.0817743\Dipol
 e=0.0201745,0.0612237,-0.0000237\DipoleDeriv=-0.0855316,0.0685353,0.00
 00158,0.0030579,-0.2463946,-0.0000281,0.0000688,0.0000031,-0.2802592,-
 0.5319619,0.0674715,-0.0001123,-0.046601,-0.3822175,0.0000072,-0.00003
 65,0.0000419,-0.3575025,0.1241425,-0.00412,-0.0211059,-0.0121749,0.153
 7829,-0.028508,-0.0225726,-0.0787568,0.161576,0.1241106,-0.0041454,0.0
 210868,-0.0121644,0.1539286,0.0285161,0.0225646,0.0787634,0.1614595,0.
 1831858,-0.0118119,-0.0182727,0.0116999,0.1622294,-0.0291235,-0.093696
 9,-0.0601587,0.1653561,0.1830966,-0.0118307,0.0183023,0.0118031,0.1623
 445,0.0291312,0.0936955,0.0601517,0.1653225,-0.4640879,-0.1060838,0.00
 00908,0.0653472,-0.4822041,-0.0000041,-0.0000211,-0.0000701,-0.5200378
 ,0.2039272,0.0002015,0.0000137,0.0774517,0.1707437,-0.0000088,-0.00013
 77,-0.0000378,0.1505306,0.1315572,0.0008998,0.0042673,-0.0493138,0.153
 9484,0.0148888,-0.0606711,0.0163286,0.1766905,0.1315551,0.0008786,-0.0
 042859,-0.0491148,0.1538476,-0.0148707,0.0608072,-0.0162654,0.176822\P
 olar=34.5779332,7.9606113,22.5085505,0.0002611,-0.0004955,17.147834\Hy
 perPolar=-7.8768521,13.6775319,22.2321086,5.5506375,-0.007217,-0.01592
 97,-0.0181833,-3.1561035,-4.9534371,0.0258077\PG=C01 [X(C3H7)]\NImag=1
 \\0.11744292,0.26196644,0.56576503,-0.00027553,0.00000481,0.41947813,-
 0.13025018,-0.21272970,0.00011469,0.31526790,-0.12143080,-0.34409218,0
 .00013249,0.26652378,0.50009014,0.00005756,0.00010237,-0.06912551,-0.0
 0021755,0.00004632,0.41720902,-0.03118506,-0.01570115,0.03317641,-0.01
 130058,-0.02457920,0.01580161,0.04639419,-0.02868882,-0.08280808,0.076
 39479,-0.01322325,-0.01728436,0.02336671,0.03605786,0.10046992,0.03757
 888,0.07739739,-0.17026207,0.00665424,0.01009827,-0.00204575,-0.043005
 46,-0.09645496,0.19625635,-0.03113709,-0.01569001,-0.03305393,-0.01128
 259,-0.02459085,-0.01577611,0.00624857,-0.00015615,0.00296879,0.046330
 87,-0.02868093,-0.08301360,-0.07653346,-0.01321496,-0.01732953,-0.0233
 5589,-0.00016470,0.00647446,0.00616904,0.03604269,0.10072909,-0.037437
 38,-0.07752743,-0.17010936,-0.00664331,-0.01009586,-0.00201781,-0.0029
 4595,-0.00620996,-0.02406906,0.04284680,0.09661025,0.19606334,-0.00648
 113,-0.01861264,0.01677844,-0.05551434,-0.02378837,0.04791150,0.004151
 27,-0.00476496,-0.00028322,-0.00233805,0.00111570,-0.00005806,0.052774
 32,-0.01884333,-0.01993526,0.02274243,-0.02356033,-0.07306709,0.070146
 27,-0.00519654,0.00038738,0.00021805,0.00143290,-0.00132942,0.00020992
 ,0.04700871,0.08702859,0.00766688,0.00982420,-0.00192261,0.04970444,0.
 07218163,-0.17232524,-0.00002833,-0.00000262,-0.00012250,-0.00014357,-
 0.00010017,0.00110771,-0.06061094,-0.08765304,0.19809209,-0.00646299,-
 0.01862712,-0.01675701,-0.05543816,-0.02379614,-0.04778953,-0.00233826
 ,0.00111572,0.00005401,0.00415099,-0.00476453,0.00029268,0.00792706,-0
 .00118650,0.00376403,0.05268132,-0.01883590,-0.01997894,-0.02273302,-0
 .02357258,-0.07325692,-0.07029633,0.00143325,-0.00132964,-0.00020566,-
 0.00519632,0.00038705,-0.00022256,-0.00119577,0.00715742,0.00557642,0.
 04702155,0.08726248,-0.00764530,-0.00981456,-0.00189807,-0.04958275,-0
 .07233188,-0.17221062,0.00013902,0.00010430,0.00110804,0.00003858,-0.0
 0000173,-0.00012196,-0.00373723,-0.00561987,-0.02479154,0.06043608,0.0
 8783688,0.19795152,0.12934995,0.01286523,0.00003529,-0.05516681,-0.058
 70661,0.00001753,-0.01107747,0.00892475,-0.00359015,-0.01107947,0.0089
 3004,0.00357018,-0.00006968,0.00032716,-0.00038810,-0.00007006,0.00032
 768,0.00038777,0.07201723,-0.06452557,-0.01263118,-0.00001803,0.021723
 97,0.03077744,-0.00001119,0.00722394,-0.00568896,0.00282012,0.00722868
 ,-0.00569592,-0.00280832,0.00038459,-0.00049776,0.00031670,0.00038443,
 -0.00049786,-0.00031603,0.15862284,0.34071485,0.00008926,0.00000690,-0
 .00545332,-0.00003513,-0.00003941,0.00137100,-0.00251615,0.00262066,-0
 .00126573,0.00250038,-0.00260882,-0.00125390,-0.00010343,-0.00003328,-
 0.00023565,0.00010290,0.00003392,-0.00023491,-0.00027640,0.00012147,0.
 41239743,-0.01841519,-0.00164741,-0.00000106,0.00347797,0.00422335,-0.
 00000132,-0.00084239,0.00027079,-0.00046941,-0.00084060,0.00027055,0.0
 0046856,-0.00002407,-0.00010041,0.00010423,-0.00002429,-0.00010038,-0.
 00010408,-0.07868424,-0.10137691,0.00016378,0.08901913,0.00492139,0.00
 100623,0.00000088,-0.00087007,-0.00171930,0.00000037,0.00040018,0.0003
 0553,-0.00003579,0.00040018,0.00030518,0.00003568,-0.00011522,-0.00004
 732,0.00017113,-0.00011502,-0.00004764,-0.00017109,-0.09681542,-0.1772
 7477,0.00022928,0.11235800,0.20249393,-0.00000836,-0.00000103,0.000396
 44,0.00000217,0.00000262,-0.00023130,-0.00052652,0.00010608,0.00011610
 ,0.00052559,-0.00010625,0.00011543,0.00004669,-0.00000073,0.00003597,-
 0.00004643,0.00000093,0.00003671,0.00015692,0.00022785,-0.03553345,-0.
 00018406,-0.00026701,0.03630224,-0.01142266,0.00409325,0.00325381,0.00
 010052,0.00307076,0.00070012,-0.00013292,0.00043598,0.00012881,0.00008
 097,0.00002887,0.00003658,-0.00013794,0.00007405,-0.00000074,-0.000288
 08,0.00004440,0.00006740,-0.02261147,-0.01484549,-0.01431768,0.0031680
 2,-0.01009903,-0.01025985,0.02491378,0.00705765,-0.00216065,-0.0019762
 9,-0.00053704,-0.00205876,-0.00027313,0.00055081,-0.00050538,-0.000087
 49,-0.00002417,-0.00002189,-0.00008108,-0.00002047,0.00012517,-0.00014
 303,-0.00001147,0.00017909,0.00017185,-0.01725481,-0.08489265,-0.08900
 563,-0.00695139,-0.01255068,-0.01879572,0.01768372,0.09418313,0.002063
 52,-0.00134195,-0.00054593,-0.00026964,-0.00029052,-0.00031100,-0.0001
 1062,-0.00005227,0.00039934,-0.00001482,-0.00012682,-0.00011435,0.0001
 2586,0.00007303,-0.00015164,0.00006926,0.00008364,0.00031286,-0.016819
 03,-0.08771594,-0.18460900,-0.00205970,-0.00499615,-0.00058081,0.01870
 002,0.10233136,0.20971171,-0.01143784,0.00408268,-0.00327111,0.0001077
 8,0.00307406,-0.00070379,0.00008203,0.00002830,-0.00003649,-0.00013423
 ,0.00043750,-0.00013011,-0.00028752,0.00004411,-0.00006808,-0.00013761
 ,0.00007387,0.00000069,-0.02260738,-0.01482008,0.01439247,0.00316538,-
 0.01006526,0.01029385,0.00632919,-0.00049270,-0.00168467,0.02491963,0.
 00706120,-0.00215179,0.00198538,-0.00053972,-0.00205923,0.00027450,-0.
 00002452,-0.00002117,0.00008082,0.00055296,-0.00050571,0.00008959,-0.0
 0001168,0.00017838,-0.00017139,-0.00002104,0.00012506,0.00014229,-0.01
 722277,-0.08431100,0.08867491,-0.00694640,-0.01247130,0.01883325,-0.00
 048597,0.00770189,-0.00796456,0.01763807,0.09351415,-0.00208962,0.0013
 4927,-0.00055769,0.00027288,0.00029641,-0.00031215,0.00001500,0.000126
 73,-0.00011493,0.00010928,0.00005437,0.00039976,-0.00006978,-0.0000835
 4,0.00031330,-0.00012581,-0.00007348,-0.00015214,0.01690604,0.08738336
 ,-0.18518186,0.00208307,0.00503269,-0.00065697,0.00169148,0.00785986,-
 0.02411168,-0.01879273,-0.10194547,0.21037386\\0.00000451,-0.00001464,
 0.00000433,0.00000298,0.00001540,-0.00000039,0.00000090,0.00000499,0.0
 0000166,0.00000081,0.00000436,-0.00000249,-0.00000094,-0.00000363,-0.0
 0000180,-0.00000037,-0.00000397,0.00000157,-0.00000426,0.00000492,-0.0
 0000291,-0.00000811,0.00000490,-0.00000129,0.00000528,-0.00000703,0.00
 000442,-0.00000078,-0.00000531,-0.00000311\\\@


 MAN IS THE MEASURE OF ALL THINGS.
  -- PROTAGORAS (5TH CENTURY B.C.)
 Job cpu time:       0 days  0 hours  2 minutes 43.0 seconds.
 Elapsed time:       0 days  0 hours  0 minutes 30.0 seconds.
 File lengths (MBytes):  RWF=      7 Int=      0 D2E=      0 Chk=      2 Scr=      1
 Normal termination of Gaussian 16 at Wed Oct 21 14:35:28 2020.
