 Entering Gaussian System, Link 0=g16
 Input=MN_39_fch3fts_BH76_PM6_SE.in
 Output=MN_39_fch3fts_BH76_PM6_SE.log
 Initial command:
 /udrive/faculty/rpeverati/g16/g16/l1.exe "/udrive/scratch-directories/gaussian09/rpeverati/Gau-24139.inp" -scrdir="/udrive/scratch-directories/gaussian09/rpeverati/"
 Entering Link 1 = /udrive/faculty/rpeverati/g16/g16/l1.exe PID=     24154.
  
 Copyright (c) 1988,1990,1992,1993,1995,1998,2003,2009,2016,
            Gaussian, Inc.  All Rights Reserved.
  
 This is part of the Gaussian(R) 16 program.  It is based on
 the Gaussian(R) 09 system (copyright 2009, Gaussian, Inc.),
 the Gaussian(R) 03 system (copyright 2003, Gaussian, Inc.),
 the Gaussian(R) 98 system (copyright 1998, Gaussian, Inc.),
 the Gaussian(R) 94 system (copyright 1995, Gaussian, Inc.),
 the Gaussian 92(TM) system (copyright 1992, Gaussian, Inc.),
 the Gaussian 90(TM) system (copyright 1990, Gaussian, Inc.),
 the Gaussian 88(TM) system (copyright 1988, Gaussian, Inc.),
 the Gaussian 86(TM) system (copyright 1986, Carnegie Mellon
 University), and the Gaussian 82(TM) system (copyright 1983,
 Carnegie Mellon University). Gaussian is a federally registered
 trademark of Gaussian, Inc.
  
 This software contains proprietary and confidential information,
 including trade secrets, belonging to Gaussian, Inc.
  
 This software is provided under written license and may be
 used, copied, transmitted, or stored only in accord with that
 written license.
  
 The following legend is applicable only to US Government
 contracts under FAR:
  
                    RESTRICTED RIGHTS LEGEND
  
 Use, reproduction and disclosure by the US Government is
 subject to restrictions as set forth in subparagraphs (a)
 and (c) of the Commercial Computer Software - Restricted
 Rights clause in FAR 52.227-19.
  
 Gaussian, Inc.
 340 Quinnipiac St., Bldg. 40, Wallingford CT 06492
  
  
 ---------------------------------------------------------------
 Warning -- This program may not be used in any manner that
 competes with the business of Gaussian, Inc. or will provide
 assistance to any competitor of Gaussian, Inc.  The licensee
 of this program is prohibited from giving any competitor of
 Gaussian, Inc. access to this program.  By using this program,
 the user acknowledges that Gaussian, Inc. is engaged in the
 business of creating and licensing software in the field of
 computational chemistry and represents and warrants to the
 licensee that it is not a competitor of Gaussian, Inc. and that
 it will not use this program in any manner prohibited above.
 ---------------------------------------------------------------
  

 Cite this work as:
 Gaussian 16, Revision A.03,
 M. J. Frisch, G. W. Trucks, H. B. Schlegel, G. E. Scuseria, 
 M. A. Robb, J. R. Cheeseman, G. Scalmani, V. Barone, 
 G. A. Petersson, H. Nakatsuji, X. Li, M. Caricato, A. V. Marenich, 
 J. Bloino, B. G. Janesko, R. Gomperts, B. Mennucci, H. P. Hratchian, 
 J. V. Ortiz, A. F. Izmaylov, J. L. Sonnenberg, D. Williams-Young, 
 F. Ding, F. Lipparini, F. Egidi, J. Goings, B. Peng, A. Petrone, 
 T. Henderson, D. Ranasinghe, V. G. Zakrzewski, J. Gao, N. Rega, 
 G. Zheng, W. Liang, M. Hada, M. Ehara, K. Toyota, R. Fukuda, 
 J. Hasegawa, M. Ishida, T. Nakajima, Y. Honda, O. Kitao, H. Nakai, 
 T. Vreven, K. Throssell, J. A. Montgomery, Jr., J. E. Peralta, 
 F. Ogliaro, M. J. Bearpark, J. J. Heyd, E. N. Brothers, K. N. Kudin, 
 V. N. Staroverov, T. A. Keith, R. Kobayashi, J. Normand, 
 K. Raghavachari, A. P. Rendell, J. C. Burant, S. S. Iyengar, 
 J. Tomasi, M. Cossi, J. M. Millam, M. Klene, C. Adamo, R. Cammi, 
 J. W. Ochterski, R. L. Martin, K. Morokuma, O. Farkas, 
 J. B. Foresman, and D. J. Fox, Gaussian, Inc., Wallingford CT, 2016.
 
 ******************************************
 Gaussian 16:  ES64L-G16RevA.03 25-Dec-2016
                21-Oct-2020 
 ******************************************
 %NoSave
 %nproc=12
 Will use up to   12 processors via shared memory.
 %mem=20GB
 %chk=MN_39_fch3fts_BH76_PM6_SE
 ----------------------------------------------------------------------
 #P Opt(TS,MaxCyc=50,NoEigenTest,MaxStep=10,AddRedundant) PM6 5D 7F Int
 egral=UltraFineGrid SCF=(NoSymm,XQC,MaxCyc=120) IOp(1/33=1)
 ----------------------------------------------------------------------
 1/5=1,6=50,8=10,11=1,18=120,26=1,33=1,38=1/1,3;
 2/9=110,12=2,17=6,18=5,40=1/2;
 3/5=2,8=11,25=1,41=3900000,71=1,75=-5/1,2,3;
 4/9=2,35=1/1;
 5/5=2,7=120,8=3,13=1,35=1,38=5/2,8;
 6/7=2,8=2,9=2,10=2,28=1/1;
 7//1,2,3,16;
 1/5=1,6=50,8=10,11=1,18=20,26=1,33=1/3(2);
 2/9=110/2;
 99//99;
 2/9=110/2;
 3/5=2,8=11,25=1,41=3900000,71=1,75=-5,135=20/1,2,3;
 4/5=5,9=2,16=3,35=1/1;
 5/5=2,7=120,8=3,13=1,35=1,38=5/2,8;
 7//1,2,3,16;
 1/5=1,6=50,8=10,11=1,18=20,26=1,33=1/3(-5);
 2/9=110/2;
 6/7=2,8=2,9=2,10=2,19=2,28=1/1;
 99/9=1/99;
 Leave Link    1 at Wed Oct 21 14:27:33 2020, MaxMem=  2684354560 cpu:               7.1 elap:               0.7
 (Enter /udrive/faculty/rpeverati/g16/g16/l101.exe)
 ONIOM data not found on unit 2.
 ------------------
 TS search on BH76.
 ------------------
 TstMul:  ICh=    -1
 TstMul:  Mul=     1
 TstMul:  ICh=    -1
 TstMul:  Mul=     1
 Symbolic Z-matrix:
 Charge = -1 Multiplicity = 1
 F                     1.82365   0.00022   0.00008 
 C                     0.00024  -0.00039  -0.00021 
 H                     0.00016  -0.30519   1.02504 
 H                     0.00038   1.03988  -0.24896 
 H                    0.        -0.73656  -0.77621 
 F                    -1.82387   0.00024   0.00008 
 
 RdStrC is calling ZToCFu for IStruc=1 NZ=     6.
 PrtBox:  NBox=     1 Levels=  1 BoxLen=    8.00 SMaxX=        6.89
          Shift=            3.446610            1.391890            1.466820
 Box      1 Number                   0 centers from      1 to      6:
 After GenITR:
 ITRead=  0  0  0  0  0  0
 MicOpt= -1 -1 -1 -1 -1 -1
 Add virtual bond connecting atoms C2         and F1         Dist= 3.45D+00.
 Add virtual bond connecting atoms F6         and C2         Dist= 3.45D+00.
 The following ModRedundant input section has been read:
 
 ITRead=  0  0  0  0  0  0
 MicOpt= -1 -1 -1 -1 -1 -1
 NAtoms=      6 NQM=        6 NQMF=       0 NMMI=      0 NMMIF=      0
                NMic=       0 NMicF=      0.
                    Isotopes and Nuclear Properties:
 (Nuclear quadrupole moments (NQMom) in fm**2, nuclear magnetic moments (NMagM)
  in nuclear magnetons)

  Atom         1           2           3           4           5           6
 IAtWgt=          19          12           1           1           1          19
 AtmWgt=  18.9984033  12.0000000   1.0078250   1.0078250   1.0078250  18.9984033
 NucSpn=           1           0           1           1           1           1
 AtZEff=   0.0000000   0.0000000   0.0000000   0.0000000   0.0000000   0.0000000
 NQMom=    0.0000000   0.0000000   0.0000000   0.0000000   0.0000000   0.0000000
 NMagM=    2.6288670   0.0000000   2.7928460   2.7928460   2.7928460   2.6288670
 AtZNuc=   9.0000000   6.0000000   1.0000000   1.0000000   1.0000000   9.0000000
 No MM parameters found.
 Leave Link  101 at Wed Oct 21 14:27:34 2020, MaxMem=  2684354560 cpu:               9.8 elap:               1.1
 (Enter /udrive/faculty/rpeverati/g16/g16/l103.exe)

 GradGradGradGradGradGradGradGradGradGradGradGradGradGradGradGradGradGrad
 Berny optimization.
 Optmz: redundant internal coordinate code flag= 1
 Initialization pass.
                           ----------------------------
                           !    Initial Parameters    !
                           ! (Angstroms and Degrees)  !
 --------------------------                            --------------------------
 ! Name  Definition              Value          Derivative Info.                !
 --------------------------------------------------------------------------------
 ! R1    R(1,2)                  1.8234         estimate D2E/DX2                !
 ! R2    R(2,3)                  1.0696         estimate D2E/DX2                !
 ! R3    R(2,4)                  1.0696         estimate D2E/DX2                !
 ! R4    R(2,5)                  1.0696         estimate D2E/DX2                !
 ! R5    R(2,6)                  1.8241         estimate D2E/DX2                !
 ! A1    A(1,2,3)               90.001          estimate D2E/DX2                !
 ! A2    A(1,2,4)               89.9759         estimate D2E/DX2                !
 ! A3    A(1,2,5)               90.0326         estimate D2E/DX2                !
 ! A4    A(3,2,4)              120.0049         estimate D2E/DX2                !
 ! A5    A(3,2,5)              119.9518         estimate D2E/DX2                !
 ! A6    A(3,2,6)               89.9925         estimate D2E/DX2                !
 ! A7    A(4,2,5)              120.0433         estimate D2E/DX2                !
 ! A8    A(4,2,6)               89.9906         estimate D2E/DX2                !
 ! A9    A(5,2,6)               90.0075         estimate D2E/DX2                !
 ! A10   L(1,2,6,3,-1)         179.9934         estimate D2E/DX2                !
 ! A11   L(1,2,6,3,-2)         179.9574         estimate D2E/DX2                !
 ! D1    D(3,2,5,4)            179.9891         estimate D2E/DX2                !
 ! D2    D(3,2,6,4)            120.0049         estimate D2E/DX2                !
 ! D3    D(3,2,6,5)           -119.9518         estimate D2E/DX2                !
 ! D4    D(4,2,6,5)            120.0433         estimate D2E/DX2                !
 --------------------------------------------------------------------------------
 Maximum allowed force set to 1.00D+20.
 Trust Radius=1.00D-01 FncErr=1.00D-07 GrdErr=1.00D-07 EigMax=2.50D+02 EigMin=1.00D-04
 Number of steps in this run=     50 maximum allowed number of steps=    100.
 Search for a saddle point of order  1.
 GradGradGradGradGradGradGradGradGradGradGradGradGradGradGradGradGradGrad

 Leave Link  103 at Wed Oct 21 14:27:35 2020, MaxMem=  2684354560 cpu:               2.0 elap:               0.8
 (Enter /udrive/faculty/rpeverati/g16/g16/l202.exe)
                          Input orientation:                          
 ---------------------------------------------------------------------
 Center     Atomic      Atomic             Coordinates (Angstroms)
 Number     Number       Type             X           Y           Z
 ---------------------------------------------------------------------
      1          9           0        1.823651    0.000222    0.000077
      2          6           0        0.000236   -0.000387   -0.000214
      3          1           0        0.000156   -0.305186    1.025037
      4          1           0        0.000379    1.039881   -0.248964
      5          1           0       -0.000003   -0.736556   -0.776208
      6          9           0       -1.823867    0.000243    0.000081
 ---------------------------------------------------------------------
                    Distance matrix (angstroms):
                    1          2          3          4          5
     1  F    0.000000
     2  C    1.823415   0.000000
     3  H    2.113989   1.069599   0.000000
     4  H    2.113582   1.069595   1.852643   0.000000
     5  H    2.114515   1.069632   1.852178   1.853029   0.000000
     6  F    3.647518   1.824104   2.114447   2.114414   2.114705
                    6
     6  F    0.000000
 Stoichiometry    CH3F2(1-)
 Framework group  C1[X(CH3F2)]
 Deg. of freedom    12
 Full point group                 C1      NOp   1
 Largest Abelian subgroup         C1      NOp   1
 Largest concise Abelian subgroup C1      NOp   1
                         Standard orientation:                         
 ---------------------------------------------------------------------
 Center     Atomic      Atomic             Coordinates (Angstroms)
 Number     Number       Type             X           Y           Z
 ---------------------------------------------------------------------
      1          9           0        1.823651    0.000222    0.000077
      2          6           0        0.000236   -0.000387   -0.000214
      3          1           0        0.000156   -0.304327    1.025293
      4          1           0        0.000379    1.039672   -0.249835
      5          1           0       -0.000003   -0.737207   -0.775590
      6          9           0       -1.823867    0.000243    0.000081
 ---------------------------------------------------------------------
 Rotational constants (GHZ):         146.1033732           3.9448937           3.9448370
 Leave Link  202 at Wed Oct 21 14:27:36 2020, MaxMem=  2684354560 cpu:               2.1 elap:               0.8
 (Enter /udrive/faculty/rpeverati/g16/g16/l301.exe)
 Standard basis: VSTO-6G (5D, 7F)
 Ernie: Thresh=  0.10000D-02 Tol=  0.10000D-05 Strict=F.
  NNHCO=     0 NNPyr=     0 NCTC=     0               EPep=         0.000000000
    EC=        35.010071280  ECS=         0.670828505   EG=         0.048392868
   EHC=         0.000129646  EAt=       -39.882483773  AtH=         0.581626278
 EPDDG=         0.000000000  ECC=        35.729422299 EAtT=        40.464110051
 There are    15 symmetry adapted cartesian basis functions of A   symmetry.
 There are    15 symmetry adapted basis functions of A   symmetry.
    15 basis functions,    90 primitive gaussians,    15 cartesian basis functions
    11 alpha electrons       11 beta electrons
       nuclear repulsion energy        76.1935323505 Hartrees.
 IExCor=    0 DFT=F Ex=HF Corr=None ExCW=0 ScaHFX=  1.000000
 ScaDFX=  1.000000  1.000000  1.000000  1.000000 ScalE2=  1.000000  1.000000
 IRadAn=      5 IRanWt=     -1 IRanGd=            0 ICorTp=0 IEmpDi=  4
 Integral buffers will be    131072 words long.
 Regular integral format.
 Two-electron integral symmetry is turned off.
 Leave Link  301 at Wed Oct 21 14:27:38 2020, MaxMem=  2684354560 cpu:               4.8 elap:               1.0
 (Enter /udrive/faculty/rpeverati/g16/g16/l302.exe)
 Do NDO integrals.
 NPDir=0 NMtPBC=     1 NCelOv=     1 NCel=       1 NClECP=     1 NCelD=      1
         NCelK=      1 NCelE2=     1 NClLst=     1 CellRange=     0.0.
 One-electron integrals computed using PRISM.
 NBasis=    15 RedAO= F EigKep=  0.00D+00  NBF=    15
 NBsUse=    15 1.00D-04 EigRej=  0.00D+00 NBFU=    15
 Leave Link  302 at Wed Oct 21 14:27:39 2020, MaxMem=  2684354560 cpu:               3.8 elap:               0.9
 (Enter /udrive/faculty/rpeverati/g16/g16/l303.exe)
 DipDrv:  MaxL=1.
 Leave Link  303 at Wed Oct 21 14:27:40 2020, MaxMem=  2684354560 cpu:               3.1 elap:               0.9
 (Enter /udrive/faculty/rpeverati/g16/g16/l401.exe)
 SCF N**3 symmetry information disabled.
 Simple Huckel Guess.
 JPrj=0 DoOrth=F DoCkMO=F.
 Leave Link  401 at Wed Oct 21 14:27:41 2020, MaxMem=  2684354560 cpu:               2.8 elap:               0.8
 (Enter /udrive/faculty/rpeverati/g16/g16/l502.exe)
 Keep J ints in memory in canonical form, NReq=859737.
 FoFCou: FMM=F IPFlag=           0 FMFlag=           0 FMFlg1=           0
         NFxFlg=           0 DoJE=F BraDBF=F KetDBF=F FulRan=T
         wScrn=  0.000000 ICntrl=       600 IOpCl=  2 I1Cent=           0 NGrid=           0
         NMat0=    1 NMatS0=     33 NMatT0=    0 NMatD0=    1 NMtDS0=    0 NMtDT0=    0
 Symmetry not used in FoFCou.
 Two-electron integral symmetry not used.
 Closed shell SCF:
 Using DIIS extrapolation, IDIIS=  1040.
 Overlap will be assumed to be unity.
 NGot=  2684354560 LenX=  2684293520 LenY=  2684292638
 Requested convergence on RMS density matrix=1.00D-08 within 120 cycles.
 Requested convergence on MAX density matrix=1.00D-06.
 Requested convergence on             energy=1.00D-06.
 No special actions if energy rises.

 Cycle   1  Pass 1  IDiag  1:
 E=-0.678899167038054E-01
 DIIS: error= 5.64D-02 at cycle   1 NSaved=   1.
 NSaved= 1 IEnMin= 1 EnMin=-0.678899167038054E-01 IErMin= 1 ErrMin= 5.64D-02
 ErrMax= 5.64D-02  0.00D+00 EMaxC= 1.00D-01 BMatC= 4.02D-02 BMatP= 4.02D-02
 IDIUse=3 WtCom= 4.36D-01 WtEn= 5.64D-01
 Coeff-Com:  0.100D+01
 Coeff-En:   0.100D+01
 Coeff:      0.100D+01
 GapD=    2.000 DampG=2.000 DampE=0.500 DampFc=1.0000 IDamp=-1.
 RMSDP=1.67D-02 MaxDP=8.86D-02              OVMax= 0.00D+00

 Cycle   2  Pass 1  IDiag  1:
 E=-0.155154201468037     Delta-E=       -0.087264284764 Rises=F Damp=F
 DIIS: error= 1.19D-02 at cycle   2 NSaved=   2.
 NSaved= 2 IEnMin= 2 EnMin=-0.155154201468037     IErMin= 2 ErrMin= 1.19D-02
 ErrMax= 1.19D-02  0.00D+00 EMaxC= 1.00D-01 BMatC= 2.34D-03 BMatP= 4.02D-02
 IDIUse=3 WtCom= 8.81D-01 WtEn= 1.19D-01
 Coeff-Com: -0.301D+00 0.130D+01
 Coeff-En:   0.000D+00 0.100D+01
 Coeff:     -0.265D+00 0.127D+01
 RMSDP=5.81D-03 MaxDP=2.75D-02 DE=-8.73D-02 OVMax= 0.00D+00

 Cycle   3  Pass 1  IDiag  3:
 E=-0.161192545673373     Delta-E=       -0.006038344205 Rises=F Damp=F
 DIIS: error= 1.35D-03 at cycle   3 NSaved=   3.
 NSaved= 3 IEnMin= 3 EnMin=-0.161192545673373     IErMin= 3 ErrMin= 1.35D-03
 ErrMax= 1.35D-03  0.00D+00 EMaxC= 1.00D-01 BMatC= 2.72D-05 BMatP= 2.34D-03
 IDIUse=3 WtCom= 9.86D-01 WtEn= 1.35D-02
 Coeff-Com:  0.116D+00-0.528D+00 0.141D+01
 Coeff-En:   0.000D+00 0.000D+00 0.100D+01
 Coeff:      0.114D+00-0.521D+00 0.141D+01
 Gap=     0.428 Goal=   None    Shift=    0.000
 RMSDP=1.13D-03 MaxDP=8.20D-03 DE=-6.04D-03 OVMax= 9.98D-03

 Cycle   4  Pass 1  IDiag  3:
 E=-0.161350290838072     Delta-E=       -0.000157745165 Rises=F Damp=F
 DIIS: error= 3.68D-04 at cycle   4 NSaved=   4.
 NSaved= 4 IEnMin= 4 EnMin=-0.161350290838072     IErMin= 4 ErrMin= 3.68D-04
 ErrMax= 3.68D-04  0.00D+00 EMaxC= 1.00D-01 BMatC= 2.64D-06 BMatP= 2.72D-05
 IDIUse=3 WtCom= 9.96D-01 WtEn= 3.68D-03
 Coeff-Com: -0.402D-01 0.185D+00-0.826D+00 0.168D+01
 Coeff-En:   0.000D+00 0.000D+00 0.000D+00 0.100D+01
 Coeff:     -0.400D-01 0.185D+00-0.823D+00 0.168D+01
 Gap=     0.427 Goal=   None    Shift=    0.000
 RMSDP=4.84D-04 MaxDP=3.03D-03 DE=-1.58D-04 OVMax= 3.68D-03

 Cycle   5  Pass 1  IDiag  3:
 E=-0.161366481900146     Delta-E=       -0.000016191062 Rises=F Damp=F
 DIIS: error= 5.26D-05 at cycle   5 NSaved=   5.
 NSaved= 5 IEnMin= 5 EnMin=-0.161366481900146     IErMin= 5 ErrMin= 5.26D-05
 ErrMax= 5.26D-05  0.00D+00 EMaxC= 1.00D-01 BMatC= 7.49D-08 BMatP= 2.64D-06
 IDIUse=1 WtCom= 1.00D+00 WtEn= 0.00D+00
 Coeff-Com:  0.289D-02-0.128D-01 0.176D+00-0.494D+00 0.133D+01
 Coeff:      0.289D-02-0.128D-01 0.176D+00-0.494D+00 0.133D+01
 Gap=     0.427 Goal=   None    Shift=    0.000
 RMSDP=5.78D-05 MaxDP=3.15D-04 DE=-1.62D-05 OVMax= 3.81D-04

 Cycle   6  Pass 1  IDiag  3:
 E=-0.161366860773939     Delta-E=       -0.000000378874 Rises=F Damp=F
 DIIS: error= 1.29D-05 at cycle   6 NSaved=   6.
 NSaved= 6 IEnMin= 6 EnMin=-0.161366860773939     IErMin= 6 ErrMin= 1.29D-05
 ErrMax= 1.29D-05  0.00D+00 EMaxC= 1.00D-01 BMatC= 3.57D-09 BMatP= 7.49D-08
 IDIUse=1 WtCom= 1.00D+00 WtEn= 0.00D+00
 Coeff-Com: -0.416D-03 0.143D-02-0.643D-01 0.187D+00-0.642D+00 0.152D+01
 Coeff:     -0.416D-03 0.143D-02-0.643D-01 0.187D+00-0.642D+00 0.152D+01
 Gap=     0.427 Goal=   None    Shift=    0.000
 RMSDP=1.36D-05 MaxDP=8.58D-05 DE=-3.79D-07 OVMax= 7.65D-05

 Cycle   7  Pass 1  IDiag  3:
 E=-0.161366878138693     Delta-E=       -0.000000017365 Rises=F Damp=F
 DIIS: error= 1.74D-06 at cycle   7 NSaved=   7.
 NSaved= 7 IEnMin= 7 EnMin=-0.161366878138693     IErMin= 7 ErrMin= 1.74D-06
 ErrMax= 1.74D-06  0.00D+00 EMaxC= 1.00D-01 BMatC= 4.06D-11 BMatP= 3.57D-09
 IDIUse=1 WtCom= 1.00D+00 WtEn= 0.00D+00
 Coeff-Com: -0.207D-03 0.109D-02 0.132D-01-0.440D-01 0.181D+00-0.496D+00
 Coeff-Com:  0.135D+01
 Coeff:     -0.207D-03 0.109D-02 0.132D-01-0.440D-01 0.181D+00-0.496D+00
 Coeff:      0.135D+01
 Gap=     0.427 Goal=   None    Shift=    0.000
 RMSDP=1.36D-06 MaxDP=8.93D-06 DE=-1.74D-08 OVMax= 1.08D-05

 Cycle   8  Pass 1  IDiag  3:
 E=-0.161366878356617     Delta-E=       -0.000000000218 Rises=F Damp=F
 DIIS: error= 4.73D-07 at cycle   8 NSaved=   8.
 NSaved= 8 IEnMin= 8 EnMin=-0.161366878356617     IErMin= 8 ErrMin= 4.73D-07
 ErrMax= 4.73D-07  0.00D+00 EMaxC= 1.00D-01 BMatC= 2.40D-12 BMatP= 4.06D-11
 IDIUse=1 WtCom= 1.00D+00 WtEn= 0.00D+00
 Coeff-Com:  0.111D-04-0.124D-03-0.864D-02 0.264D-01-0.973D-01 0.253D+00
 Coeff-Com: -0.788D+00 0.161D+01
 Coeff:      0.111D-04-0.124D-03-0.864D-02 0.264D-01-0.973D-01 0.253D+00
 Coeff:     -0.788D+00 0.161D+01
 Gap=     0.427 Goal=   None    Shift=    0.000
 RMSDP=4.58D-07 MaxDP=3.13D-06 DE=-2.18D-10 OVMax= 3.79D-06

 Cycle   9  Pass 1  IDiag  3:
 E=-0.161366878371808     Delta-E=       -0.000000000015 Rises=F Damp=F
 DIIS: error= 2.21D-08 at cycle   9 NSaved=   9.
 NSaved= 9 IEnMin= 9 EnMin=-0.161366878371808     IErMin= 9 ErrMin= 2.21D-08
 ErrMax= 2.21D-08  0.00D+00 EMaxC= 1.00D-01 BMatC= 7.86D-15 BMatP= 2.40D-12
 IDIUse=1 WtCom= 1.00D+00 WtEn= 0.00D+00
 Coeff-Com: -0.525D-05 0.575D-04 0.403D-02-0.123D-01 0.452D-01-0.117D+00
 Coeff-Com:  0.368D+00-0.784D+00 0.150D+01
 Coeff:     -0.525D-05 0.575D-04 0.403D-02-0.123D-01 0.452D-01-0.117D+00
 Coeff:      0.368D+00-0.784D+00 0.150D+01
 Gap=     0.427 Goal=   None    Shift=    0.000
 RMSDP=2.46D-08 MaxDP=1.34D-07 DE=-1.52D-11 OVMax= 1.39D-07

 Cycle  10  Pass 1  IDiag  3:
 E=-0.161366878371737     Delta-E=        0.000000000000 Rises=F Damp=F
 DIIS: error= 6.63D-09 at cycle  10 NSaved=  10.
 NSaved=10 IEnMin= 9 EnMin=-0.161366878371808     IErMin=10 ErrMin= 6.63D-09
 ErrMax= 6.63D-09  0.00D+00 EMaxC= 1.00D-01 BMatC= 6.22D-16 BMatP= 7.86D-15
 IDIUse=1 WtCom= 1.00D+00 WtEn= 0.00D+00
 Coeff-Com:  0.227D-05-0.226D-04-0.151D-02 0.461D-02-0.168D-01 0.434D-01
 Coeff-Com: -0.138D+00 0.304D+00-0.680D+00 0.148D+01
 Coeff:      0.227D-05-0.226D-04-0.151D-02 0.461D-02-0.168D-01 0.434D-01
 Coeff:     -0.138D+00 0.304D+00-0.680D+00 0.148D+01
 Gap=     0.427 Goal=   None    Shift=    0.000
 RMSDP=6.74D-09 MaxDP=4.36D-08 DE= 7.11D-14 OVMax= 5.08D-08

 Cycle  11  Pass 2  IDiag  1:
 SCF Done:  E(RPM6) = -0.161366878372     A.U. after   11 cycles
            NFock= 10  Conv=0.67D-08     -V/T= 0.9977
 KE=-7.115530156729D+01 PE=-7.116284175134D+01 EE= 6.596324408973D+01
 Leave Link  502 at Wed Oct 21 14:27:43 2020, MaxMem=  2684354560 cpu:               8.9 elap:               1.3
 (Enter /udrive/faculty/rpeverati/g16/g16/l508.exe)
 QCSCF skips out because SCF is already converged.
 Leave Link  508 at Wed Oct 21 14:27:44 2020, MaxMem=  2684354560 cpu:               0.9 elap:               0.7
 (Enter /udrive/faculty/rpeverati/g16/g16/l601.exe)
 Copying SCF densities to generalized density rwf, IOpCl= 0 IROHF=0.

 **********************************************************************

            Population analysis using the SCF density.

 **********************************************************************

 Orbital symmetries:
       Occupied  (A) (A) (A) (A) (A) (A) (A) (A) (A) (A) (A)
       Virtual   (A) (A) (A) (A)
 The electronic state is 1-A.
 Alpha  occ. eigenvalues --   -1.08793  -1.08583  -0.72830  -0.36745  -0.36732
 Alpha  occ. eigenvalues --   -0.30357  -0.27024  -0.27024  -0.25794  -0.25793
 Alpha  occ. eigenvalues --   -0.19907
 Alpha virt. eigenvalues --    0.22841   0.38765   0.39511   0.39520
          Condensed to atoms (all electrons):
               1          2          3          4          5          6
     1  F    7.767187   0.000000   0.000000   0.000000   0.000000   0.000000
     2  C    0.000000   3.798979   0.000000   0.000000   0.000000   0.000000
     3  H    0.000000   0.000000   0.888722   0.000000   0.000000   0.000000
     4  H    0.000000   0.000000   0.000000   0.888596   0.000000   0.000000
     5  H    0.000000   0.000000   0.000000   0.000000   0.888728   0.000000
     6  F    0.000000   0.000000   0.000000   0.000000   0.000000   7.767788
 Mulliken charges:
               1
     1  F   -0.767187
     2  C    0.201021
     3  H    0.111278
     4  H    0.111404
     5  H    0.111272
     6  F   -0.767788
 Sum of Mulliken charges =  -1.00000
 Mulliken charges with hydrogens summed into heavy atoms:
               1
     1  F   -0.767187
     2  C    0.534975
     6  F   -0.767788
 Charge=             -1.0000 electrons
 Dipole moment (field-independent basis, Debye):
    X=              0.0068    Y=             -0.0028    Z=             -0.0008  Tot=              0.0074
 N-N= 7.619353235052D+01 E-N=-7.116284176179D+01  KE=-7.115530156729D+01
 Leave Link  601 at Wed Oct 21 14:27:45 2020, MaxMem=  2684354560 cpu:               2.8 elap:               0.8
 (Enter /udrive/faculty/rpeverati/g16/g16/l701.exe)
 ... and contract with generalized density number  0.
 Compute integral first derivatives.
 Leave Link  701 at Wed Oct 21 14:27:47 2020, MaxMem=  2684354560 cpu:               3.9 elap:               0.9
 (Enter /udrive/faculty/rpeverati/g16/g16/l702.exe)
 L702 exits ... SP integral derivatives will be done elsewhere.
 Leave Link  702 at Wed Oct 21 14:27:48 2020, MaxMem=  2684354560 cpu:               2.4 elap:               0.8
 (Enter /udrive/faculty/rpeverati/g16/g16/l703.exe)
 Integral derivatives from FoFJK, PRISM(SPDF).
 Compute integral first derivatives, UseDBF=F ICtDFT=           0.
 Calling FoFJK, ICntrl=      2127 FMM=F ISym2X=0 I1Cent= 0 IOpClX= 0 NMat=1 NMatS=1 NMatT=0.
 FoFJK:  IHMeth=40 ICntrl=    2127 DoSepK=F KAlg= 0 I1Cent=           0 FoldK=F
 IRaf=         0 NMat=       1 IRICut=       1 DoRegI=T DoRafI=F ISym2E= 0 IDoP0=3 IntGTp=3.
 FoFCou: FMM=F IPFlag=           0 FMFlag=      100000 FMFlg1=         800
         NFxFlg=           0 DoJE=F BraDBF=F KetDBF=F FulRan=T
         wScrn=  0.000000 ICntrl=      2127 IOpCl=  0 I1Cent=           0 NGrid=           0
         NMat0=    1 NMatS0=      1 NMatT0=    0 NMatD0=    1 NMtDS0=    0 NMtDT0=    0
 Symmetry not used in FoFCou.
 Leave Link  703 at Wed Oct 21 14:27:49 2020, MaxMem=  2684354560 cpu:               3.1 elap:               0.8
 (Enter /udrive/faculty/rpeverati/g16/g16/l716.exe)
 Dipole        = 2.65770524D-03-1.10570538D-03-3.11190230D-04
 ***** Axes restored to original set *****
 -------------------------------------------------------------------
 Center     Atomic                   Forces (Hartrees/Bohr)
 Number     Number              X              Y              Z
 -------------------------------------------------------------------
      1        9          -0.017642708   -0.000030330   -0.000014404
      2        6           0.000118694   -0.000014033    0.000047741
      3        1          -0.000022210   -0.001409560    0.004848981
      4        1          -0.000037915    0.004877091   -0.001194634
      5        1          -0.000011003   -0.003407022   -0.003676060
      6        9           0.017595142   -0.000016145   -0.000011623
 -------------------------------------------------------------------
 Cartesian Forces:  Max     0.017642708 RMS     0.006221415
 Leave Link  716 at Wed Oct 21 14:27:50 2020, MaxMem=  2684354560 cpu:               2.2 elap:               0.8
 (Enter /udrive/faculty/rpeverati/g16/g16/l103.exe)

 GradGradGradGradGradGradGradGradGradGradGradGradGradGradGradGradGradGrad
 Berny optimization.
 Optmz: redundant internal coordinate code flag= 1
 FormGI is forming the generalized inverse of G from B-inverse, IUseBI=4.
 Internal  Forces:  Max     0.017642719 RMS     0.005902083
 Search for a saddle point.
 Step number   1 out of a maximum of   50
 All quantities printed in internal units (Hartrees-Bohrs-Radians)
 Swapping is turned off.
 Second derivative matrix not updated -- first step.
 The second derivative matrix:
                          R1        R2        R3        R4        R5
           R1           0.13179
           R2           0.00000   0.37281
           R3           0.00000   0.00000   0.37281
           R4           0.00000   0.00000   0.00000   0.37277
           R5           0.00000   0.00000   0.00000   0.00000   0.13158
           A1           0.00000   0.00000   0.00000   0.00000   0.00000
           A2           0.00000   0.00000   0.00000   0.00000   0.00000
           A3           0.00000   0.00000   0.00000   0.00000   0.00000
           A4           0.00000   0.00000   0.00000   0.00000   0.00000
           A5           0.00000   0.00000   0.00000   0.00000   0.00000
           A6           0.00000   0.00000   0.00000   0.00000   0.00000
           A7           0.00000   0.00000   0.00000   0.00000   0.00000
           A8           0.00000   0.00000   0.00000   0.00000   0.00000
           A9           0.00000   0.00000   0.00000   0.00000   0.00000
           A10          0.00000   0.00000   0.00000   0.00000   0.00000
           A11          0.00000   0.00000   0.00000   0.00000   0.00000
           D1           0.00000   0.00000   0.00000   0.00000   0.00000
           D2           0.00000   0.00000   0.00000   0.00000   0.00000
           D3           0.00000   0.00000   0.00000   0.00000   0.00000
           D4           0.00000   0.00000   0.00000   0.00000   0.00000
                          A1        A2        A3        A4        A5
           A1           0.16000
           A2           0.00000   0.16000
           A3           0.00000   0.00000   0.16000
           A4           0.00000   0.00000   0.00000   0.16000
           A5           0.00000   0.00000   0.00000   0.00000   0.16000
           A6           0.00000   0.00000   0.00000   0.00000   0.00000
           A7           0.00000   0.00000   0.00000   0.00000   0.00000
           A8           0.00000   0.00000   0.00000   0.00000   0.00000
           A9           0.00000   0.00000   0.00000   0.00000   0.00000
           A10          0.00000   0.00000   0.00000   0.00000   0.00000
           A11          0.00000   0.00000   0.00000   0.00000   0.00000
           D1           0.00000   0.00000   0.00000   0.00000   0.00000
           D2           0.00000   0.00000   0.00000   0.00000   0.00000
           D3           0.00000   0.00000   0.00000   0.00000   0.00000
           D4           0.00000   0.00000   0.00000   0.00000   0.00000
                          A6        A7        A8        A9        A10
           A6           0.16000
           A7           0.00000   0.16000
           A8           0.00000   0.00000   0.16000
           A9           0.00000   0.00000   0.00000   0.16000
           A10          0.00000   0.00000   0.00000   0.00000   0.00230
           A11          0.00000   0.00000   0.00000   0.00000   0.00000
           D1           0.00000   0.00000   0.00000   0.00000   0.00000
           D2           0.00000   0.00000   0.00000   0.00000   0.00000
           D3           0.00000   0.00000   0.00000   0.00000   0.00000
           D4           0.00000   0.00000   0.00000   0.00000   0.00000
                          A11       D1        D2        D3        D4
           A11          0.00230
           D1           0.00000   0.00504
           D2           0.00000   0.00000   0.00230
           D3           0.00000   0.00000   0.00000   0.00230
           D4           0.00000   0.00000   0.00000   0.00000   0.00230
 ITU=  0
 Eigenvectors of the second derivative matrix:
                           1         2         3         4         5
     Eigenvalues --     0.05670   0.06987   0.06991   0.08115   0.08115
   1         R1         0.00000  -0.00000  -0.00000  -0.00000  -0.00000
   2         R2         0.00000  -0.00000   0.00000   0.00000   0.00000
   3         R3         0.00000   0.00000   0.00000  -0.00000  -0.00000
   4         R4        -0.00000   0.00000  -0.00000   0.00000   0.00000
   5         R5        -0.00000  -0.00000  -0.00000  -0.00000  -0.00000
   6         A1         0.23561  -0.36015  -0.11479   0.00004  -0.00002
   7         A2         0.23582   0.08067   0.36922   0.00010  -0.00055
   8         A3         0.23570   0.27930  -0.25466   0.00014   0.00035
   9         A4        -0.00012   0.00003  -0.00055   0.21524  -0.53573
  10         A5         0.00004   0.00011   0.00008  -0.57158   0.08146
  11         A6        -0.23561  -0.36015  -0.11479  -0.00012   0.00010
  12         A7        -0.00006  -0.00013   0.00047   0.35633   0.45427
  13         A8        -0.23582   0.08067   0.36922   0.00001  -0.00041
  14         A9        -0.23570   0.27930  -0.25466   0.00009   0.00026
  15         A10       -0.00000  -0.72030  -0.22959  -0.00008   0.00008
  16         A11       -0.00000  -0.22964   0.72013  -0.00003  -0.00077
  17         D1        -0.81648   0.00000  -0.00000  -0.00005  -0.00002
  18         D2         0.00000   0.00010  -0.00061   0.21524  -0.53573
  19         D3        -0.00004  -0.00006  -0.00009   0.57158  -0.08146
  20         D4        -0.00005  -0.00016   0.00052   0.35633   0.45427
                           6         7         8         9        10
     Eigenvalues --     0.13158   0.13179   0.16000   0.16000   0.37277
   1         R1        -0.00000  -1.00000   0.00000   0.00000   0.00000
   2         R2         0.00000  -0.00000  -0.00000   0.00000  -0.00000
   3         R3         0.00000  -0.00000   0.00000  -0.00000   0.00000
   4         R4         0.00000  -0.00000  -0.00000   0.00000  -1.00000
   5         R5        -1.00000   0.00000   0.00000   0.00000   0.00000
   6         A1        -0.00000  -0.00000  -0.09474  -0.56965  -0.00000
   7         A2         0.00000   0.00000  -0.44574   0.36672   0.00000
   8         A3         0.00000   0.00000   0.54068   0.20251   0.00000
   9         A4         0.00000   0.00000   0.00014   0.00006   0.00000
  10         A5         0.00000   0.00000  -0.00005  -0.00006  -0.00000
  11         A6         0.00000   0.00000   0.09474   0.56965   0.00000
  12         A7        -0.00000  -0.00000  -0.00009  -0.00000  -0.00000
  13         A8        -0.00000  -0.00000   0.44574  -0.36672  -0.00000
  14         A9        -0.00000  -0.00000  -0.54068  -0.20251   0.00000
  15         A10        0.00000   0.00000   0.00000   0.00000  -0.00000
  16         A11       -0.00000   0.00000  -0.00000  -0.00000  -0.00000
  17         D1         0.00000  -0.00000   0.00000  -0.00000   0.00000
  18         D2         0.00000   0.00000   0.00000   0.00000   0.00000
  19         D3        -0.00000  -0.00000   0.00000  -0.00000   0.00000
  20         D4        -0.00000  -0.00000  -0.00000  -0.00000  -0.00000
                          11        12
     Eigenvalues --     0.37281   0.37281
   1         R1        -0.00000  -0.00000
   2         R2        -1.00000  -0.00000
   3         R3        -0.00000   1.00000
   4         R4         0.00000   0.00000
   5         R5        -0.00000   0.00000
   6         A1        -0.00000  -0.00000
   7         A2         0.00000   0.00000
   8         A3        -0.00000   0.00000
   9         A4        -0.00000   0.00000
  10         A5         0.00000  -0.00000
  11         A6         0.00000   0.00000
  12         A7         0.00000   0.00000
  13         A8        -0.00000  -0.00000
  14         A9        -0.00000   0.00000
  15         A10       -0.00000   0.00000
  16         A11        0.00000  -0.00000
  17         D1        -0.00000   0.00000
  18         D2        -0.00000  -0.00000
  19         D3         0.00000   0.00000
  20         D4         0.00000   0.00000
 Eigenvalue     1 is   5.67D-02 should be less than     0.000000 Eigenvector:
                          D1        A8        A2        A3        A9
   1                   -0.81648  -0.23582   0.23582   0.23570  -0.23570
                          A6        A1        A4        A7        D4
   1                   -0.23561   0.23561  -0.00012  -0.00006  -0.00005
 RLam0= 5.67D-02.
 Iter=   1 RLamda= 0.00000000D+00 Sum=-4.91816609D-03.
 Iter=   2 RLamda=-4.91816609D-03 Sum=-4.74576924D-03.
 Iter=   3 RLamda=-4.74576924D-03 Sum=-4.75160413D-03.
 Iter=   4 RLamda=-4.75160413D-03 Sum=-4.75140640D-03.
 Iter=   5 RLamda=-4.75140640D-03 Sum=-4.75141310D-03.
 RFO step:  Lambda0=5.669847269D-02 Lambda=-4.75140640D-03.
 Linear search not attempted -- option 19 set.
 Maximum step size (   0.100) exceeded in Quadratic search.
    -- Step size scaled by   0.469
 Iteration  1 RMS(Cart)=  0.02236782 RMS(Int)=  0.00032738
 Iteration  2 RMS(Cart)=  0.00016607 RMS(Int)=  0.00027814
 Iteration  3 RMS(Cart)=  0.00000002 RMS(Int)=  0.00027814
 ITry= 1 IFail=0 DXMaxC= 8.13D-02 DCOld= 1.00D+10 DXMaxT= 1.00D-01 DXLimC= 3.00D+00 Rises=F
 Variable       Old X    -DE/DX   Delta X   Delta X   Delta X     New X
                                 (Linear)    (Quad)   (Total)
    R1        3.44575  -0.01764   0.00000  -0.06064  -0.06064   3.38512
    R2        2.02125   0.00505   0.00000   0.00628   0.00628   2.02753
    R3        2.02124   0.00502   0.00000   0.00624   0.00624   2.02748
    R4        2.02131   0.00501   0.00000   0.00623   0.00623   2.02754
    R5        3.44706  -0.01760   0.00000  -0.06057  -0.06057   3.38649
    A1        1.57081   0.00001   0.00000  -0.02033  -0.02033   1.55049
    A2        1.57037   0.00004   0.00000  -0.02024  -0.02024   1.55014
    A3        1.57137  -0.00002   0.00000  -0.02052  -0.02052   1.55085
    A4        2.09448  -0.00000   0.00000   0.00000  -0.00072   2.09377
    A5        2.09355   0.00003   0.00000   0.00016  -0.00056   2.09300
    A6        1.57066  -0.00000   0.00000   0.02039   0.02039   1.59105
    A7        2.09515  -0.00003   0.00000  -0.00015  -0.00087   2.09428
    A8        1.57063  -0.00001   0.00000   0.02042   0.02042   1.59105
    A9        1.57093  -0.00001   0.00000   0.02028   0.02028   1.59121
   A10        3.14148   0.00001   0.00000   0.00006   0.00006   3.14154
   A11        3.14085   0.00004   0.00000   0.00024   0.00024   3.14109
    D1        3.14140  -0.00003   0.00000   0.07053   0.07049  -3.07129
    D2        2.09448  -0.00000   0.00000  -0.00001  -0.00000   2.09448
    D3       -2.09355  -0.00003   0.00000  -0.00016  -0.00016  -2.09371
    D4        2.09515  -0.00003   0.00000  -0.00015  -0.00015   2.09500
         Item               Value     Threshold  Converged?
 Maximum Force            0.017643     0.000450     NO 
 RMS     Force            0.005902     0.000300     NO 
 Maximum Displacement     0.081263     0.001800     NO 
 RMS     Displacement     0.022367     0.001200     NO 
 Predicted change in Energy=-1.509783D-03
 Lowest energy point so far.  Saving SCF results.
 Largest change from initial coordinates is atom    1       0.021 Angstoms.
 GradGradGradGradGradGradGradGradGradGradGradGradGradGradGradGradGradGrad

 Leave Link  103 at Wed Oct 21 14:27:51 2020, MaxMem=  2684354560 cpu:               4.5 elap:               0.9
 (Enter /udrive/faculty/rpeverati/g16/g16/l202.exe)
                          Input orientation:                          
 ---------------------------------------------------------------------
 Center     Atomic      Atomic             Coordinates (Angstroms)
 Number     Number       Type             X           Y           Z
 ---------------------------------------------------------------------
      1          9           0        1.780648    0.000050    0.000008
      2          6           0       -0.010680   -0.000338   -0.000159
      3          1           0        0.011079   -0.305970    1.028079
      4          1           0        0.011281    1.042911   -0.249680
      5          1           0        0.010954   -0.738546   -0.778462
      6          9           0       -1.802732    0.000109    0.000024
 ---------------------------------------------------------------------
                    Distance matrix (angstroms):
                    1          2          3          4          5
     1  F    0.000000
     2  C    1.791328   0.000000
     3  H    2.069288   1.072921   0.000000
     4  H    2.068952   1.072898   1.857996   0.000000
     5  H    2.069627   1.072928   1.857610   1.858278   0.000000
     6  F    3.583380   1.792052   2.107248   2.107232   2.107394
                    6
     6  F    0.000000
 Stoichiometry    CH3F2(1-)
 Framework group  C1[X(CH3F2)]
 Deg. of freedom    12
 Full point group                 C1      NOp   1
 RotChk:  IX=0 Diff= 2.54D-02
 Largest Abelian subgroup         C1      NOp   1
 Largest concise Abelian subgroup C1      NOp   1
                         Standard orientation:                         
 ---------------------------------------------------------------------
 Center     Atomic      Atomic             Coordinates (Angstroms)
 Number     Number       Type             X           Y           Z
 ---------------------------------------------------------------------
      1          9           0        1.789149    0.000153    0.000044
      2          6           0       -0.002179   -0.000254   -0.000136
      3          1           0        0.019580   -0.323474    1.022710
      4          1           0        0.019770    1.047120   -0.231730
      5          1           0        0.019467   -0.725007   -0.790984
      6          9           0       -1.794231    0.000168    0.000047
 ---------------------------------------------------------------------
 Rotational constants (GHZ):         145.2641382           4.0850024           4.0849544
 Leave Link  202 at Wed Oct 21 14:27:52 2020, MaxMem=  2684354560 cpu:               1.9 elap:               0.7
 (Enter /udrive/faculty/rpeverati/g16/g16/l301.exe)
 Standard basis: VSTO-6G (5D, 7F)
 Ernie: Thresh=  0.10000D-02 Tol=  0.10000D-05 Strict=F.
  NNHCO=     0 NNPyr=     0 NCTC=     0               EPep=         0.000000000
    EC=        35.383023122  ECS=         0.677070184   EG=         0.051390450
   EHC=         0.000126795  EAt=       -39.882483773  AtH=         0.581626278
 EPDDG=         0.000000000  ECC=        36.111610551 EAtT=        40.464110051
 There are    15 symmetry adapted cartesian basis functions of A   symmetry.
 There are    15 symmetry adapted basis functions of A   symmetry.
    15 basis functions,    90 primitive gaussians,    15 cartesian basis functions
    11 alpha electrons       11 beta electrons
       nuclear repulsion energy        76.5757206027 Hartrees.
 IExCor=    0 DFT=F Ex=HF Corr=None ExCW=0 ScaHFX=  1.000000
 ScaDFX=  1.000000  1.000000  1.000000  1.000000 ScalE2=  1.000000  1.000000
 IRadAn=      5 IRanWt=     -1 IRanGd=            0 ICorTp=0 IEmpDi=  4
 Integral buffers will be    131072 words long.
 Regular integral format.
 Two-electron integral symmetry is turned off.
 Leave Link  301 at Wed Oct 21 14:27:54 2020, MaxMem=  2684354560 cpu:               5.3 elap:               1.1
 (Enter /udrive/faculty/rpeverati/g16/g16/l302.exe)
 Do NDO integrals.
 NPDir=0 NMtPBC=     1 NCelOv=     1 NCel=       1 NClECP=     1 NCelD=      1
         NCelK=      1 NCelE2=     1 NClLst=     1 CellRange=     0.0.
 One-electron integrals computed using PRISM.
 NBasis=    15 RedAO= F EigKep=  0.00D+00  NBF=    15
 NBsUse=    15 1.00D-04 EigRej=  0.00D+00 NBFU=    15
 Leave Link  302 at Wed Oct 21 14:27:55 2020, MaxMem=  2684354560 cpu:               4.1 elap:               1.0
 (Enter /udrive/faculty/rpeverati/g16/g16/l303.exe)
 DipDrv:  MaxL=1.
 Leave Link  303 at Wed Oct 21 14:27:56 2020, MaxMem=  2684354560 cpu:               2.9 elap:               0.9
 (Enter /udrive/faculty/rpeverati/g16/g16/l401.exe)
 Initial guess from the checkpoint file:  "MN_39_fch3fts_BH76_PM6_SE.chk"
 SCF N**3 symmetry information disabled.
 B after Tr=     0.000000    0.000000   -0.000000
         Rot=    0.999960   -0.008993    0.000000   -0.000002 Ang=  -1.03 deg.
 Guess basis will be translated and rotated to current coordinates.
 JPrj=0 DoOrth=T DoCkMO=T.
 Leave Link  401 at Wed Oct 21 14:27:57 2020, MaxMem=  2684354560 cpu:               3.1 elap:               0.9
 (Enter /udrive/faculty/rpeverati/g16/g16/l502.exe)
 Keep J ints in memory in canonical form, NReq=859737.
 FoFCou: FMM=F IPFlag=           0 FMFlag=           0 FMFlg1=           0
         NFxFlg=           0 DoJE=F BraDBF=F KetDBF=F FulRan=T
         wScrn=  0.000000 ICntrl=       600 IOpCl=  2 I1Cent=           0 NGrid=           0
         NMat0=    1 NMatS0=     33 NMatT0=    0 NMatD0=    1 NMtDS0=    0 NMtDT0=    0
 Symmetry not used in FoFCou.
 Two-electron integral symmetry not used.
 Closed shell SCF:
 Using DIIS extrapolation, IDIIS=  1040.
 Overlap will be assumed to be unity.
 NGot=  2684354560 LenX=  2684293520 LenY=  2684292638
 Requested convergence on RMS density matrix=1.00D-08 within 120 cycles.
 Requested convergence on MAX density matrix=1.00D-06.
 Requested convergence on             energy=1.00D-06.
 No special actions if energy rises.

 Cycle   1  Pass 1  IDiag  1:
 E=-0.162945755874802    
 DIIS: error= 1.66D-03 at cycle   1 NSaved=   1.
 NSaved= 1 IEnMin= 1 EnMin=-0.162945755874802     IErMin= 1 ErrMin= 1.66D-03
 ErrMax= 1.66D-03  0.00D+00 EMaxC= 1.00D-01 BMatC= 6.14D-05 BMatP= 6.14D-05
 IDIUse=3 WtCom= 9.83D-01 WtEn= 1.66D-02
 Coeff-Com:  0.100D+01
 Coeff-En:   0.100D+01
 Coeff:      0.100D+01
 GapD=    2.000 DampG=2.000 DampE=1.000 DampFc=2.0000 IDamp=-1.
 RMSDP=8.63D-04 MaxDP=4.08D-03              OVMax= 0.00D+00

 Cycle   2  Pass 1  IDiag  3:
 E=-0.163124470024883     Delta-E=       -0.000178714150 Rises=F Damp=F
 DIIS: error= 5.32D-04 at cycle   2 NSaved=   2.
 NSaved= 2 IEnMin= 2 EnMin=-0.163124470024883     IErMin= 2 ErrMin= 5.32D-04
 ErrMax= 5.32D-04  0.00D+00 EMaxC= 1.00D-01 BMatC= 6.02D-06 BMatP= 6.14D-05
 IDIUse=3 WtCom= 9.95D-01 WtEn= 5.32D-03
 Coeff-Com: -0.384D+00 0.138D+01
 Coeff-En:   0.000D+00 0.100D+01
 Coeff:     -0.382D+00 0.138D+01
 Gap=     0.436 Goal=   None    Shift=    0.000
 RMSDP=4.60D-04 MaxDP=2.31D-03 DE=-1.79D-04 OVMax= 2.60D-03

 Cycle   3  Pass 1  IDiag  3:
 E=-0.163151137996280     Delta-E=       -0.000026667971 Rises=F Damp=F
 DIIS: error= 1.46D-04 at cycle   3 NSaved=   3.
 NSaved= 3 IEnMin= 3 EnMin=-0.163151137996280     IErMin= 3 ErrMin= 1.46D-04
 ErrMax= 1.46D-04  0.00D+00 EMaxC= 1.00D-01 BMatC= 2.26D-07 BMatP= 6.02D-06
 IDIUse=3 WtCom= 9.99D-01 WtEn= 1.46D-03
 Coeff-Com:  0.193D+00-0.778D+00 0.159D+01
 Coeff-En:   0.000D+00 0.000D+00 0.100D+01
 Coeff:      0.193D+00-0.777D+00 0.158D+01
 Gap=     0.436 Goal=   None    Shift=    0.000
 RMSDP=1.31D-04 MaxDP=7.44D-04 DE=-2.67D-05 OVMax= 7.91D-04

 Cycle   4  Pass 1  IDiag  3:
 E=-0.163152514242555     Delta-E=       -0.000001376246 Rises=F Damp=F
 DIIS: error= 2.01D-05 at cycle   4 NSaved=   4.
 NSaved= 4 IEnMin= 4 EnMin=-0.163152514242555     IErMin= 4 ErrMin= 2.01D-05
 ErrMax= 2.01D-05  0.00D+00 EMaxC= 1.00D-01 BMatC= 3.64D-09 BMatP= 2.26D-07
 IDIUse=1 WtCom= 1.00D+00 WtEn= 0.00D+00
 Coeff-Com: -0.908D-01 0.368D+00-0.800D+00 0.152D+01
 Coeff:     -0.908D-01 0.368D+00-0.800D+00 0.152D+01
 Gap=     0.436 Goal=   None    Shift=    0.000
 RMSDP=1.64D-05 MaxDP=1.13D-04 DE=-1.38D-06 OVMax= 1.29D-04

 Cycle   5  Pass 1  IDiag  3:
 E=-0.163152534927519     Delta-E=       -0.000000020685 Rises=F Damp=F
 DIIS: error= 1.19D-06 at cycle   5 NSaved=   5.
 NSaved= 5 IEnMin= 5 EnMin=-0.163152534927519     IErMin= 5 ErrMin= 1.19D-06
 ErrMax= 1.19D-06  0.00D+00 EMaxC= 1.00D-01 BMatC= 5.25D-11 BMatP= 3.64D-09
 IDIUse=1 WtCom= 1.00D+00 WtEn= 0.00D+00
 Coeff-Com:  0.281D-01-0.114D+00 0.250D+00-0.523D+00 0.136D+01
 Coeff:      0.281D-01-0.114D+00 0.250D+00-0.523D+00 0.136D+01
 Gap=     0.436 Goal=   None    Shift=    0.000
 RMSDP=1.61D-06 MaxDP=7.90D-06 DE=-2.07D-08 OVMax= 1.11D-05

 Cycle   6  Pass 1  IDiag  3:
 E=-0.163152535202073     Delta-E=       -0.000000000275 Rises=F Damp=F
 DIIS: error= 3.75D-07 at cycle   6 NSaved=   6.
 NSaved= 6 IEnMin= 6 EnMin=-0.163152535202073     IErMin= 6 ErrMin= 3.75D-07
 ErrMax= 3.75D-07  0.00D+00 EMaxC= 1.00D-01 BMatC= 3.52D-12 BMatP= 5.25D-11
 IDIUse=1 WtCom= 1.00D+00 WtEn= 0.00D+00
 Coeff-Com: -0.149D-01 0.604D-01-0.133D+00 0.284D+00-0.863D+00 0.167D+01
 Coeff:     -0.149D-01 0.604D-01-0.133D+00 0.284D+00-0.863D+00 0.167D+01
 Gap=     0.436 Goal=   None    Shift=    0.000
 RMSDP=5.09D-07 MaxDP=2.05D-06 DE=-2.75D-10 OVMax= 2.34D-06

 Cycle   7  Pass 1  IDiag  3:
 E=-0.163152535224185     Delta-E=       -0.000000000022 Rises=F Damp=F
 DIIS: error= 8.56D-08 at cycle   7 NSaved=   7.
 NSaved= 7 IEnMin= 7 EnMin=-0.163152535224185     IErMin= 7 ErrMin= 8.56D-08
 ErrMax= 8.56D-08  0.00D+00 EMaxC= 1.00D-01 BMatC= 1.26D-13 BMatP= 3.52D-12
 IDIUse=1 WtCom= 1.00D+00 WtEn= 0.00D+00
 Coeff-Com:  0.324D-02-0.130D-01 0.288D-01-0.622D-01 0.203D+00-0.518D+00
 Coeff-Com:  0.136D+01
 Coeff:      0.324D-02-0.130D-01 0.288D-01-0.622D-01 0.203D+00-0.518D+00
 Coeff:      0.136D+01
 Gap=     0.436 Goal=   None    Shift=    0.000
 RMSDP=9.57D-08 MaxDP=5.49D-07 DE=-2.21D-11 OVMax= 5.82D-07

 Cycle   8  Pass 1  IDiag  3:
 E=-0.163152535224995     Delta-E=       -0.000000000001 Rises=F Damp=F
 DIIS: error= 2.78D-08 at cycle   8 NSaved=   8.
 NSaved= 8 IEnMin= 8 EnMin=-0.163152535224995     IErMin= 8 ErrMin= 2.78D-08
 ErrMax= 2.78D-08  0.00D+00 EMaxC= 1.00D-01 BMatC= 9.94D-15 BMatP= 1.26D-13
 IDIUse=1 WtCom= 1.00D+00 WtEn= 0.00D+00
 Coeff-Com: -0.211D-03 0.817D-03-0.188D-02 0.432D-02-0.219D-01 0.100D+00
 Coeff-Com: -0.588D+00 0.151D+01
 Coeff:     -0.211D-03 0.817D-03-0.188D-02 0.432D-02-0.219D-01 0.100D+00
 Coeff:     -0.588D+00 0.151D+01
 Gap=     0.436 Goal=   None    Shift=    0.000
 RMSDP=3.07D-08 MaxDP=2.04D-07 DE=-8.10D-13 OVMax= 2.03D-07

 Cycle   9  Pass 1  IDiag  3:
 E=-0.163152535225152     Delta-E=       -0.000000000000 Rises=F Damp=F
 DIIS: error= 5.77D-09 at cycle   9 NSaved=   9.
 NSaved= 9 IEnMin= 9 EnMin=-0.163152535225152     IErMin= 9 ErrMin= 5.77D-09
 ErrMax= 5.77D-09  0.00D+00 EMaxC= 1.00D-01 BMatC= 4.19D-16 BMatP= 9.94D-15
 IDIUse=1 WtCom= 1.00D+00 WtEn= 0.00D+00
 Coeff-Com:  0.304D-04-0.106D-03 0.269D-03-0.709D-03 0.615D-02-0.357D-01
 Coeff-Com:  0.243D+00-0.752D+00 0.154D+01
 Coeff:      0.304D-04-0.106D-03 0.269D-03-0.709D-03 0.615D-02-0.357D-01
 Coeff:      0.243D+00-0.752D+00 0.154D+01
 Gap=     0.436 Goal=   None    Shift=    0.000
 RMSDP=6.42D-09 MaxDP=4.32D-08 DE=-1.56D-13 OVMax= 3.94D-08

 Cycle  10  Pass 2  IDiag  1:
 SCF Done:  E(RPM6) = -0.163152535225     A.U. after   10 cycles
            NFock=  9  Conv=0.64D-08     -V/T= 0.9977
 KE=-7.112472691316D+01 PE=-7.196679728820D+01 EE= 6.635265106346D+01
 Leave Link  502 at Wed Oct 21 14:27:59 2020, MaxMem=  2684354560 cpu:               8.1 elap:               1.3
 (Enter /udrive/faculty/rpeverati/g16/g16/l508.exe)
 QCSCF skips out because SCF is already converged.
 Leave Link  508 at Wed Oct 21 14:28:00 2020, MaxMem=  2684354560 cpu:               0.6 elap:               0.7
 (Enter /udrive/faculty/rpeverati/g16/g16/l701.exe)
 ... and contract with generalized density number  0.
 Compute integral first derivatives.
 Leave Link  701 at Wed Oct 21 14:28:02 2020, MaxMem=  2684354560 cpu:               4.3 elap:               1.1
 (Enter /udrive/faculty/rpeverati/g16/g16/l702.exe)
 L702 exits ... SP integral derivatives will be done elsewhere.
 Leave Link  702 at Wed Oct 21 14:28:03 2020, MaxMem=  2684354560 cpu:               2.4 elap:               0.9
 (Enter /udrive/faculty/rpeverati/g16/g16/l703.exe)
 Integral derivatives from FoFJK, PRISM(SPDF).
 Compute integral first derivatives, UseDBF=F ICtDFT=           0.
 Calling FoFJK, ICntrl=      2127 FMM=F ISym2X=0 I1Cent= 0 IOpClX= 0 NMat=1 NMatS=1 NMatT=0.
 FoFJK:  IHMeth=40 ICntrl=    2127 DoSepK=F KAlg= 0 I1Cent=           0 FoldK=F
 IRaf=         0 NMat=       1 IRICut=       1 DoRegI=T DoRafI=F ISym2E= 0 IDoP0=3 IntGTp=3.
 FoFCou: FMM=F IPFlag=           0 FMFlag=      100000 FMFlg1=         800
         NFxFlg=           0 DoJE=F BraDBF=F KetDBF=F FulRan=T
         wScrn=  0.000000 ICntrl=      2127 IOpCl=  0 I1Cent=           0 NGrid=           0
         NMat0=    1 NMatS0=      1 NMatT0=    0 NMatD0=    1 NMtDS0=    0 NMtDT0=    0
 Symmetry not used in FoFCou.
 Leave Link  703 at Wed Oct 21 14:28:04 2020, MaxMem=  2684354560 cpu:               3.3 elap:               1.0
 (Enter /udrive/faculty/rpeverati/g16/g16/l716.exe)
 Dipole        =-1.25864910D-02-7.56030709D-04-1.65699664D-04
 ***** Axes restored to original set *****
 -------------------------------------------------------------------
 Center     Atomic                   Forces (Hartrees/Bohr)
 Number     Number              X              Y              Z
 -------------------------------------------------------------------
      1        9          -0.009822538   -0.000021149   -0.000009008
      2        6           0.001068385   -0.000022160    0.000041666
      3        1          -0.002375783   -0.001099281    0.003788220
      4        1          -0.002390477    0.003819457   -0.000934724
      5        1          -0.002366801   -0.002666625   -0.002878636
      6        9           0.015887214   -0.000010242   -0.000007518
 -------------------------------------------------------------------
 Cartesian Forces:  Max     0.015887214 RMS     0.004792408
 Leave Link  716 at Wed Oct 21 14:28:05 2020, MaxMem=  2684354560 cpu:               2.0 elap:               0.9
 (Enter /udrive/faculty/rpeverati/g16/g16/l103.exe)

 GradGradGradGradGradGradGradGradGradGradGradGradGradGradGradGradGradGrad
 Berny optimization.
 Optmz: redundant internal coordinate code flag= 1
 Red2BG:  D1=  4.12D-01 OD1=  8.84D-02 B2RMS=  0.00D+00 IAprox=0
 FormGI is forming the generalized inverse of G from B-inverse, IUseBI=4.
 Internal  Forces:  Max     0.015887216 RMS     0.004508782
 Search for a saddle point.
 Step number   2 out of a maximum of   50
 All quantities printed in internal units (Hartrees-Bohrs-Radians)
 Swapping is turned off.
 Update second derivatives using D2CorX and points    1    2
 The second derivative matrix:
                          R1        R2        R3        R4        R5
           R1           0.13754
           R2           0.00317   0.37152
           R3           0.00318  -0.00129   0.37152
           R4           0.00318  -0.00129  -0.00129   0.37148
           R5          -0.01390   0.00819   0.00819   0.00818   0.08250
           A1          -0.00573   0.00302   0.00302   0.00302  -0.01837
           A2          -0.00570   0.00301   0.00301   0.00300  -0.01829
           A3          -0.00577   0.00305   0.00305   0.00304  -0.01853
           A4          -0.00023   0.00011   0.00011   0.00011  -0.00070
           A5           0.00000   0.00004   0.00004   0.00004  -0.00022
           A6           0.00574  -0.00303  -0.00303  -0.00302   0.01842
           A7          -0.00009   0.00009   0.00009   0.00009  -0.00050
           A8           0.00575  -0.00303  -0.00303  -0.00303   0.01846
           A9           0.00571  -0.00301  -0.00301  -0.00301   0.01832
           A10         -0.00002  -0.00000  -0.00000  -0.00000  -0.00001
           A11         -0.00006  -0.00000  -0.00000  -0.00000  -0.00000
           D1          -0.01536  -0.00147  -0.00149  -0.00148   0.00062
           D2          -0.00013   0.00003   0.00003   0.00003  -0.00023
           D3          -0.00003   0.00002   0.00002   0.00002  -0.00011
           D4           0.00010  -0.00001  -0.00001  -0.00001   0.00011
                          A1        A2        A3        A4        A5
           A1           0.15315
           A2          -0.00682   0.15321
           A3          -0.00691  -0.00688   0.15303
           A4          -0.00026  -0.00026  -0.00026   0.15999
           A5          -0.00008  -0.00008  -0.00009  -0.00000   0.16000
           A6           0.00687   0.00684   0.00693   0.00026   0.00008
           A7          -0.00019  -0.00019  -0.00019  -0.00001  -0.00000
           A8           0.00688   0.00685   0.00694   0.00026   0.00009
           A9           0.00683   0.00680   0.00689   0.00026   0.00008
           A10         -0.00000  -0.00000  -0.00000  -0.00000  -0.00000
           A11          0.00000   0.00000   0.00000   0.00000  -0.00000
           D1           0.00107   0.00107   0.00107   0.00006  -0.00010
           D2          -0.00008  -0.00008  -0.00008  -0.00000  -0.00000
           D3          -0.00004  -0.00004  -0.00004  -0.00000  -0.00000
           D4           0.00004   0.00004   0.00004   0.00000   0.00000
                          A6        A7        A8        A9        A10
           A6           0.15311
           A7           0.00019   0.16000
           A8          -0.00690   0.00019   0.15309
           A9          -0.00685   0.00019  -0.00686   0.15319
           A10          0.00000  -0.00000   0.00000   0.00000   0.00230
           A11         -0.00000  -0.00000  -0.00000  -0.00000   0.00000
           D1          -0.00107  -0.00008  -0.00108  -0.00106   0.00002
           D2           0.00008  -0.00000   0.00008   0.00008   0.00000
           D3           0.00004  -0.00000   0.00004   0.00004  -0.00000
           D4          -0.00004   0.00000  -0.00004  -0.00004  -0.00000
                          A11       D1        D2        D3        D4
           A11          0.00230
           D1           0.00009   0.02995
           D2           0.00000   0.00010   0.00230
           D3          -0.00000  -0.00001  -0.00000   0.00230
           D4          -0.00000  -0.00011   0.00000   0.00000   0.00230
 ITU=  0  0
 Eigenvectors of the second derivative matrix:
                           1         2         3         4         5
     Eigenvalues --     0.03951   0.06979   0.06982   0.08112   0.08114
   1         R1         0.04254   0.00069   0.00056  -0.01163  -0.00486
   2         R2        -0.02788  -0.00011  -0.00007   0.00112   0.00053
   3         R3        -0.02792  -0.00011  -0.00007   0.00112   0.00053
   4         R4        -0.02787  -0.00011  -0.00007   0.00112   0.00053
   5         R5         0.54581   0.00302   0.00194  -0.03923  -0.01835
   6         A1         0.19679  -0.32427   0.19039  -0.03686   0.01699
   7         A2         0.19595  -0.00348  -0.37638  -0.00025  -0.04303
   8         A3         0.19799   0.32690   0.18487   0.03324   0.01854
   9         A4         0.02354  -0.03466  -0.01944   0.49165   0.29755
  10         A5         0.00765   0.00043   0.03978   0.01204  -0.57545
  11         A6        -0.19687  -0.32497   0.19201  -0.01653   0.01226
  12         A7         0.01034   0.03417  -0.02043  -0.50397   0.27736
  13         A8        -0.19739  -0.00299  -0.37688   0.00187  -0.01773
  14         A9        -0.19648   0.32861   0.18644   0.01866   0.01321
  15         A10       -0.00008  -0.64923   0.38240  -0.05339   0.02926
  16         A11       -0.00170  -0.38246  -0.64915  -0.02913  -0.05339
  17         D1        -0.68150   0.00227   0.00234  -0.01542  -0.00317
  18         D2         0.00973  -0.04619  -0.02594   0.49154   0.29760
  19         D3         0.00619  -0.00053  -0.05313  -0.01212   0.57503
  20         D4        -0.00354   0.04566  -0.02719  -0.50367   0.27743
                           6         7         8         9        10
     Eigenvalues --     0.09446   0.14228   0.16000   0.16000   0.36995
   1         R1         0.31157   0.94894   0.00035   0.00005   0.02141
   2         R2        -0.01642  -0.00633   0.00002  -0.00000   0.57452
   3         R3        -0.01641  -0.00637   0.00002  -0.00000   0.57316
   4         R4        -0.01639  -0.00636   0.00002  -0.00000   0.58151
   5         R5         0.78576  -0.28407   0.00086  -0.00001   0.04574
   6         A1        -0.12616   0.03222   0.06525  -0.57345   0.00630
   7         A2        -0.12546   0.03208   0.46363   0.34343   0.00625
   8         A3        -0.12522   0.03243  -0.52960   0.23000   0.00639
   9         A4         0.01577   0.00134   0.01854  -0.00806   0.00036
  10         A5        -0.01734   0.00252  -0.01630  -0.01211   0.00042
  11         A6         0.12574  -0.03234  -0.06525   0.57345  -0.00632
  12         A7        -0.02492   0.00294  -0.00228   0.02020   0.00055
  13         A8         0.12692  -0.03233  -0.46363  -0.34342  -0.00631
  14         A9         0.12419  -0.03206   0.52960  -0.23000  -0.00631
  15         A10       -0.00042  -0.00012  -0.00000  -0.00000  -0.00002
  16         A11        0.00143  -0.00036  -0.00000  -0.00000  -0.00008
  17         D1         0.43349  -0.11149  -0.00013  -0.00001  -0.02183
  18         D2         0.02465  -0.00093  -0.00000  -0.00000  -0.00008
  19         D3         0.00856  -0.00026  -0.00000  -0.00000   0.00003
  20         D4        -0.01609   0.00067   0.00000   0.00000   0.00011
                          11        12
     Eigenvalues --     0.37278   0.37281
   1         R1         0.00013  -0.00006
   2         R2         0.44952   0.68321
   3         R3         0.37291  -0.72893
   4         R4        -0.81171   0.04348
   5         R5         0.00031  -0.00007
   6         A1         0.00004  -0.00002
   7         A2         0.00004  -0.00002
   8         A3         0.00004  -0.00002
   9         A4         0.00000  -0.00000
  10         A5         0.00000  -0.00000
  11         A6        -0.00004   0.00002
  12         A7         0.00000  -0.00000
  13         A8        -0.00004   0.00002
  14         A9        -0.00004   0.00002
  15         A10       -0.00000   0.00000
  16         A11       -0.00000   0.00000
  17         D1        -0.00014   0.00005
  18         D2        -0.00000   0.00000
  19         D3         0.00000  -0.00000
  20         D4         0.00000  -0.00000
 Eigenvalue     1 is   3.95D-02 should be less than     0.000000 Eigenvector:
                          D1        R5        A3        A8        A6
   1                   -0.68150   0.54581   0.19799  -0.19739  -0.19687
                          A1        A9        A2        R1        R3
   1                    0.19679  -0.19648   0.19595   0.04254  -0.02792
 RLam0= 4.05D-02.
 Iter=   1 RLamda= 0.00000000D+00 Sum=-3.52127862D-03.
 Iter=   2 RLamda=-3.52127862D-03 Sum=-3.39875498D-03.
 Iter=   3 RLamda=-3.39875498D-03 Sum=-3.40287216D-03.
 Iter=   4 RLamda=-3.40287216D-03 Sum=-3.40273365D-03.
 Iter=   5 RLamda=-3.40273365D-03 Sum=-3.40273831D-03.
 RFO step:  Lambda0=4.054456336D-02 Lambda=-3.40273365D-03.
 Linear search not attempted -- option 19 set.
 Maximum step size (   0.100) exceeded in Quadratic search.
    -- Step size scaled by   0.602
 Iteration  1 RMS(Cart)=  0.02007858 RMS(Int)=  0.00094228
 Iteration  2 RMS(Cart)=  0.00047634 RMS(Int)=  0.00081159
 Iteration  3 RMS(Cart)=  0.00000007 RMS(Int)=  0.00081159
 ITry= 1 IFail=0 DXMaxC= 5.92D-02 DCOld= 1.00D+10 DXMaxT= 1.00D-01 DXLimC= 3.00D+00 Rises=F
 Variable       Old X    -DE/DX   Delta X   Delta X   Delta X     New X
                                 (Linear)    (Quad)   (Total)
    R1        3.38512  -0.00982   0.00000  -0.04617  -0.04617   3.33895
    R2        2.02753   0.00390   0.00000   0.00430   0.00430   2.03182
    R3        2.02748   0.00388   0.00000   0.00427   0.00427   2.03176
    R4        2.02754   0.00388   0.00000   0.00426   0.00426   2.03181
    R5        3.38649  -0.01589   0.00000  -0.01951  -0.01951   3.36698
    A1        1.55049   0.00083   0.00000   0.03481   0.03479   1.58527
    A2        1.55014   0.00086   0.00000   0.03484   0.03482   1.58495
    A3        1.55085   0.00081   0.00000   0.03476   0.03474   1.58559
    A4        2.09377   0.00002   0.00000   0.00409   0.00200   2.09576
    A5        2.09300   0.00010   0.00000   0.00164  -0.00045   2.09255
    A6        1.59105  -0.00083   0.00000  -0.03475  -0.03473   1.55632
    A7        2.09428   0.00006   0.00000   0.00161  -0.00049   2.09379
    A8        1.59105  -0.00083   0.00000  -0.03483  -0.03481   1.55624
    A9        1.59121  -0.00083   0.00000  -0.03482  -0.03480   1.55641
   A10        3.14154   0.00001   0.00000   0.00006   0.00006   3.14159
   A11        3.14109   0.00003   0.00000   0.00004   0.00004   3.14113
    D1       -3.07129  -0.00287   0.00000  -0.12044  -0.12038   3.09151
    D2        2.09448  -0.00004   0.00000   0.00165   0.00165   2.09613
    D3       -2.09371  -0.00004   0.00000   0.00080   0.00081  -2.09291
    D4        2.09500  -0.00000   0.00000  -0.00085  -0.00085   2.09415
         Item               Value     Threshold  Converged?
 Maximum Force            0.015887     0.000450     NO 
 RMS     Force            0.004509     0.000300     NO 
 Maximum Displacement     0.059238     0.001800     NO 
 RMS     Displacement     0.020059     0.001200     NO 
 Predicted change in Energy=-4.986823D-04
 Lowest energy point so far.  Saving SCF results.
 Largest change from initial coordinates is atom    6       0.061 Angstoms.
 GradGradGradGradGradGradGradGradGradGradGradGradGradGradGradGradGradGrad

 Leave Link  103 at Wed Oct 21 14:28:07 2020, MaxMem=  2684354560 cpu:               6.3 elap:               1.2
 (Enter /udrive/faculty/rpeverati/g16/g16/l202.exe)
                          Input orientation:                          
 ---------------------------------------------------------------------
 Center     Atomic      Atomic             Coordinates (Angstroms)
 Number     Number       Type             X           Y           Z
 ---------------------------------------------------------------------
      1          9           0        1.777243    0.000200    0.000160
      2          6           0        0.010345   -0.000159    0.000045
      3          1           0       -0.005225   -0.307304    1.030319
      4          1           0       -0.005072    1.045192   -0.250893
      5          1           0       -0.005355   -0.739979   -0.779983
      6          9           0       -1.771384    0.000267    0.000162
 ---------------------------------------------------------------------
                    Distance matrix (angstroms):
                    1          2          3          4          5
     1  F    0.000000
     2  C    1.766898   0.000000
     3  H    2.081580   1.075195   0.000000
     4  H    2.081269   1.075159   1.862995   0.000000
     5  H    2.081861   1.075185   1.861290   1.861926   0.000000
     6  F    3.548627   1.781729   2.067642   2.067548   2.067716
                    6
     6  F    0.000000
 Stoichiometry    CH3F2(1-)
 Framework group  C1[X(CH3F2)]
 Deg. of freedom    12
 Full point group                 C1      NOp   1
 RotChk:  IX=2 Diff= 7.71D-01
 Largest Abelian subgroup         C1      NOp   1
 Largest concise Abelian subgroup C1      NOp   1
                         Standard orientation:                         
 ---------------------------------------------------------------------
 Center     Atomic      Atomic             Coordinates (Angstroms)
 Number     Number       Type             X           Y           Z
 ---------------------------------------------------------------------
      1          9           0        1.773571    0.000121    0.000151
      2          6           0        0.006673   -0.000142   -0.000153
      3          1           0       -0.008891   -0.814076    0.702210
      4          1           0       -0.008759    1.015665    0.351789
      5          1           0       -0.009017   -0.203003   -1.055910
      6          9           0       -1.775056    0.000131    0.000163
 ---------------------------------------------------------------------
 Rotational constants (GHZ):         144.6236677           4.1640475           4.1639194
 Leave Link  202 at Wed Oct 21 14:28:08 2020, MaxMem=  2684354560 cpu:               2.0 elap:               0.8
 (Enter /udrive/faculty/rpeverati/g16/g16/l301.exe)
 Standard basis: VSTO-6G (5D, 7F)
 Ernie: Thresh=  0.10000D-02 Tol=  0.10000D-05 Strict=F.
  NNHCO=     0 NNPyr=     0 NCTC=     0               EPep=         0.000000000
    EC=        35.585495678  ECS=         0.680195777   EG=         0.053111512
   EHC=         0.000124892  EAt=       -39.882483773  AtH=         0.581626278
 EPDDG=         0.000000000  ECC=        36.318927859 EAtT=        40.464110051
 There are    15 symmetry adapted cartesian basis functions of A   symmetry.
 There are    15 symmetry adapted basis functions of A   symmetry.
    15 basis functions,    90 primitive gaussians,    15 cartesian basis functions
    11 alpha electrons       11 beta electrons
       nuclear repulsion energy        76.7830379105 Hartrees.
 IExCor=    0 DFT=F Ex=HF Corr=None ExCW=0 ScaHFX=  1.000000
 ScaDFX=  1.000000  1.000000  1.000000  1.000000 ScalE2=  1.000000  1.000000
 IRadAn=      5 IRanWt=     -1 IRanGd=            0 ICorTp=0 IEmpDi=  4
 Integral buffers will be    131072 words long.
 Regular integral format.
 Two-electron integral symmetry is turned off.
 Leave Link  301 at Wed Oct 21 14:28:09 2020, MaxMem=  2684354560 cpu:               4.9 elap:               1.1
 (Enter /udrive/faculty/rpeverati/g16/g16/l302.exe)
 Do NDO integrals.
 NPDir=0 NMtPBC=     1 NCelOv=     1 NCel=       1 NClECP=     1 NCelD=      1
         NCelK=      1 NCelE2=     1 NClLst=     1 CellRange=     0.0.
 One-electron integrals computed using PRISM.
 NBasis=    15 RedAO= F EigKep=  0.00D+00  NBF=    15
 NBsUse=    15 1.00D-04 EigRej=  0.00D+00 NBFU=    15
 Leave Link  302 at Wed Oct 21 14:28:10 2020, MaxMem=  2684354560 cpu:               3.9 elap:               1.0
 (Enter /udrive/faculty/rpeverati/g16/g16/l303.exe)
 DipDrv:  MaxL=1.
 Leave Link  303 at Wed Oct 21 14:28:12 2020, MaxMem=  2684354560 cpu:               3.1 elap:               0.9
 (Enter /udrive/faculty/rpeverati/g16/g16/l401.exe)
 Initial guess from the checkpoint file:  "MN_39_fch3fts_BH76_PM6_SE.chk"
 SCF N**3 symmetry information disabled.
 B after Tr=     0.000000    0.000000    0.000000
         Rot=    0.962158   -0.272493   -0.000001   -0.000000 Ang= -31.63 deg.
 Guess basis will be translated and rotated to current coordinates.
 JPrj=0 DoOrth=T DoCkMO=T.
 Leave Link  401 at Wed Oct 21 14:28:13 2020, MaxMem=  2684354560 cpu:               3.3 elap:               1.0
 (Enter /udrive/faculty/rpeverati/g16/g16/l502.exe)
 Keep J ints in memory in canonical form, NReq=859737.
 FoFCou: FMM=F IPFlag=           0 FMFlag=           0 FMFlg1=           0
         NFxFlg=           0 DoJE=F BraDBF=F KetDBF=F FulRan=T
         wScrn=  0.000000 ICntrl=       600 IOpCl=  2 I1Cent=           0 NGrid=           0
         NMat0=    1 NMatS0=     33 NMatT0=    0 NMatD0=    1 NMtDS0=    0 NMtDT0=    0
 Symmetry not used in FoFCou.
 Two-electron integral symmetry not used.
 Closed shell SCF:
 Using DIIS extrapolation, IDIIS=  1040.
 Overlap will be assumed to be unity.
 NGot=  2684354560 LenX=  2684293520 LenY=  2684292638
 Requested convergence on RMS density matrix=1.00D-08 within 120 cycles.
 Requested convergence on MAX density matrix=1.00D-06.
 Requested convergence on             energy=1.00D-06.
 No special actions if energy rises.

 Cycle   1  Pass 1  IDiag  1:
 E=-0.163668594784028    
 DIIS: error= 2.93D-03 at cycle   1 NSaved=   1.
 NSaved= 1 IEnMin= 1 EnMin=-0.163668594784028     IErMin= 1 ErrMin= 2.93D-03
 ErrMax= 2.93D-03  0.00D+00 EMaxC= 1.00D-01 BMatC= 1.01D-04 BMatP= 1.01D-04
 IDIUse=3 WtCom= 9.71D-01 WtEn= 2.93D-02
 Coeff-Com:  0.100D+01
 Coeff-En:   0.100D+01
 Coeff:      0.100D+01
 GapD=    2.000 DampG=2.000 DampE=1.000 DampFc=2.0000 IDamp=-1.
 RMSDP=1.28D-03 MaxDP=5.93D-03              OVMax= 0.00D+00

 Cycle   2  Pass 1  IDiag  3:
 E=-0.164025337969790     Delta-E=       -0.000356743186 Rises=F Damp=F
 DIIS: error= 1.03D-03 at cycle   2 NSaved=   2.
 NSaved= 2 IEnMin= 2 EnMin=-0.164025337969790     IErMin= 2 ErrMin= 1.03D-03
 ErrMax= 1.03D-03  0.00D+00 EMaxC= 1.00D-01 BMatC= 1.35D-05 BMatP= 1.01D-04
 IDIUse=3 WtCom= 9.90D-01 WtEn= 1.03D-02
 Coeff-Com: -0.519D+00 0.152D+01
 Coeff-En:   0.000D+00 0.100D+01
 Coeff:     -0.514D+00 0.151D+01
 Gap=     0.441 Goal=   None    Shift=    0.000
 RMSDP=8.11D-04 MaxDP=3.59D-03 DE=-3.57D-04 OVMax= 5.66D-03

 Cycle   3  Pass 1  IDiag  3:
 E=-0.164093097760414     Delta-E=       -0.000067759791 Rises=F Damp=F
 DIIS: error= 1.59D-04 at cycle   3 NSaved=   3.
 NSaved= 3 IEnMin= 3 EnMin=-0.164093097760414     IErMin= 3 ErrMin= 1.59D-04
 ErrMax= 1.59D-04  0.00D+00 EMaxC= 1.00D-01 BMatC= 3.20D-07 BMatP= 1.35D-05
 IDIUse=3 WtCom= 9.98D-01 WtEn= 1.59D-03
 Coeff-Com:  0.257D+00-0.813D+00 0.156D+01
 Coeff-En:   0.000D+00 0.000D+00 0.100D+01
 Coeff:      0.257D+00-0.811D+00 0.155D+01
 Gap=     0.441 Goal=   None    Shift=    0.000
 RMSDP=1.66D-04 MaxDP=1.01D-03 DE=-6.78D-05 OVMax= 1.51D-03

 Cycle   4  Pass 1  IDiag  3:
 E=-0.164095213956898     Delta-E=       -0.000002116196 Rises=F Damp=F
 DIIS: error= 2.29D-05 at cycle   4 NSaved=   4.
 NSaved= 4 IEnMin= 4 EnMin=-0.164095213956898     IErMin= 4 ErrMin= 2.29D-05
 ErrMax= 2.29D-05  0.00D+00 EMaxC= 1.00D-01 BMatC= 7.71D-09 BMatP= 3.20D-07
 IDIUse=1 WtCom= 1.00D+00 WtEn= 0.00D+00
 Coeff-Com: -0.107D+00 0.341D+00-0.734D+00 0.150D+01
 Coeff:     -0.107D+00 0.341D+00-0.734D+00 0.150D+01
 Gap=     0.441 Goal=   None    Shift=    0.000
 RMSDP=2.49D-05 MaxDP=1.58D-04 DE=-2.12D-06 OVMax= 2.31D-04

 Cycle   5  Pass 1  IDiag  3:
 E=-0.164095257137518     Delta-E=       -0.000000043181 Rises=F Damp=F
 DIIS: error= 1.34D-06 at cycle   5 NSaved=   5.
 NSaved= 5 IEnMin= 5 EnMin=-0.164095257137518     IErMin= 5 ErrMin= 1.34D-06
 ErrMax= 1.34D-06  0.00D+00 EMaxC= 1.00D-01 BMatC= 5.46D-11 BMatP= 7.71D-09
 IDIUse=1 WtCom= 1.00D+00 WtEn= 0.00D+00
 Coeff-Com:  0.286D-01-0.910D-01 0.197D+00-0.424D+00 0.129D+01
 Coeff:      0.286D-01-0.910D-01 0.197D+00-0.424D+00 0.129D+01
 Gap=     0.441 Goal=   None    Shift=    0.000
 RMSDP=1.35D-06 MaxDP=5.82D-06 DE=-4.32D-08 OVMax= 6.13D-06

 Cycle   6  Pass 1  IDiag  3:
 E=-0.164095257383650     Delta-E=       -0.000000000246 Rises=F Damp=F
 DIIS: error= 4.58D-07 at cycle   6 NSaved=   6.
 NSaved= 6 IEnMin= 6 EnMin=-0.164095257383650     IErMin= 6 ErrMin= 4.58D-07
 ErrMax= 4.58D-07  0.00D+00 EMaxC= 1.00D-01 BMatC= 3.97D-12 BMatP= 5.46D-11
 IDIUse=1 WtCom= 1.00D+00 WtEn= 0.00D+00
 Coeff-Com: -0.850D-02 0.269D-01-0.584D-01 0.129D+00-0.563D+00 0.147D+01
 Coeff:     -0.850D-02 0.269D-01-0.584D-01 0.129D+00-0.563D+00 0.147D+01
 Gap=     0.441 Goal=   None    Shift=    0.000
 RMSDP=4.66D-07 MaxDP=2.37D-06 DE=-2.46D-10 OVMax= 2.07D-06

 Cycle   7  Pass 1  IDiag  3:
 E=-0.164095257405890     Delta-E=       -0.000000000022 Rises=F Damp=F
 DIIS: error= 7.91D-08 at cycle   7 NSaved=   7.
 NSaved= 7 IEnMin= 7 EnMin=-0.164095257405890     IErMin= 7 ErrMin= 7.91D-08
 ErrMax= 7.91D-08  0.00D+00 EMaxC= 1.00D-01 BMatC= 1.72D-13 BMatP= 3.97D-12
 IDIUse=1 WtCom= 1.00D+00 WtEn= 0.00D+00
 Coeff-Com:  0.161D-02-0.503D-02 0.109D-01-0.251D-01 0.147D+00-0.552D+00
 Coeff-Com:  0.142D+01
 Coeff:      0.161D-02-0.503D-02 0.109D-01-0.251D-01 0.147D+00-0.552D+00
 Coeff:      0.142D+01
 Gap=     0.441 Goal=   None    Shift=    0.000
 RMSDP=1.08D-07 MaxDP=4.34D-07 DE=-2.22D-11 OVMax= 6.95D-07

 Cycle   8  Pass 1  IDiag  3:
 E=-0.164095257406942     Delta-E=       -0.000000000001 Rises=F Damp=F
 DIIS: error= 2.38D-08 at cycle   8 NSaved=   8.
 NSaved= 8 IEnMin= 8 EnMin=-0.164095257406942     IErMin= 8 ErrMin= 2.38D-08
 ErrMax= 2.38D-08  0.00D+00 EMaxC= 1.00D-01 BMatC= 1.11D-14 BMatP= 1.72D-13
 IDIUse=1 WtCom= 1.00D+00 WtEn= 0.00D+00
 Coeff-Com: -0.208D-03 0.625D-03-0.137D-02 0.351D-02-0.380D-01 0.189D+00
 Coeff-Com: -0.695D+00 0.154D+01
 Coeff:     -0.208D-03 0.625D-03-0.137D-02 0.351D-02-0.380D-01 0.189D+00
 Coeff:     -0.695D+00 0.154D+01
 Gap=     0.441 Goal=   None    Shift=    0.000
 RMSDP=3.12D-08 MaxDP=1.61D-07 DE=-1.05D-12 OVMax= 2.33D-07

 Cycle   9  Pass 1  IDiag  3:
 E=-0.164095257406984     Delta-E=       -0.000000000000 Rises=F Damp=F
 DIIS: error= 6.70D-09 at cycle   9 NSaved=   9.
 NSaved= 9 IEnMin= 9 EnMin=-0.164095257406984     IErMin= 9 ErrMin= 6.70D-09
 ErrMax= 6.70D-09  0.00D+00 EMaxC= 1.00D-01 BMatC= 6.93D-16 BMatP= 1.11D-14
 IDIUse=1 WtCom= 1.00D+00 WtEn= 0.00D+00
 Coeff-Com:  0.173D-04-0.381D-04 0.890D-04-0.415D-03 0.129D-01-0.739D-01
 Coeff-Com:  0.299D+00-0.850D+00 0.161D+01
 Coeff:      0.173D-04-0.381D-04 0.890D-04-0.415D-03 0.129D-01-0.739D-01
 Coeff:      0.299D+00-0.850D+00 0.161D+01
 Gap=     0.441 Goal=   None    Shift=    0.000
 RMSDP=8.90D-09 MaxDP=5.16D-08 DE=-4.26D-14 OVMax= 6.21D-08

 Cycle  10  Pass 2  IDiag  1:
 SCF Done:  E(RPM6) = -0.164095257407     A.U. after   10 cycles
            NFock=  9  Conv=0.89D-08     -V/T= 0.9977
 KE=-7.110751154396D+01 PE=-7.240386353484D+01 EE= 6.656424191092D+01
 Leave Link  502 at Wed Oct 21 14:28:15 2020, MaxMem=  2684354560 cpu:               7.4 elap:               1.3
 (Enter /udrive/faculty/rpeverati/g16/g16/l508.exe)
 QCSCF skips out because SCF is already converged.
 Leave Link  508 at Wed Oct 21 14:28:16 2020, MaxMem=  2684354560 cpu:               0.7 elap:               0.7
 (Enter /udrive/faculty/rpeverati/g16/g16/l701.exe)
 ... and contract with generalized density number  0.
 Compute integral first derivatives.
 Leave Link  701 at Wed Oct 21 14:28:17 2020, MaxMem=  2684354560 cpu:               4.2 elap:               1.0
 (Enter /udrive/faculty/rpeverati/g16/g16/l702.exe)
 L702 exits ... SP integral derivatives will be done elsewhere.
 Leave Link  702 at Wed Oct 21 14:28:18 2020, MaxMem=  2684354560 cpu:               2.2 elap:               0.8
 (Enter /udrive/faculty/rpeverati/g16/g16/l703.exe)
 Integral derivatives from FoFJK, PRISM(SPDF).
 Compute integral first derivatives, UseDBF=F ICtDFT=           0.
 Calling FoFJK, ICntrl=      2127 FMM=F ISym2X=0 I1Cent= 0 IOpClX= 0 NMat=1 NMatS=1 NMatT=0.
 FoFJK:  IHMeth=40 ICntrl=    2127 DoSepK=F KAlg= 0 I1Cent=           0 FoldK=F
 IRaf=         0 NMat=       1 IRICut=       1 DoRegI=T DoRafI=F ISym2E= 0 IDoP0=3 IntGTp=3.
 FoFCou: FMM=F IPFlag=           0 FMFlag=      100000 FMFlg1=         800
         NFxFlg=           0 DoJE=F BraDBF=F KetDBF=F FulRan=T
         wScrn=  0.000000 ICntrl=      2127 IOpCl=  0 I1Cent=           0 NGrid=           0
         NMat0=    1 NMatS0=      1 NMatT0=    0 NMatD0=    1 NMtDS0=    0 NMtDT0=    0
 Symmetry not used in FoFCou.
 Leave Link  703 at Wed Oct 21 14:28:19 2020, MaxMem=  2684354560 cpu:               3.6 elap:               0.9
 (Enter /udrive/faculty/rpeverati/g16/g16/l716.exe)
 Dipole        = 6.74583064D-02-6.36437827D-04-8.09509102D-04
 ***** Axes restored to original set *****
 -------------------------------------------------------------------
 Center     Atomic                   Forces (Hartrees/Bohr)
 Number     Number              X              Y              Z
 -------------------------------------------------------------------
      1        9          -0.012565988   -0.000017422   -0.000004296
      2        6           0.001983198   -0.000097058   -0.000035143
      3        1           0.000993228   -0.000762182    0.002960450
      4        1           0.000982085    0.002982296   -0.000642265
      5        1           0.001003863   -0.002100289   -0.002278036
      6        9           0.007603615   -0.000005345   -0.000000710
 -------------------------------------------------------------------
 Cartesian Forces:  Max     0.012565988 RMS     0.003733291
 Leave Link  716 at Wed Oct 21 14:28:21 2020, MaxMem=  2684354560 cpu:               2.0 elap:               0.9
 (Enter /udrive/faculty/rpeverati/g16/g16/l103.exe)

 GradGradGradGradGradGradGradGradGradGradGradGradGradGradGradGradGradGrad
 Berny optimization.
 Optmz: redundant internal coordinate code flag= 1
 Red2BG:  D1=  4.22D-01 OD1=  1.51D-01 B2RMS=  0.00D+00 IAprox=0
 FormGI is forming the generalized inverse of G from B-inverse, IUseBI=4.
 Internal  Forces:  Max     0.012565992 RMS     0.003506613
 Search for a saddle point.
 Step number   3 out of a maximum of   50
 All quantities printed in internal units (Hartrees-Bohrs-Radians)
 Swapping is turned off.
 Update second derivatives using D2CorX and points    1    2    3
 The second derivative matrix:
                          R1        R2        R3        R4        R5
           R1           0.07201
           R2           0.01235   0.37030
           R3           0.01236  -0.00251   0.37030
           R4           0.01267  -0.00255  -0.00254   0.37019
           R5          -0.00200   0.00792   0.00794   0.00803   0.11041
           A1           0.01894  -0.00016  -0.00015  -0.00024  -0.01686
           A2           0.01903  -0.00018  -0.00017  -0.00027  -0.01680
           A3           0.01882  -0.00012  -0.00011  -0.00020  -0.01697
           A4           0.00129  -0.00009  -0.00009  -0.00009  -0.00071
           A5          -0.00075   0.00014   0.00014   0.00015  -0.00015
           A6          -0.01890   0.00014   0.00014   0.00023   0.01688
[...]
           D2           0.00056   0.00056  -0.00116   0.01237  -0.00618
           D3          -0.00058   0.00114  -0.00058   0.00618  -0.01237
           D4          -0.00114   0.00058   0.00058  -0.00618  -0.00618
                          A6        A7        A8        A9        A10
           A6           0.04686
           A7          -0.00113   0.01236
           A8          -0.01978   0.00055   0.04685
           A9          -0.01978   0.00055  -0.01979   0.04685
           A10          0.01892  -0.00230  -0.00946  -0.00946   0.03784
           A11          0.00000  -0.00000   0.01638  -0.01638   0.00000
           D1           0.00841  -0.00003   0.00841   0.00841  -0.00000
           D2           0.00059  -0.00618   0.00059  -0.00116   0.00116
           D3          -0.00058   0.00618   0.00117  -0.00058  -0.00116
           D4          -0.00117   0.01237   0.00058   0.00058  -0.00232
                          A11       D1        D2        D3        D4
           A11          0.03784
           D1          -0.00000   0.02915
           D2           0.00201   0.00002   0.01237
           D3           0.00201   0.00001   0.00618   0.01237
           D4          -0.00000  -0.00001  -0.00618   0.00618   0.01237
 ITU=  0
 Eigenvectors of the second derivative matrix:
                           1         2         3         4         5
     Eigenvalues --    -0.04259   0.03540   0.03541   0.06598   0.06599
   1         R1        -0.58393   0.00028  -0.00032   0.00013  -0.00010
   2         R2        -0.00002  -0.04832  -0.00961  -0.06105  -0.01761
   3         R3        -0.00002   0.01583   0.04665   0.01528   0.06167
   4         R4        -0.00002   0.03248  -0.03704   0.04577  -0.04407
   5         R5         0.58429  -0.00027   0.00032  -0.00014   0.00011
   6         A1         0.13283  -0.05387  -0.01080   0.35835   0.10331
   7         A2         0.13284   0.01773   0.05199  -0.08959  -0.36202
   8         A3         0.13284   0.03631  -0.04141  -0.26858   0.25862
   9         A4         0.00026   0.37597  -0.42870   0.05816  -0.05599
  10         A5         0.00030   0.18328   0.53996   0.01941   0.07836
  11         A6        -0.13283  -0.05365  -0.01059   0.35858   0.10348
  12         A7         0.00030  -0.55925  -0.11125  -0.07758  -0.02237
  13         A8        -0.13284   0.01750   0.05180  -0.08979  -0.36224
  14         A9        -0.13284   0.03596  -0.04101  -0.26893   0.25890
  15         A10        0.00000  -0.10752  -0.02139   0.71693   0.20679
  16         A11        0.00000  -0.02139   0.10750   0.20679  -0.71692
  17         D1        -0.46017  -0.00067   0.00076  -0.00025   0.00021
  18         D2        -0.00003   0.37594  -0.42866   0.05845  -0.05626
  19         D3        -0.00001  -0.18326  -0.53990  -0.01951  -0.07875
  20         D4         0.00001  -0.55920  -0.11124  -0.07796  -0.02248
                           6         7         8         9        10
     Eigenvalues --     0.08390   0.10491   0.10491   0.11097   0.25301
   1         R1        -0.39696   0.00003  -0.00001   0.70227  -0.00002
   2         R2        -0.00015  -0.00000   0.00005  -0.07419   0.69599
   3         R3        -0.00014   0.00004  -0.00002  -0.07419   0.01501
   4         R4         0.00001  -0.00004  -0.00002  -0.07419  -0.71111
   5         R5         0.40007   0.00003   0.00000   0.70021   0.00000
   6         A1        -0.19462   0.00290  -0.57746   0.00039   0.02214
   7         A2        -0.19468  -0.50151   0.28619   0.00042   0.00047
   8         A3        -0.19481   0.49862   0.29121   0.00037  -0.02264
   9         A4         0.00026  -0.00043  -0.00025  -0.00000   0.03578
  10         A5        -0.00075   0.00044  -0.00025  -0.00000  -0.00076
  11         A6         0.19475  -0.00290   0.57726  -0.00039   0.02215
  12         A7        -0.00075  -0.00000   0.00050   0.00000  -0.03503
  13         A8         0.19475   0.50137  -0.28610  -0.00042   0.00049
  14         A9         0.19461  -0.49848  -0.29111  -0.00038  -0.02260
  15         A10        0.00013  -0.00000  -0.00019   0.00001   0.04429
  16         A11        0.00015  -0.00016  -0.00000   0.00000   0.02668
  17         D1         0.67447   0.00000   0.00001  -0.00137  -0.00000
  18         D2         0.00068   0.00010   0.00006  -0.00000   0.03581
  19         D3         0.00034   0.00010  -0.00006   0.00000   0.00076
  20         D4        -0.00034   0.00000  -0.00011   0.00000  -0.03505
                          11        12
     Eigenvalues --     0.25302   0.28452
   1         R1        -0.00001  -0.09091
   2         R2        -0.41929  -0.57256
   3         R3         0.81232  -0.57266
   4         R4        -0.39323  -0.57248
   5         R5        -0.00001  -0.09082
   6         A1        -0.01335  -0.00002
   7         A2         0.02585  -0.00003
   8         A3        -0.01252  -0.00002
   9         A4         0.01978  -0.00000
  10         A5        -0.04088   0.00000
  11         A6        -0.01333   0.00002
  12         A7         0.02110   0.00000
  13         A8         0.02584   0.00002
  14         A9        -0.01250   0.00003
  15         A10       -0.02667   0.00000
  16         A11        0.04428  -0.00001
  17         D1        -0.00000   0.00008
  18         D2         0.01980  -0.00000
  19         D3         0.04091  -0.00000
  20         D4         0.02111   0.00000
 Eigenvalue     1 is  -4.26D-02 should be greater than     0.000000 Eigenvector:
                          R5        R1        D1        A8        A2
   1                    0.58429  -0.58393  -0.46017  -0.13284   0.13284
                          A9        A3        A1        A6        A5
   1                   -0.13284   0.13284   0.13283  -0.13283   0.00030
 Angle between quadratic step and forces=  27.89 degrees.
 Linear search not attempted -- first point.
 Iteration  1 RMS(Cart)=  0.00053098 RMS(Int)=  0.00000001
 Iteration  2 RMS(Cart)=  0.00000001 RMS(Int)=  0.00000001
 ITry= 1 IFail=0 DXMaxC= 1.41D-03 DCOld= 1.00D+10 DXMaxT= 3.00D-01 DXLimC= 3.00D+00 Rises=F
 Variable       Old X    -DE/DX   Delta X   Delta X   Delta X     New X
                                 (Linear)    (Quad)   (Total)
    R1        3.25115   0.00012   0.00000   0.00193   0.00193   3.25308
    R2        2.04790   0.00006   0.00000   0.00019   0.00019   2.04808
    R3        2.04787   0.00006   0.00000   0.00022   0.00022   2.04808
    R4        2.04790   0.00005   0.00000   0.00018   0.00018   2.04808
    R5        3.25037  -0.00010   0.00000  -0.00181  -0.00181   3.24856
    A1        1.57019   0.00002   0.00000   0.00010   0.00010   1.57028
    A2        1.57017   0.00002   0.00000   0.00011   0.00011   1.57028
    A3        1.57018   0.00002   0.00000   0.00010   0.00010   1.57028
    A4        2.09438   0.00000   0.00000   0.00002   0.00002   2.09440
    A5        2.09432   0.00000   0.00000   0.00008   0.00008   2.09439
    A6        1.57142  -0.00002   0.00000  -0.00011  -0.00011   1.57131
    A7        2.09449  -0.00000   0.00000  -0.00009  -0.00009   2.09439
    A8        1.57141  -0.00002   0.00000  -0.00010  -0.00010   1.57131
    A9        1.57141  -0.00002   0.00000  -0.00010  -0.00010   1.57131
   A10        3.14161  -0.00000   0.00000  -0.00001  -0.00001   3.14159
   A11        3.14159   0.00000   0.00000   0.00000   0.00000   3.14159
    D1       -3.13946  -0.00007   0.00000  -0.00036  -0.00036  -3.13981
    D2        2.09438   0.00000   0.00000   0.00001   0.00001   2.09440
    D3       -2.09432  -0.00000   0.00000  -0.00008  -0.00008  -2.09439
    D4        2.09449  -0.00000   0.00000  -0.00009  -0.00009   2.09439
         Item               Value     Threshold  Converged?
 Maximum Force            0.000122     0.000450     YES
 RMS     Force            0.000045     0.000300     YES
 Maximum Displacement     0.001410     0.001800     YES
 RMS     Displacement     0.000531     0.001200     YES
 Predicted change in Energy=-3.997118D-07
 Optimization completed.
    -- Stationary point found.
                           ----------------------------
                           !   Optimized Parameters   !
                           ! (Angstroms and Degrees)  !
 --------------------------                            --------------------------
 ! Name  Definition              Value          Derivative Info.                !
 --------------------------------------------------------------------------------
 ! R1    R(1,2)                  1.7204         -DE/DX =    0.0001              !
 ! R2    R(2,3)                  1.0837         -DE/DX =    0.0001              !
 ! R3    R(2,4)                  1.0837         -DE/DX =    0.0001              !
 ! R4    R(2,5)                  1.0837         -DE/DX =    0.0001              !
 ! R5    R(2,6)                  1.72           -DE/DX =   -0.0001              !
 ! A1    A(1,2,3)               89.965          -DE/DX =    0.0                 !
 ! A2    A(1,2,4)               89.9643         -DE/DX =    0.0                 !
 ! A3    A(1,2,5)               89.9646         -DE/DX =    0.0                 !
 ! A4    A(3,2,4)              119.9992         -DE/DX =    0.0                 !
 ! A5    A(3,2,5)              119.9955         -DE/DX =    0.0                 !
 ! A6    A(3,2,6)               90.0357         -DE/DX =    0.0                 !
 ! A7    A(4,2,5)              120.0052         -DE/DX =    0.0                 !
 ! A8    A(4,2,6)               90.0352         -DE/DX =    0.0                 !
 ! A9    A(5,2,6)               90.0352         -DE/DX =    0.0                 !
 ! A10   L(1,2,6,3,-1)         180.0007         -DE/DX =    0.0                 !
 ! A11   L(1,2,6,3,-2)         179.9998         -DE/DX =    0.0                 !
 ! D1    D(3,2,5,4)           -179.8776         -DE/DX =   -0.0001              !
 ! D2    D(3,2,6,4)            119.9992         -DE/DX =    0.0                 !
 ! D3    D(3,2,6,5)           -119.9956         -DE/DX =    0.0                 !
 ! D4    D(4,2,6,5)            120.0052         -DE/DX =    0.0                 !
 --------------------------------------------------------------------------------
 GradGradGradGradGradGradGradGradGradGradGradGradGradGradGradGradGradGrad

 Leave Link  103 at Wed Oct 21 14:29:57 2020, MaxMem=  2684354560 cpu:               5.8 elap:               1.2
 (Enter /udrive/faculty/rpeverati/g16/g16/l9999.exe)

 ----------------------------------------------------------------------

 Electric dipole moment (input orientation):
 (Debye = 10**-18 statcoulomb cm , SI units = C m)
                  (au)            (Debye)         (10**-30 SI)
   Tot        0.205697D-02      0.522830D-02      0.174397D-01
   x         -0.205655D-02     -0.522723D-02     -0.174362D-01
   y         -0.278925D-04     -0.708957D-04     -0.236482D-03
   z          0.310080D-04      0.788144D-04      0.262897D-03

 Dipole polarizability, Alpha (input orientation).
 (esu units = cm**3 , SI units = C**2 m**2 J**-1)
 Alpha(0;0):
               (au)            (10**-24 esu)      (10**-40 SI)
   iso        0.183028D+02      0.271219D+01      0.301772D+01
   aniso      0.349128D+02      0.517355D+01      0.575635D+01
   xx         0.415780D+02      0.616122D+01      0.685528D+01
   yx        -0.167041D-02     -0.247529D-03     -0.275413D-03
   yy         0.666541D+01      0.987712D+00      0.109898D+01
   zx        -0.301037D-03     -0.446092D-04     -0.496344D-04
   zy         0.161850D-03      0.239836D-04      0.266854D-04
   zz         0.666491D+01      0.987638D+00      0.109890D+01

 First dipole hyperpolarizability, Beta (input orientation).
 ||, _|_  parallel and perpendicular components, (z) with respect to z axis,
 vector components x,y,z.  Values do not include the 1/n! factor of 1/2.
 (esu units = statvolt**-1 cm**4 , SI units = C**3 m**3 J**-2)
 Beta(0;0,0):
               (au)            (10**-30 esu)      (10**-50 SI)
   || (z)     0.275706D-02      0.238189D-04      0.884014D-05
   _|_(z)     0.919020D-03      0.793962D-05      0.294671D-05
   x         -0.295007D+01     -0.254863D-01     -0.945899D-02
   y         -0.135924D-01     -0.117428D-03     -0.435823D-04
   z          0.137853D-01      0.119094D-03      0.442007D-04
   ||         0.590027D+00      0.509737D-02      0.189184D-02
   xxx       -0.101199D+01     -0.874282D-02     -0.324481D-02
   xxy       -0.211546D-02     -0.182759D-04     -0.678293D-05
   yxy        0.146453D-01      0.126524D-03      0.469581D-04
   yyy        0.801352D+01      0.692306D-01      0.256942D-01
   xxz        0.274193D-02      0.236881D-04      0.879161D-05
   yxz       -0.397537D-03     -0.343441D-05     -0.127465D-05
   yyz       -0.681695D+01     -0.588932D-01     -0.218576D-01
   zxz        0.139903D-01      0.120865D-03      0.448580D-04
   zyz       -0.801593D+01     -0.692514D-01     -0.257020D-01
   zzz        0.681881D+01      0.589092D-01      0.218636D-01

 ----------------------------------------------------------------------

 Dipole orientation:
     9          0.04947549         -0.04410152         -3.24988754
     6         -0.00007902         -0.00053506          0.00059455
     1          1.97047866         -0.55684141          0.03684267
     1         -0.50319649          1.98424975         -0.03495486
     1         -1.46731969         -1.42920521         -0.00388919
     9         -0.04965780          0.04304467          3.25029356

 Electric dipole moment (dipole orientation):
 (Debye = 10**-18 statcoulomb cm , SI units = C m)
                  (au)            (Debye)         (10**-30 SI)
   Tot        0.205697D-02      0.522830D-02      0.174397D-01
   x          0.000000D+00      0.000000D+00      0.000000D+00
   y          0.000000D+00      0.000000D+00      0.000000D+00
   z          0.205697D-02      0.522830D-02      0.174397D-01

 Dipole polarizability, Alpha (dipole orientation).
 (esu units = cm**3 , SI units = C**2 m**2 J**-1)
 Alpha(0;0):
               (au)            (10**-24 esu)      (10**-40 SI)
   iso        0.183028D+02      0.271219D+01      0.301772D+01
   aniso      0.349128D+02      0.517355D+01      0.575635D+01
   xx         0.667303D+01      0.988841D+00      0.110023D+01
   yx        -0.698035D-02     -0.103438D-02     -0.115090D-02
   yy         0.667169D+01      0.988642D+00      0.110001D+01
   zx        -0.532237D+00     -0.788694D-01     -0.877541D-01
   zy         0.467867D+00      0.693307D-01      0.771408D-01
   zz         0.415636D+02      0.615909D+01      0.685291D+01

 First dipole hyperpolarizability, Beta (dipole orientation).
 ||, _|_  parallel and perpendicular components, (z) with respect to z axis,
 vector components x,y,z.  Values do not include the 1/n! factor of 1/2.
 (esu units = statvolt**-1 cm**4 , SI units = C**3 m**3 J**-2)
 Beta(0;0,0):
               (au)            (10**-30 esu)      (10**-50 SI)
   || (z)     0.589971D+00      0.509689D-02      0.189166D-02
   _|_(z)     0.196657D+00      0.169896D-02      0.630554D-03
   x         -0.310414D-01     -0.268173D-03     -0.995299D-04
   y          0.259976D-01      0.224599D-03      0.833578D-04
   z          0.294986D+01      0.254845D-01      0.945830D-02
   ||         0.590027D+00      0.509737D-02      0.189184D-02
   xxx        0.713262D+01      0.616203D-01      0.228698D-01
   xxy       -0.773262D+01     -0.668038D-01     -0.247936D-01
   yxy       -0.713340D+01     -0.616271D-01     -0.228723D-01
   yyy        0.772696D+01      0.667550D-01      0.247754D-01
   xxz        0.198283D+00      0.171301D-02      0.635767D-03
   yxz       -0.224329D-01     -0.193803D-03     -0.719280D-04
   yyz       -0.226579D+00     -0.195746D-02     -0.726493D-03
   zxz       -0.956389D-02     -0.826246D-04     -0.306653D-04
   zyz        0.143252D-01      0.123758D-03      0.459317D-04
   zzz        0.101158D+01      0.873927D-02      0.324349D-02

 ----------------------------------------------------------------------

 Test job not archived.
 1\1\GINC-NODE40\Freq\RPM6\ZDO\C1H3F2(1-)\RPEVERATI\21-Oct-2020\0\\#P F
 req PM6 5D 7F Integral=UltraFineGrid SCF=(NoSymm,XQC,MaxCyc=120) IOp(1
 /33=1) Geom=Check Guess=Read\\TS search on BH76.\\-1,1\F,1.720123981,-
 0.0003629857,-0.000065271\C,-0.0003114115,-0.0002868006,-0.0000409029\
 H,0.0003508691,-0.3088053531,1.0388162497\H,0.0004073148,1.0536367657,
 -0.252265977\H,0.00031308,-0.7457674749,-0.7865989812\F,-1.7203327959,
 -0.0001977967,-0.0000355288\\Version=ES64L-G16RevA.03\State=1-A\HF=-0.
 1652445\RMSD=7.177e-10\RMSF=5.067e-05\ZeroPoint=0.0348307\Thermal=0.03
 8842\Dipole=-0.0020566,-0.0000279,0.000031\DipoleDeriv=-2.3395536,0.00
 00733,0.000018,0.0000727,-0.7057024,0.0000009,0.0000221,0.0000009,-0.7
 057067,4.1757575,-0.000197,-0.0000354,-0.000196,0.0996629,-0.0000025,-
 0.0000353,-0.0000025,0.0996927,-0.1655061,-0.0000565,0.0002336,-0.0000
 294,0.0909067,-0.0083605,0.000143,-0.0083585,0.116576,-0.1655306,0.000
 249,-0.0000545,0.0001572,0.1174275,-0.0069415,-0.0000324,-0.0069423,0.
 0900894,-0.1655179,-0.0001529,-0.0001721,-0.0000878,0.1029287,0.015302
 5,-0.0001035,0.0153013,0.1045762,-2.339655,0.0000841,0.0000103,0.00008
 33,-0.7052237,0.0000011,0.0000061,0.0000011,-0.7052277\Polar=41.577975
 8,-0.0016704,6.6654122,-0.000301,0.0001618,6.6649139\HyperPolar=-1.011
 9922,-0.0021155,0.0146453,8.0135196,0.0027419,-0.0003975,-6.8169531,0.
 0139903,-8.0159349,6.8188062\PG=C01 [X(C1H3F2)]\NImag=1\\0.05577708,-0
 .00000187,0.01837154,-0.00000075,0.00000007,0.01837034,0.08864378,-0.0
 0000453,-0.00000170,-0.16233883,-0.00000510,-0.01883027,0.00000003,0.0
 0002903,0.43400948,-0.00000082,0.00000003,-0.01883058,0.00000519,-0.00
 000119,0.43397153,-0.02876364,-0.00448419,0.01510502,-0.00501366,0.000
 02427,-0.00008754,0.05417554,-0.00257449,0.00160207,0.00170735,0.00003
 393,-0.05434504,0.05063652,-0.00002599,0.05366640,0.00867397,0.0017076
 5,-0.00364265,-0.00012024,0.05063709,-0.20981388,0.00008436,-0.0616546
 4,0.24296612,-0.02876557,0.01532511,-0.00366720,-0.00500626,-0.0000995
 1,0.00002313,0.00417379,0.00000292,-0.00000010,0.05417515,0.00880150,-
 0.00381205,0.00141692,-0.00013279,-0.21480880,0.04200125,-0.00000101,-
 0.00784869,0.00548826,0.00009612,0.24904297,-0.00210559,0.00141671,0.0
 0177016,0.00003108,0.04200209,-0.04935807,0.00000429,0.02235094,-0.006
 35104,-0.00002338,-0.05114256,0.04759329,-0.02876577,-0.01083728,-0.01
 143619,-0.00501164,0.00005653,0.00006108,0.00417398,-0.00000270,-0.000
 00216,0.00417310,-0.00000303,-0.00000350,0.05417688,-0.00622316,-0.000
 85191,-0.00312436,0.00007992,-0.12710773,-0.09263666,-0.00000134,0.005
 32873,0.00211919,0.00000182,-0.01877770,-0.01603900,-0.00005618,0.1422
 5851,-0.00656705,-0.00312445,-0.00118795,0.00008581,-0.09263806,-0.137
 05110,0.00000209,-0.01474302,-0.01952963,-0.00000121,0.00082439,0.0045
 8107,-0.00005850,0.11279556,0.15437103,-0.05812614,0.00000276,0.000000
 82,0.08872720,-0.00000522,-0.00000103,-0.02874604,0.00256633,-0.008635
 83,-0.02875024,-0.00876079,0.00209710,-0.02874659,0.00619894,0.0065388
 6,0.05564156,0.00000312,0.00352048,0.,-0.00000555,-0.01891732,0.000000
 05,0.00448825,0.00159654,0.00170248,-0.01532645,-0.00379572,0.00141184
 ,0.01084264,-0.00084990,-0.00311445,-0.00000201,0.01844575,0.00000024,
 0.,0.00352051,-0.00000014,0.00000005,-0.01891759,-0.01510821,0.0017028
 5,-0.00362889,0.00366876,0.00141177,0.00176461,0.01143927,-0.00311477,
 -0.00118343,0.00000008,0.00000010,0.01844462\\-0.00012215,0.00000027,-
 0.00000011,0.00005040,0.00001152,-0.00000532,0.00005645,0.00001403,-0.
 00005389,0.00005665,-0.00005759,0.00001772,0.00005636,0.00003167,0.000
 04172,-0.00009770,0.00000010,-0.00000012\\\@


 You can't act like a skunk without someone's getting wind of it.
 -- Lorene Workman
 Job cpu time:       0 days  0 hours  1 minutes 36.8 seconds.
 Elapsed time:       0 days  0 hours  0 minutes 21.8 seconds.
 File lengths (MBytes):  RWF=      5 Int=      0 D2E=      0 Chk=      2 Scr=      1
 Normal termination of Gaussian 16 at Wed Oct 21 14:29:59 2020.
