 Entering Gaussian System, Link 0=g16
 Input=MN_50_hco_BH76_PM6_SE.in
 Output=MN_50_hco_BH76_PM6_SE.log
 Initial command:
 /udrive/faculty/rpeverati/g16/g16/l1.exe "/udrive/scratch-directories/gaussian09/rpeverati/Gau-24690.inp" -scrdir="/udrive/scratch-directories/gaussian09/rpeverati/"
 Entering Link 1 = /udrive/faculty/rpeverati/g16/g16/l1.exe PID=     24691.
  
 Copyright (c) 1988,1990,1992,1993,1995,1998,2003,2009,2016,
            Gaussian, Inc.  All Rights Reserved.
  
 This is part of the Gaussian(R) 16 program.  It is based on
 the Gaussian(R) 09 system (copyright 2009, Gaussian, Inc.),
 the Gaussian(R) 03 system (copyright 2003, Gaussian, Inc.),
 the Gaussian(R) 98 system (copyright 1998, Gaussian, Inc.),
 the Gaussian(R) 94 system (copyright 1995, Gaussian, Inc.),
 the Gaussian 92(TM) system (copyright 1992, Gaussian, Inc.),
 the Gaussian 90(TM) system (copyright 1990, Gaussian, Inc.),
 the Gaussian 88(TM) system (copyright 1988, Gaussian, Inc.),
 the Gaussian 86(TM) system (copyright 1986, Carnegie Mellon
 University), and the Gaussian 82(TM) system (copyright 1983,
 Carnegie Mellon University). Gaussian is a federally registered
 trademark of Gaussian, Inc.
  
 This software contains proprietary and confidential information,
 including trade secrets, belonging to Gaussian, Inc.
  
 This software is provided under written license and may be
 used, copied, transmitted, or stored only in accord with that
 written license.
  
 The following legend is applicable only to US Government
 contracts under FAR:
  
                    RESTRICTED RIGHTS LEGEND
  
 Use, reproduction and disclosure by the US Government is
 subject to restrictions as set forth in subparagraphs (a)
 and (c) of the Commercial Computer Software - Restricted
 Rights clause in FAR 52.227-19.
  
 Gaussian, Inc.
 340 Quinnipiac St., Bldg. 40, Wallingford CT 06492
  
  
 ---------------------------------------------------------------
 Warning -- This program may not be used in any manner that
 competes with the business of Gaussian, Inc. or will provide
 assistance to any competitor of Gaussian, Inc.  The licensee
 of this program is prohibited from giving any competitor of
 Gaussian, Inc. access to this program.  By using this program,
 the user acknowledges that Gaussian, Inc. is engaged in the
 business of creating and licensing software in the field of
 computational chemistry and represents and warrants to the
 licensee that it is not a competitor of Gaussian, Inc. and that
 it will not use this program in any manner prohibited above.
 ---------------------------------------------------------------
  

 Cite this work as:
 Gaussian 16, Revision A.03,
 M. J. Frisch, G. W. Trucks, H. B. Schlegel, G. E. Scuseria, 
 M. A. Robb, J. R. Cheeseman, G. Scalmani, V. Barone, 
 G. A. Petersson, H. Nakatsuji, X. Li, M. Caricato, A. V. Marenich, 
 J. Bloino, B. G. Janesko, R. Gomperts, B. Mennucci, H. P. Hratchian, 
 J. V. Ortiz, A. F. Izmaylov, J. L. Sonnenberg, D. Williams-Young, 
 F. Ding, F. Lipparini, F. Egidi, J. Goings, B. Peng, A. Petrone, 
 T. Henderson, D. Ranasinghe, V. G. Zakrzewski, J. Gao, N. Rega, 
 G. Zheng, W. Liang, M. Hada, M. Ehara, K. Toyota, R. Fukuda, 
 J. Hasegawa, M. Ishida, T. Nakajima, Y. Honda, O. Kitao, H. Nakai, 
 T. Vreven, K. Throssell, J. A. Montgomery, Jr., J. E. Peralta, 
 F. Ogliaro, M. J. Bearpark, J. J. Heyd, E. N. Brothers, K. N. Kudin, 
 V. N. Staroverov, T. A. Keith, R. Kobayashi, J. Normand, 
 K. Raghavachari, A. P. Rendell, J. C. Burant, S. S. Iyengar, 
 J. Tomasi, M. Cossi, J. M. Millam, M. Klene, C. Adamo, R. Cammi, 
 J. W. Ochterski, R. L. Martin, K. Morokuma, O. Farkas, 
 J. B. Foresman, and D. J. Fox, Gaussian, Inc., Wallingford CT, 2016.
 
 ******************************************
 Gaussian 16:  ES64L-G16RevA.03 25-Dec-2016
                21-Oct-2020 
 ******************************************
 %NoSave
 %nproc=12
 Will use up to   12 processors via shared memory.
 %mem=20GB
 %chk=MN_50_hco_BH76_PM6_SE
 ----------------------------------------------------------------------
 #P Opt(MaxCyc=150) PM6 5D 7F Integral=UltraFineGrid SCF=(NoSymm,XQC,Ma
 xCyc=120) IOp(1/33=1)
 ----------------------------------------------------------------------
 1/6=150,18=20,19=15,26=1,33=1,38=1/1,3;
 2/9=110,12=2,17=6,18=5,40=1/2;
 3/5=2,8=11,25=1,41=3900000,71=1,75=-5/1,2,3;
 4/9=2,35=1/1;
 5/5=2,7=120,8=3,13=1,35=1,38=5/2,8;
 6/7=2,8=2,9=2,10=2,28=1/1;
 7//1,2,3,16;
 1/6=150,18=20,19=15,26=1,33=1/3(2);
 2/9=110/2;
 99//99;
 2/9=110/2;
 3/5=2,8=11,25=1,41=3900000,71=1,75=-5,135=20/1,2,3;
 4/5=5,9=2,16=3,35=1/1;
 5/5=2,7=120,8=3,13=1,35=1,38=5/2,8;
 7//1,2,3,16;
 1/6=150,18=20,19=15,26=1,33=1/3(-5);
 2/9=110/2;
 6/7=2,8=2,9=2,10=2,19=2,28=1/1;
 99/9=1/99;
 Leave Link    1 at Wed Oct 21 14:28:06 2020, MaxMem=  2684354560 cpu:               9.0 elap:               0.9
 (Enter /udrive/faculty/rpeverati/g16/g16/l101.exe)
 ONIOM data not found on unit 2.
 ------------------
 TS search on BH76.
 ------------------
 TstMul:  ICh=     0
 TstMul:  Mul=     2
 TstMul:  ICh=     0
 TstMul:  Mul=     2
 Symbolic Z-matrix:
 Charge =  0 Multiplicity = 2
 H                    -0.85205   1.22789   0. 
 C                     0.06086   0.58466   0. 
 O                     0.06086  -0.59197   0. 
 
 RdStrC is calling ZToCFu for IStruc=1 NZ=     3.
 PrtBox:  NBox=     1 Levels=  1 BoxLen=    8.00 SMaxX=        3.44
          Shift=            1.610150            1.118670            0.000000
 Box      1 Number                   0 centers from      1 to      3:
 After GenITR:
 ITRead=  0  0  0
 MicOpt= -1 -1 -1
 ITRead=  0  0  0
 MicOpt= -1 -1 -1
 NAtoms=      3 NQM=        3 NQMF=       0 NMMI=      0 NMMIF=      0
                NMic=       0 NMicF=      0.
                    Isotopes and Nuclear Properties:
 (Nuclear quadrupole moments (NQMom) in fm**2, nuclear magnetic moments (NMagM)
  in nuclear magnetons)

  Atom         1           2           3
 IAtWgt=           1          12          16
 AtmWgt=   1.0078250  12.0000000  15.9949146
 NucSpn=           1           0           0
 AtZEff=   0.0000000   0.0000000   0.0000000
 NQMom=    0.0000000   0.0000000   0.0000000
 NMagM=    2.7928460   0.0000000   0.0000000
 AtZNuc=   1.0000000   6.0000000   8.0000000
 No MM parameters found.
 Leave Link  101 at Wed Oct 21 14:28:08 2020, MaxMem=  2684354560 cpu:              14.2 elap:               1.4
 (Enter /udrive/faculty/rpeverati/g16/g16/l103.exe)

 GradGradGradGradGradGradGradGradGradGradGradGradGradGradGradGradGradGrad
 Berny optimization.
 Optmz: redundant internal coordinate code flag= 1
 Initialization pass.
                           ----------------------------
                           !    Initial Parameters    !
                           ! (Angstroms and Degrees)  !
 --------------------------                            --------------------------
 ! Name  Definition              Value          Derivative Info.                !
 --------------------------------------------------------------------------------
 ! R1    R(1,2)                  1.1168         estimate D2E/DX2                !
 ! R2    R(2,3)                  1.1766         estimate D2E/DX2                !
 ! A1    A(1,2,3)              125.1683         estimate D2E/DX2                !
 --------------------------------------------------------------------------------
 Maximum allowed force set to 1.00D+20.
 Trust Radius=3.00D-01 FncErr=1.00D-07 GrdErr=1.00D-07 EigMax=2.50D+02 EigMin=1.00D-04
 Number of steps in this run=    100 maximum allowed number of steps=    100.
 GradGradGradGradGradGradGradGradGradGradGradGradGradGradGradGradGradGrad

 Leave Link  103 at Wed Oct 21 14:28:10 2020, MaxMem=  2684354560 cpu:               1.3 elap:               0.6
 (Enter /udrive/faculty/rpeverati/g16/g16/l202.exe)
                          Input orientation:                          
 ---------------------------------------------------------------------
 Center     Atomic      Atomic             Coordinates (Angstroms)
 Number     Number       Type             X           Y           Z
 ---------------------------------------------------------------------
      1          1           0       -0.852055    1.227892    0.000000
      2          6           0        0.060861    0.584656    0.000000
      3          8           0        0.060861   -0.591975    0.000000
 ---------------------------------------------------------------------
                    Distance matrix (angstroms):
                    1          2          3
     1  H    0.000000
     2  C    1.116767   0.000000
     3  O    2.036009   1.176631   0.000000
 Stoichiometry    CHO(2)
 Framework group  CS[SG(CHO)]
 Deg. of freedom     3
 Full point group                 CS      NOp   2
 Largest Abelian subgroup         CS      NOp   2
 Largest concise Abelian subgroup C1      NOp   1
                         Standard orientation:                         
 ---------------------------------------------------------------------
 Center     Atomic      Atomic             Coordinates (Angstroms)
 Number     Number       Type             X           Y           Z
 ---------------------------------------------------------------------
      1          1           0       -0.852055    1.227890    0.000000
      2          6           0        0.060861    0.584654    0.000000
      3          8           0        0.060861   -0.591977    0.000000
 ---------------------------------------------------------------------
 Rotational constants (GHZ):         742.4426916          44.7013050          42.1627521
 Leave Link  202 at Wed Oct 21 14:28:11 2020, MaxMem=  2684354560 cpu:               1.9 elap:               0.7
 (Enter /udrive/faculty/rpeverati/g16/g16/l301.exe)
 Standard basis: VSTO-6G (5D, 7F)
 Ernie: Thresh=  0.10000D-02 Tol=  0.10000D-05 Strict=F.
  NNHCO=     0 NNPyr=     0 NCTC=     0               EPep=         0.000000000
    EC=        10.381930676  ECS=         0.672876916   EG=         0.036897986
   EHC=         0.000523379  EAt=       -15.198629379  AtH=         0.450273680
 EPDDG=         0.000000000  ECC=        11.092228957 EAtT=        15.648903059
 There are     7 symmetry adapted cartesian basis functions of A'  symmetry.
 There are     2 symmetry adapted cartesian basis functions of A"  symmetry.
 There are     7 symmetry adapted basis functions of A'  symmetry.
 There are     2 symmetry adapted basis functions of A"  symmetry.
     9 basis functions,    54 primitive gaussians,     9 cartesian basis functions
     6 alpha electrons        5 beta electrons
       nuclear repulsion energy        26.7411320158 Hartrees.
 IExCor=    0 DFT=F Ex=HF Corr=None ExCW=0 ScaHFX=  1.000000
 ScaDFX=  1.000000  1.000000  1.000000  1.000000 ScalE2=  1.000000  1.000000
 IRadAn=      5 IRanWt=     -1 IRanGd=            0 ICorTp=0 IEmpDi=  4
 Integral buffers will be    131072 words long.
 Regular integral format.
 Two-electron integral symmetry is turned off.
 Leave Link  301 at Wed Oct 21 14:28:12 2020, MaxMem=  2684354560 cpu:               2.6 elap:               0.8
 (Enter /udrive/faculty/rpeverati/g16/g16/l302.exe)
 Do NDO integrals.
 NPDir=0 NMtPBC=     1 NCelOv=     1 NCel=       1 NClECP=     1 NCelD=      1
         NCelK=      1 NCelE2=     1 NClLst=     1 CellRange=     0.0.
 One-electron integrals computed using PRISM.
 NBasis=     9 RedAO= T EigKep=  1.00D+00  NBF=     7     2
 NBsUse=     9 1.00D-06 EigRej= -1.00D+00 NBFU=     7     2
 Leave Link  302 at Wed Oct 21 14:28:13 2020, MaxMem=  2684354560 cpu:               3.4 elap:               0.9
 (Enter /udrive/faculty/rpeverati/g16/g16/l303.exe)
 DipDrv:  MaxL=1.
 Leave Link  303 at Wed Oct 21 14:28:14 2020, MaxMem=  2684354560 cpu:               2.6 elap:               0.8
 (Enter /udrive/faculty/rpeverati/g16/g16/l401.exe)
 SCF N**3 symmetry information disabled.
 Simple Huckel Guess.
 JPrj=0 DoOrth=F DoCkMO=F.
 Initial guess orbital symmetries:
 Alpha Orbitals:
       Occupied  (A') (A') (A') (A") (A') (A')
       Virtual   (A") (A') (A')
 Beta  Orbitals:
       Occupied  (A') (A') (A') (A") (A')
       Virtual   (A') (A") (A') (A')
 The electronic state of the initial guess is 2-A'.
 Initial guess <Sx>= 0.0000 <Sy>= 0.0000 <Sz>= 0.5000 <S**2>= 0.7500 S= 0.5000
 Leave Link  401 at Wed Oct 21 14:28:15 2020, MaxMem=  2684354560 cpu:               1.9 elap:               0.7
 (Enter /udrive/faculty/rpeverati/g16/g16/l502.exe)
 Keep J ints in memory in canonical form, NReq=859290.
 FoFCou: FMM=F IPFlag=           0 FMFlag=           0 FMFlg1=           0
         NFxFlg=           0 DoJE=F BraDBF=F KetDBF=F FulRan=T
         wScrn=  0.000000 ICntrl=       600 IOpCl=  2 I1Cent=           0 NGrid=           0
         NMat0=    1 NMatS0=     21 NMatT0=    0 NMatD0=    1 NMtDS0=    0 NMtDT0=    0
 Symmetry not used in FoFCou.
 Two-electron integral symmetry not used.
 UHF open shell SCF:
 Using DIIS extrapolation, IDIIS=  1040.
 Overlap will be assumed to be unity.
 NGot=  2684354560 LenX=  2684293973 LenY=  2684293091
 Requested convergence on RMS density matrix=1.00D-08 within 120 cycles.
 Requested convergence on MAX density matrix=1.00D-06.
 Requested convergence on             energy=1.00D-06.
 No special actions if energy rises.

 Cycle   1  Pass 1  IDiag  1:
 E= 0.920847347282674E-01
 DIIS: error= 4.54D-02 at cycle   1 NSaved=   1.
 NSaved= 1 IEnMin= 1 EnMin= 0.920847347282674E-01 IErMin= 1 ErrMin= 4.54D-02
 ErrMax= 4.54D-02  0.00D+00 EMaxC= 1.00D-01 BMatC= 9.45D-02 BMatP= 9.45D-02
 IDIUse=3 WtCom= 5.46D-01 WtEn= 4.54D-01
 Coeff-Com:  0.100D+01
 Coeff-En:   0.100D+01
 Coeff:      0.100D+01
 GapD=    2.000 DampG=2.000 DampE=0.500 DampFc=1.0000 IDamp=-1.
 RMSDP=2.74D-02 MaxDP=9.86D-02              OVMax= 0.00D+00

 Cycle   2  Pass 1  IDiag  1:
 E= 0.172872690826082E-01 Delta-E=       -0.074797465646 Rises=F Damp=F
 DIIS: error= 1.71D-02 at cycle   2 NSaved=   2.
 NSaved= 2 IEnMin= 2 EnMin= 0.172872690826082E-01 IErMin= 2 ErrMin= 1.71D-02
 ErrMax= 1.71D-02  0.00D+00 EMaxC= 1.00D-01 BMatC= 1.61D-02 BMatP= 9.45D-02
 IDIUse=3 WtCom= 8.29D-01 WtEn= 1.71D-01
 Coeff-Com: -0.552D+00 0.155D+01
 Coeff-En:   0.000D+00 0.100D+01
 Coeff:     -0.458D+00 0.146D+01
 RMSDP=1.73D-02 MaxDP=6.79D-02 DE=-7.48D-02 OVMax= 0.00D+00

 Cycle   3  Pass 1  IDiag  3:
 E= 0.105592301278534E-02 Delta-E=       -0.016231346070 Rises=F Damp=F
 DIIS: error= 3.13D-03 at cycle   3 NSaved=   3.
 NSaved= 3 IEnMin= 3 EnMin= 0.105592301278534E-02 IErMin= 3 ErrMin= 3.13D-03
 ErrMax= 3.13D-03  0.00D+00 EMaxC= 1.00D-01 BMatC= 6.37D-04 BMatP= 1.61D-02
 IDIUse=3 WtCom= 9.69D-01 WtEn= 3.13D-02
 Coeff-Com:  0.532D-01-0.295D+00 0.124D+01
 Coeff-En:   0.000D+00 0.000D+00 0.100D+01
 Coeff:      0.516D-01-0.286D+00 0.123D+01
 Gap=     0.357 Goal=   None    Shift=    0.000
 Gap=     0.499 Goal=   None    Shift=    0.000
 RMSDP=3.97D-03 MaxDP=1.50D-02 DE=-1.62D-02 OVMax= 1.88D-02

 Cycle   4  Pass 1  IDiag  3:
 E= 0.277859253355217E-03 Delta-E=       -0.000778063759 Rises=F Damp=F
 DIIS: error= 1.81D-03 at cycle   4 NSaved=   4.
 NSaved= 4 IEnMin= 4 EnMin= 0.277859253355217E-03 IErMin= 4 ErrMin= 1.81D-03
 ErrMax= 1.81D-03  0.00D+00 EMaxC= 1.00D-01 BMatC= 6.63D-05 BMatP= 6.37D-04
 IDIUse=3 WtCom= 9.82D-01 WtEn= 1.81D-02
 Coeff-Com:  0.360D-02 0.578D-01-0.562D+00 0.150D+01
 Coeff-En:   0.000D+00 0.000D+00 0.000D+00 0.100D+01
 Coeff:      0.353D-02 0.567D-01-0.551D+00 0.149D+01
 Gap=     0.358 Goal=   None    Shift=    0.000
 Gap=     0.498 Goal=   None    Shift=    0.000
 RMSDP=1.68D-03 MaxDP=9.13D-03 DE=-7.78D-04 OVMax= 1.07D-02

 Cycle   5  Pass 1  IDiag  3:
 E= 0.161557920268507E-03 Delta-E=       -0.000116301333 Rises=F Damp=F
 DIIS: error= 7.86D-04 at cycle   5 NSaved=   5.
 NSaved= 5 IEnMin= 5 EnMin= 0.161557920268507E-03 IErMin= 5 ErrMin= 7.86D-04
 ErrMax= 7.86D-04  0.00D+00 EMaxC= 1.00D-01 BMatC= 1.40D-05 BMatP= 6.63D-05
 IDIUse=3 WtCom= 9.92D-01 WtEn= 7.86D-03
 Coeff-Com: -0.725D-02-0.797D-01 0.762D+00-0.227D+01 0.260D+01
 Coeff-En:   0.000D+00 0.000D+00 0.000D+00 0.000D+00 0.100D+01
 Coeff:     -0.720D-02-0.790D-01 0.756D+00-0.226D+01 0.259D+01
 Gap=     0.359 Goal=   None    Shift=    0.000
 Gap=     0.498 Goal=   None    Shift=    0.000
 RMSDP=1.42D-03 MaxDP=7.62D-03 DE=-1.16D-04 OVMax= 9.29D-03

 Cycle   6  Pass 1  IDiag  3:
 E= 0.122342553510180E-03 Delta-E=       -0.000039215367 Rises=F Damp=F
 DIIS: error= 2.17D-04 at cycle   6 NSaved=   6.
 NSaved= 6 IEnMin= 6 EnMin= 0.122342553510180E-03 IErMin= 6 ErrMin= 2.17D-04
 ErrMax= 2.17D-04  0.00D+00 EMaxC= 1.00D-01 BMatC= 1.64D-06 BMatP= 1.40D-05
 IDIUse=3 WtCom= 9.98D-01 WtEn= 2.17D-03
 Coeff-Com: -0.248D-02 0.508D-01-0.299D+00 0.900D+00-0.133D+01 0.168D+01
 Coeff-En:   0.000D+00 0.000D+00 0.000D+00 0.000D+00 0.000D+00 0.100D+01
 Coeff:     -0.248D-02 0.507D-01-0.298D+00 0.898D+00-0.133D+01 0.168D+01
 Gap=     0.359 Goal=   None    Shift=    0.000
 Gap=     0.498 Goal=   None    Shift=    0.000
 RMSDP=4.20D-04 MaxDP=1.73D-03 DE=-3.92D-05 OVMax= 1.94D-03

 Cycle   7  Pass 1  IDiag  3:
 E= 0.118828331252985E-03 Delta-E=       -0.000003514222 Rises=F Damp=F
 DIIS: error= 7.68D-05 at cycle   7 NSaved=   7.
 NSaved= 7 IEnMin= 7 EnMin= 0.118828331252985E-03 IErMin= 7 ErrMin= 7.68D-05
 ErrMax= 7.68D-05  0.00D+00 EMaxC= 1.00D-01 BMatC= 1.59D-07 BMatP= 1.64D-06
 IDIUse=1 WtCom= 1.00D+00 WtEn= 0.00D+00
 Coeff-Com:  0.265D-02-0.183D-01 0.550D-01-0.164D+00 0.308D+00-0.662D+00
 Coeff-Com:  0.148D+01
 Coeff:      0.265D-02-0.183D-01 0.550D-01-0.164D+00 0.308D+00-0.662D+00
 Coeff:      0.148D+01
 Gap=     0.359 Goal=   None    Shift=    0.000
 Gap=     0.498 Goal=   None    Shift=    0.000
 RMSDP=9.88D-05 MaxDP=4.28D-04 DE=-3.51D-06 OVMax= 4.72D-04

 Cycle   8  Pass 1  IDiag  3:
 E= 0.118557914223771E-03 Delta-E=       -0.000000270417 Rises=F Damp=F
 DIIS: error= 2.71D-05 at cycle   8 NSaved=   8.
 NSaved= 8 IEnMin= 8 EnMin= 0.118557914223771E-03 IErMin= 8 ErrMin= 2.71D-05
 ErrMax= 2.71D-05  0.00D+00 EMaxC= 1.00D-01 BMatC= 1.83D-08 BMatP= 1.59D-07
 IDIUse=1 WtCom= 1.00D+00 WtEn= 0.00D+00
 Coeff-Com: -0.156D-02 0.987D-02-0.219D-01 0.687D-01-0.142D+00 0.329D+00
 Coeff-Com: -0.107D+01 0.182D+01
 Coeff:     -0.156D-02 0.987D-02-0.219D-01 0.687D-01-0.142D+00 0.329D+00
 Coeff:     -0.107D+01 0.182D+01
 Gap=     0.359 Goal=   None    Shift=    0.000
 Gap=     0.498 Goal=   None    Shift=    0.000
 RMSDP=4.20D-05 MaxDP=2.05D-04 DE=-2.70D-07 OVMax= 2.26D-04

 Cycle   9  Pass 1  IDiag  3:
 E= 0.118515165020483E-03 Delta-E=       -0.000000042749 Rises=F Damp=F
 DIIS: error= 9.43D-06 at cycle   9 NSaved=   9.
 NSaved= 9 IEnMin= 9 EnMin= 0.118515165020483E-03 IErMin= 9 ErrMin= 9.43D-06
 ErrMax= 9.43D-06  0.00D+00 EMaxC= 1.00D-01 BMatC= 2.71D-09 BMatP= 1.83D-08
 IDIUse=1 WtCom= 1.00D+00 WtEn= 0.00D+00
 Coeff-Com:  0.106D-02-0.537D-02 0.342D-02-0.163D-01 0.584D-01-0.174D+00
 Coeff-Com:  0.763D+00-0.174D+01 0.211D+01
 Coeff:      0.106D-02-0.537D-02 0.342D-02-0.163D-01 0.584D-01-0.174D+00
 Coeff:      0.763D+00-0.174D+01 0.211D+01
 Gap=     0.359 Goal=   None    Shift=    0.000
 Gap=     0.498 Goal=   None    Shift=    0.000
 RMSDP=1.77D-05 MaxDP=8.74D-05 DE=-4.27D-08 OVMax= 9.63D-05

 Cycle  10  Pass 1  IDiag  3:
 E= 0.118508712304788E-03 Delta-E=       -0.000000006453 Rises=F Damp=F
 DIIS: error= 2.15D-06 at cycle  10 NSaved=  10.
 NSaved=10 IEnMin=10 EnMin= 0.118508712304788E-03 IErMin=10 ErrMin= 2.15D-06
 ErrMax= 2.15D-06  0.00D+00 EMaxC= 1.00D-01 BMatC= 1.99D-10 BMatP= 2.71D-09
 IDIUse=1 WtCom= 1.00D+00 WtEn= 0.00D+00
 Coeff-Com: -0.178D-03 0.110D-02-0.940D-03 0.572D-02-0.153D-01 0.315D-01
 Coeff-Com: -0.164D+00 0.433D+00-0.738D+00 0.145D+01
 Coeff:     -0.178D-03 0.110D-02-0.940D-03 0.572D-02-0.153D-01 0.315D-01
 Coeff:     -0.164D+00 0.433D+00-0.738D+00 0.145D+01
 Gap=     0.359 Goal=   None    Shift=    0.000
 Gap=     0.498 Goal=   None    Shift=    0.000
 RMSDP=4.32D-06 MaxDP=2.02D-05 DE=-6.45D-09 OVMax= 2.24D-05

 Cycle  11  Pass 1  IDiag  3:
 E= 0.118508273970974E-03 Delta-E=       -0.000000000438 Rises=F Damp=F
 DIIS: error= 9.27D-07 at cycle  11 NSaved=  11.
 NSaved=11 IEnMin=11 EnMin= 0.118508273970974E-03 IErMin=11 ErrMin= 9.27D-07
 ErrMax= 9.27D-07  0.00D+00 EMaxC= 1.00D-01 BMatC= 3.70D-11 BMatP= 1.99D-10
 IDIUse=1 WtCom= 1.00D+00 WtEn= 0.00D+00
 Coeff-Com:  0.187D-05 0.887D-04-0.188D-02 0.347D-02-0.275D-02 0.560D-02
 Coeff-Com:  0.369D-01-0.158D+00 0.382D+00-0.131D+01 0.205D+01
 Coeff:      0.187D-05 0.887D-04-0.188D-02 0.347D-02-0.275D-02 0.560D-02
 Coeff:      0.369D-01-0.158D+00 0.382D+00-0.131D+01 0.205D+01
 Gap=     0.359 Goal=   None    Shift=    0.000
 Gap=     0.498 Goal=   None    Shift=    0.000
 RMSDP=2.17D-06 MaxDP=1.03D-05 DE=-4.38D-10 OVMax= 1.25D-05

 Cycle  12  Pass 1  IDiag  3:
 E= 0.118508179699717E-03 Delta-E=       -0.000000000094 Rises=F Damp=F
 DIIS: error= 1.87D-07 at cycle  12 NSaved=  12.
 NSaved=12 IEnMin=12 EnMin= 0.118508179699717E-03 IErMin=12 ErrMin= 1.87D-07
 ErrMax= 1.87D-07  0.00D+00 EMaxC= 1.00D-01 BMatC= 2.36D-12 BMatP= 3.70D-11
 IDIUse=1 WtCom= 1.00D+00 WtEn= 0.00D+00
 Coeff-Com:  0.700D-05-0.801D-04 0.127D-02-0.209D-02 0.158D-02-0.456D-02
 Coeff-Com: -0.233D-01 0.108D+00-0.275D+00 0.100D+01-0.176D+01 0.195D+01
 Coeff:      0.700D-05-0.801D-04 0.127D-02-0.209D-02 0.158D-02-0.456D-02
 Coeff:     -0.233D-01 0.108D+00-0.275D+00 0.100D+01-0.176D+01 0.195D+01
 Gap=     0.359 Goal=   None    Shift=    0.000
 Gap=     0.498 Goal=   None    Shift=    0.000
 RMSDP=5.84D-07 MaxDP=2.33D-06 DE=-9.43D-11 OVMax= 3.09D-06

 Cycle  13  Pass 1  IDiag  3:
 E= 0.118508173954979E-03 Delta-E=       -0.000000000006 Rises=F Damp=F
 DIIS: error= 4.00D-08 at cycle  13 NSaved=  13.
 NSaved=13 IEnMin=13 EnMin= 0.118508173954979E-03 IErMin=13 ErrMin= 4.00D-08
 ErrMax= 4.00D-08  0.00D+00 EMaxC= 1.00D-01 BMatC= 9.74D-14 BMatP= 2.36D-12
 IDIUse=1 WtCom= 1.00D+00 WtEn= 0.00D+00
 Coeff-Com: -0.520D-05 0.543D-04-0.701D-03 0.118D-02-0.995D-03 0.285D-02
 Coeff-Com:  0.111D-01-0.554D-01 0.146D+00-0.550D+00 0.964D+00-0.111D+01
 Coeff-Com:  0.160D+01
 Coeff:     -0.520D-05 0.543D-04-0.701D-03 0.118D-02-0.995D-03 0.285D-02
 Coeff:      0.111D-01-0.554D-01 0.146D+00-0.550D+00 0.964D+00-0.111D+01
 Coeff:      0.160D+01
 Gap=     0.359 Goal=   None    Shift=    0.000
 Gap=     0.498 Goal=   None    Shift=    0.000
 RMSDP=7.66D-08 MaxDP=2.71D-07 DE=-5.74D-12 OVMax= 4.36D-07

 Cycle  14  Pass 1  IDiag  3:
 E= 0.118508173795107E-03 Delta-E=       -0.000000000000 Rises=F Damp=F
 DIIS: error= 1.26D-08 at cycle  14 NSaved=  14.
 NSaved=14 IEnMin=14 EnMin= 0.118508173795107E-03 IErMin=14 ErrMin= 1.26D-08
 ErrMax= 1.26D-08  0.00D+00 EMaxC= 1.00D-01 BMatC= 1.23D-14 BMatP= 9.74D-14
 IDIUse=1 WtCom= 1.00D+00 WtEn= 0.00D+00
 Coeff-Com:  0.424D-06-0.436D-05 0.548D-04-0.696D-04 0.454D-04-0.273D-03
 Coeff-Com: -0.887D-03 0.505D-02-0.148D-01 0.605D-01-0.104D+00 0.135D+00
 Coeff-Com: -0.579D+00 0.150D+01
 Coeff:      0.424D-06-0.436D-05 0.548D-04-0.696D-04 0.454D-04-0.273D-03
 Coeff:     -0.887D-03 0.505D-02-0.148D-01 0.605D-01-0.104D+00 0.135D+00
 Coeff:     -0.579D+00 0.150D+01
 Gap=     0.359 Goal=   None    Shift=    0.000
 Gap=     0.498 Goal=   None    Shift=    0.000
 RMSDP=2.94D-08 MaxDP=7.84D-08 DE=-1.60D-13 OVMax= 1.80D-07

 Cycle  15  Pass 1  IDiag  3:
 E= 0.118508173759579E-03 Delta-E=       -0.000000000000 Rises=F Damp=F
 DIIS: error= 4.29D-09 at cycle  15 NSaved=  15.
 NSaved=15 IEnMin=15 EnMin= 0.118508173759579E-03 IErMin=15 ErrMin= 4.29D-09
 ErrMax= 4.29D-09  0.00D+00 EMaxC= 1.00D-01 BMatC= 8.26D-16 BMatP= 1.23D-14
 IDIUse=1 WtCom= 1.00D+00 WtEn= 0.00D+00
 Coeff-Com:  0.497D-07-0.125D-05 0.200D-04-0.611D-04 0.655D-04-0.149D-04
 Coeff-Com: -0.288D-03 0.716D-03-0.150D-03-0.493D-02 0.668D-02-0.241D-01
 Coeff-Com:  0.442D+00-0.151D+01 0.209D+01
 Coeff:      0.497D-07-0.125D-05 0.200D-04-0.611D-04 0.655D-04-0.149D-04
 Coeff:     -0.288D-03 0.716D-03-0.150D-03-0.493D-02 0.668D-02-0.241D-01
 Coeff:      0.442D+00-0.151D+01 0.209D+01
 Gap=     0.359 Goal=   None    Shift=    0.000
 Gap=     0.498 Goal=   None    Shift=    0.000
 RMSDP=9.51D-09 MaxDP=3.66D-08 DE=-3.55D-14 OVMax= 6.00D-08

 Cycle  16  Pass 2  IDiag  1:
 SCF Done:  E(UPM6) =  0.118508173760E-03 A.U. after   16 cycles
            NFock= 15  Conv=0.95D-08     -V/T= 1.0000
 <Sx>= 0.0000 <Sy>= 0.0000 <Sz>= 0.5000 <S**2>= 0.7525 S= 0.5013
 <L.S>= 0.000000000000E+00
 KE=-2.572347538013D+01 PE=-2.005631901509D+01 EE= 1.903878088755D+01
 Annihilation of the first spin contaminant:
 S**2 before annihilation     0.7525,   after     0.7500
 Leave Link  502 at Wed Oct 21 14:28:17 2020, MaxMem=  2684354560 cpu:               9.6 elap:               1.3
 (Enter /udrive/faculty/rpeverati/g16/g16/l508.exe)
 QCSCF skips out because SCF is already converged.
 Leave Link  508 at Wed Oct 21 14:28:18 2020, MaxMem=  2684354560 cpu:               0.5 elap:               0.5
 (Enter /udrive/faculty/rpeverati/g16/g16/l601.exe)
 Copying SCF densities to generalized density rwf, IOpCl= 1 IROHF=0.

 **********************************************************************

            Population analysis using the SCF density.

 **********************************************************************

 Orbital symmetries:
 Alpha Orbitals:
       Occupied  (A') (A') (A') (A") (A') (A')
       Virtual   (A") (A') (A')
 Beta  Orbitals:
       Occupied  (A') (A') (A') (A") (A')
       Virtual   (A') (A") (A') (A')
 The electronic state is 2-A'.
 Alpha  occ. eigenvalues --   -1.23252  -0.81880  -0.62611  -0.56964  -0.52754
 Alpha  occ. eigenvalues --   -0.34628
 Alpha virt. eigenvalues --    0.01192   0.15369   0.16426
  Beta  occ. eigenvalues --   -1.19165  -0.78724  -0.56965  -0.54818  -0.48463
  Beta virt. eigenvalues --    0.01273   0.02774   0.16775   0.19420
          Condensed to atoms (all electrons):
               1          2          3
     1  H    0.871965   0.000000   0.000000
     2  C    0.000000   3.849699   0.000000
     3  O    0.000000   0.000000   6.278336
          Atomic-Atomic Spin Densities.
               1          2          3
     1  H    0.118077   0.000000   0.000000
     2  C    0.000000   0.521050   0.000000
     3  O    0.000000   0.000000   0.360873
 Mulliken charges and spin densities:
               1          2
     1  H    0.128035   0.118077
     2  C    0.150301   0.521050
     3  O   -0.278336   0.360873
 Sum of Mulliken charges =   0.00000   1.00000
 Mulliken charges and spin densities with hydrogens summed into heavy atoms:
               1          2
     2  C    0.278336   0.639127
     3  O   -0.278336   0.360873
 Charge=              0.0000 electrons
 Dipole moment (field-independent basis, Debye):
    X=             -1.2341    Y=              1.3418    Z=              0.0000  Tot=              1.8230
 N-N= 2.674113201584D+01 E-N=-2.005631900899D+01  KE=-2.572347538013D+01
 Leave Link  601 at Wed Oct 21 14:28:19 2020, MaxMem=  2684354560 cpu:               2.1 elap:               0.7
 (Enter /udrive/faculty/rpeverati/g16/g16/l701.exe)
 ... and contract with generalized density number  0.
 Compute integral first derivatives.
 Leave Link  701 at Wed Oct 21 14:28:21 2020, MaxMem=  2684354560 cpu:               6.4 elap:               1.1
 (Enter /udrive/faculty/rpeverati/g16/g16/l702.exe)
 L702 exits ... SP integral derivatives will be done elsewhere.
 Leave Link  702 at Wed Oct 21 14:28:22 2020, MaxMem=  2684354560 cpu:               2.4 elap:               0.8
 (Enter /udrive/faculty/rpeverati/g16/g16/l703.exe)
 Integral derivatives from FoFJK, PRISM(SPDF).
 Compute integral first derivatives, UseDBF=F ICtDFT=           0.
 Calling FoFJK, ICntrl=      2127 FMM=F ISym2X=1 I1Cent= 0 IOpClX= 1 NMat=1 NMatS=1 NMatT=0.
 FoFJK:  IHMeth=40 ICntrl=    2127 DoSepK=F KAlg= 0 I1Cent=           0 FoldK=F
 IRaf=         0 NMat=       1 IRICut=       1 DoRegI=T DoRafI=F ISym2E= 1 IDoP0=3 IntGTp=3.
 FoFCou: FMM=F IPFlag=           0 FMFlag=      100000 FMFlg1=         800
         NFxFlg=           0 DoJE=F BraDBF=F KetDBF=F FulRan=T
         wScrn=  0.000000 ICntrl=      2127 IOpCl=  1 I1Cent=           0 NGrid=           0
         NMat0=    1 NMatS0=      1 NMatT0=    0 NMatD0=    1 NMtDS0=    0 NMtDT0=    0
 Petite list used in FoFCou.
 Leave Link  703 at Wed Oct 21 14:28:23 2020, MaxMem=  2684354560 cpu:               3.0 elap:               0.8
 (Enter /udrive/faculty/rpeverati/g16/g16/l716.exe)
 Dipole        =-4.85522190D-01 5.27921440D-01 2.02167023D-16
 ***** Axes restored to original set *****
 -------------------------------------------------------------------
 Center     Atomic                   Forces (Hartrees/Bohr)
 Number     Number              X              Y              Z
 -------------------------------------------------------------------
      1        1           0.022602576    0.001562922   -0.000000000
      2        6          -0.036171495   -0.016902169    0.000000000
      3        8           0.013568919    0.015339246    0.000000000
 -------------------------------------------------------------------
 Cartesian Forces:  Max     0.036171495 RMS     0.016755721
 Leave Link  716 at Wed Oct 21 14:28:24 2020, MaxMem=  2684354560 cpu:               2.2 elap:               0.8
 (Enter /udrive/faculty/rpeverati/g16/g16/l103.exe)

 GradGradGradGradGradGradGradGradGradGradGradGradGradGradGradGradGradGrad
 Berny optimization.
 Optmz: redundant internal coordinate code flag= 1
 FormGI is forming the generalized inverse of G from B-inverse, IUseBI=4.
 Internal  Forces:  Max     0.030170627 RMS     0.022018892
 Search for a local minimum.
 Step number   1 out of a maximum of  100
 All quantities printed in internal units (Hartrees-Bohrs-Radians)
 RMS Force = .22019D-01 SwitMx=.10000D-02 MixMth= 1
 Mixed Optimization -- RFO/linear search
 Second derivative matrix not updated -- first step.
 The second derivative matrix:
                          R1        R2        A1
           R1           0.31894
           R2           0.00000   1.17500
           A1           0.00000   0.00000   0.16000
 ITU=  0
 Eigenvectors of the second derivative matrix:
                           1         2         3
     Eigenvalues --     0.16000   0.31894   1.17500
   1         R1         0.00000   1.00000   0.00000
   2         R2         0.00000   0.00000  -1.00000
   3         A1         1.00000   0.00000  -0.00000
 Iter=   1 RLamda= 0.00000000D+00 Sum=-6.85804948D-03.
 Iter=   2 RLamda=-6.85804948D-03 Sum=-6.60266669D-03.
 Iter=   3 RLamda=-6.60266669D-03 Sum=-6.61181600D-03.
 Iter=   4 RLamda=-6.61181600D-03 Sum=-6.61148776D-03.
 Iter=   5 RLamda=-6.61148776D-03 Sum=-6.61149953D-03.
 Iter=   6 RLamda=-6.61149953D-03 Sum=-6.61149911D-03.
 RFO step:  Lambda=-6.61149953D-03 EMin= 1.60000000D-01
 Linear search not attempted -- first point.
 Iteration  1 RMS(Cart)=  0.10268641 RMS(Int)=  0.00747962
 Iteration  2 RMS(Cart)=  0.00761142 RMS(Int)=  0.00000599
 Iteration  3 RMS(Cart)=  0.00000544 RMS(Int)=  0.00000000
 Iteration  4 RMS(Cart)=  0.00000000 RMS(Int)=  0.00000000
 ITry= 1 IFail=0 DXMaxC= 1.19D-01 DCOld= 1.00D+10 DXMaxT= 3.00D-01 DXLimC= 3.00D+00 Rises=F
 ClnCor:  largest displacement from symmetrization is 0.00D+00 for atom     0.
 Variable       Old X    -DE/DX   Delta X   Delta X   Delta X     New X
                                 (Linear)    (Quad)   (Total)
    R1        2.11038  -0.01758   0.00000  -0.05399  -0.05399   2.05639
    R2        2.22351  -0.01534   0.00000  -0.01298  -0.01298   2.21053
    A1        2.18460   0.03017   0.00000   0.18108   0.18108   2.36568
         Item               Value     Threshold  Converged?
 Maximum Force            0.030171     0.000450     NO 
 RMS     Force            0.022019     0.000300     NO 
 Maximum Displacement     0.118935     0.001800     NO 
 RMS     Displacement     0.099687     0.001200     NO 
 Predicted change in Energy=-3.424343D-03
 Lowest energy point so far.  Saving SCF results.
 Largest change from initial coordinates is atom    2       0.043 Angstoms.
 GradGradGradGradGradGradGradGradGradGradGradGradGradGradGradGradGradGrad

 Leave Link  103 at Wed Oct 21 14:28:25 2020, MaxMem=  2684354560 cpu:               4.0 elap:               0.9
 (Enter /udrive/faculty/rpeverati/g16/g16/l202.exe)
                          Input orientation:                          
 ---------------------------------------------------------------------
 Center     Atomic      Atomic             Coordinates (Angstroms)
 Number     Number       Type             X           Y           Z
 ---------------------------------------------------------------------
      1          1           0       -0.830362    1.265743    0.000000
      2          6           0       -0.002077    0.559971    0.000000
      3          8           0        0.102107   -0.605141    0.000000
 ---------------------------------------------------------------------
                    Distance matrix (angstroms):
                    1          2          3
     1  H    0.000000
     2  C    1.088196   0.000000
     3  O    2.090385   1.169761   0.000000
 Stoichiometry    CHO(2)
 Framework group  CS[SG(CHO)]
 Deg. of freedom     3
 Full point group                 CS      NOp   2
 RotChk:  IX=0 Diff= 1.26D-01
 Largest Abelian subgroup         CS      NOp   2
 Largest concise Abelian subgroup C1      NOp   1
                         Standard orientation:                         
 ---------------------------------------------------------------------
 Center     Atomic      Atomic             Coordinates (Angstroms)
 Number     Number       Type             X           Y           Z
 ---------------------------------------------------------------------
      1          1           0       -0.711326    1.348828    0.000000
      2          6           0        0.050809    0.572090    0.000000
      3          8           0        0.050809   -0.597671    0.000000
 ---------------------------------------------------------------------
 Rotational constants (GHZ):        1098.0520732          43.8776863          42.1917233
 Leave Link  202 at Wed Oct 21 14:28:27 2020, MaxMem=  2684354560 cpu:               2.5 elap:               0.7
 (Enter /udrive/faculty/rpeverati/g16/g16/l301.exe)
 Standard basis: VSTO-6G (5D, 7F)
 Ernie: Thresh=  0.10000D-02 Tol=  0.10000D-05 Strict=F.
  NNHCO=     0 NNPyr=     0 NCTC=     0               EPep=         0.000000000
    EC=        10.396157168  ECS=         0.697392031   EG=         0.036822472
   EHC=         0.000568585  EAt=       -15.198629379  AtH=         0.450273680
 EPDDG=         0.000000000  ECC=        11.130940256 EAtT=        15.648903059
 There are     7 symmetry adapted cartesian basis functions of A'  symmetry.
 There are     2 symmetry adapted cartesian basis functions of A"  symmetry.
 There are     7 symmetry adapted basis functions of A'  symmetry.
 There are     2 symmetry adapted basis functions of A"  symmetry.
     9 basis functions,    54 primitive gaussians,     9 cartesian basis functions
     6 alpha electrons        5 beta electrons
       nuclear repulsion energy        26.7798433151 Hartrees.
 IExCor=    0 DFT=F Ex=HF Corr=None ExCW=0 ScaHFX=  1.000000
 ScaDFX=  1.000000  1.000000  1.000000  1.000000 ScalE2=  1.000000  1.000000
 IRadAn=      5 IRanWt=     -1 IRanGd=            0 ICorTp=0 IEmpDi=  4
 Integral buffers will be    131072 words long.
 Regular integral format.
 Two-electron integral symmetry is turned off.
 Leave Link  301 at Wed Oct 21 14:28:28 2020, MaxMem=  2684354560 cpu:               3.9 elap:               0.9
 (Enter /udrive/faculty/rpeverati/g16/g16/l302.exe)
 Do NDO integrals.
 NPDir=0 NMtPBC=     1 NCelOv=     1 NCel=       1 NClECP=     1 NCelD=      1
         NCelK=      1 NCelE2=     1 NClLst=     1 CellRange=     0.0.
 One-electron integrals computed using PRISM.
 NBasis=     9 RedAO= T EigKep=  1.00D+00  NBF=     7     2
 NBsUse=     9 1.00D-06 EigRej= -1.00D+00 NBFU=     7     2
 Leave Link  302 at Wed Oct 21 14:28:29 2020, MaxMem=  2684354560 cpu:               3.7 elap:               0.9
 (Enter /udrive/faculty/rpeverati/g16/g16/l303.exe)
 DipDrv:  MaxL=1.
 Leave Link  303 at Wed Oct 21 14:28:30 2020, MaxMem=  2684354560 cpu:               2.3 elap:               0.8
 (Enter /udrive/faculty/rpeverati/g16/g16/l401.exe)
 Initial guess from the checkpoint file:  "MN_50_hco_BH76_PM6_SE.chk"
 SCF N**3 symmetry information disabled.
 B after Tr=    -0.000000   -0.000000    0.000000
         Rot=    0.999786    0.000000    0.000000    0.020675 Ang=   2.37 deg.
 Guess basis will be translated and rotated to current coordinates.
 JPrj=0 DoOrth=T DoCkMO=T.
 Initial guess orbital symmetries:
 Alpha Orbitals:
       Occupied  (A') (A') (A') (A") (A') (A')
       Virtual   (A") (A') (A')
 Beta  Orbitals:
       Occupied  (A') (A') (A') (A") (A')
       Virtual   (A') (A") (A') (A')
 The electronic state of the initial guess is 2-A'.
 Initial guess <Sx>= 0.0000 <Sy>= 0.0000 <Sz>= 0.5000 <S**2>= 0.7525 S= 0.5013
 Leave Link  401 at Wed Oct 21 14:28:32 2020, MaxMem=  2684354560 cpu:               2.9 elap:               0.9
 (Enter /udrive/faculty/rpeverati/g16/g16/l502.exe)
 Keep J ints in memory in canonical form, NReq=859290.
 FoFCou: FMM=F IPFlag=           0 FMFlag=           0 FMFlg1=           0
         NFxFlg=           0 DoJE=F BraDBF=F KetDBF=F FulRan=T
         wScrn=  0.000000 ICntrl=       600 IOpCl=  2 I1Cent=           0 NGrid=           0
         NMat0=    1 NMatS0=     21 NMatT0=    0 NMatD0=    1 NMtDS0=    0 NMtDT0=    0
 Symmetry not used in FoFCou.
 Two-electron integral symmetry not used.
 UHF open shell SCF:
 Using DIIS extrapolation, IDIIS=  1040.
 Overlap will be assumed to be unity.
 NGot=  2684354560 LenX=  2684293973 LenY=  2684293091
 Requested convergence on RMS density matrix=1.00D-08 within 120 cycles.
 Requested convergence on MAX density matrix=1.00D-06.
 Requested convergence on             energy=1.00D-06.
 No special actions if energy rises.

 Cycle   1  Pass 1  IDiag  1:
 E=-0.164546225429874E-02
 DIIS: error= 7.81D-03 at cycle   1 NSaved=   1.
 NSaved= 1 IEnMin= 1 EnMin=-0.164546225429874E-02 IErMin= 1 ErrMin= 7.81D-03
 ErrMax= 7.81D-03  0.00D+00 EMaxC= 1.00D-01 BMatC= 2.51D-03 BMatP= 2.51D-03
 IDIUse=3 WtCom= 9.22D-01 WtEn= 7.81D-02
 Coeff-Com:  0.100D+01
 Coeff-En:   0.100D+01
 Coeff:      0.100D+01
 GapD=    2.000 DampG=2.000 DampE=1.000 DampFc=2.0000 IDamp=-1.
 RMSDP=5.16D-03 MaxDP=1.97D-02              OVMax= 0.00D+00

 Cycle   2  Pass 1  IDiag  3:
 E=-0.392591906031825E-02 Delta-E=       -0.002280456806 Rises=F Damp=F
 DIIS: error= 2.80D-03 at cycle   2 NSaved=   2.
 NSaved= 2 IEnMin= 2 EnMin=-0.392591906031825E-02 IErMin= 2 ErrMin= 2.80D-03
 ErrMax= 2.80D-03  0.00D+00 EMaxC= 1.00D-01 BMatC= 4.61D-04 BMatP= 2.51D-03
 IDIUse=3 WtCom= 9.72D-01 WtEn= 2.80D-02
 Coeff-Com: -0.638D+00 0.164D+01
 Coeff-En:   0.000D+00 0.100D+01
 Coeff:     -0.620D+00 0.162D+01
 Gap=     0.347 Goal=   None    Shift=    0.000
 Gap=     0.522 Goal=   None    Shift=    0.000
 RMSDP=4.07D-03 MaxDP=1.87D-02 DE=-2.28D-03 OVMax= 1.87D-02

 Cycle   3  Pass 1  IDiag  3:
 E=-0.457601293025789E-02 Delta-E=       -0.000650093870 Rises=F Damp=F
 DIIS: error= 1.35D-03 at cycle   3 NSaved=   3.
 NSaved= 3 IEnMin= 3 EnMin=-0.457601293025789E-02 IErMin= 3 ErrMin= 1.35D-03
 ErrMax= 1.35D-03  0.00D+00 EMaxC= 1.00D-01 BMatC= 3.34D-05 BMatP= 4.61D-04
 IDIUse=3 WtCom= 9.87D-01 WtEn= 1.35D-02
 Coeff-Com:  0.541D+00-0.150D+01 0.196D+01
 Coeff-En:   0.000D+00 0.000D+00 0.100D+01
 Coeff:      0.533D+00-0.148D+01 0.195D+01
 Gap=     0.346 Goal=   None    Shift=    0.000
 Gap=     0.522 Goal=   None    Shift=    0.000
 RMSDP=1.73D-03 MaxDP=1.08D-02 DE=-6.50D-04 OVMax= 1.02D-02

 Cycle   4  Pass 1  IDiag  3:
 E=-0.465664348839212E-02 Delta-E=       -0.000080630558 Rises=F Damp=F
 DIIS: error= 5.06D-04 at cycle   4 NSaved=   4.
 NSaved= 4 IEnMin= 4 EnMin=-0.465664348839212E-02 IErMin= 4 ErrMin= 5.06D-04
 ErrMax= 5.06D-04  0.00D+00 EMaxC= 1.00D-01 BMatC= 4.49D-06 BMatP= 3.34D-05
 IDIUse=3 WtCom= 9.95D-01 WtEn= 5.06D-03
 Coeff-Com: -0.430D+00 0.121D+01-0.188D+01 0.210D+01
 Coeff-En:   0.000D+00 0.000D+00 0.000D+00 0.100D+01
 Coeff:     -0.428D+00 0.121D+01-0.188D+01 0.210D+01
 Gap=     0.346 Goal=   None    Shift=    0.000
 Gap=     0.522 Goal=   None    Shift=    0.000
 RMSDP=8.30D-04 MaxDP=5.18D-03 DE=-8.06D-05 OVMax= 5.63D-03

 Cycle   5  Pass 1  IDiag  3:
 E=-0.466885080409796E-02 Delta-E=       -0.000012207316 Rises=F Damp=F
 DIIS: error= 7.16D-05 at cycle   5 NSaved=   5.
 NSaved= 5 IEnMin= 5 EnMin=-0.466885080409796E-02 IErMin= 5 ErrMin= 7.16D-05
 ErrMax= 7.16D-05  0.00D+00 EMaxC= 1.00D-01 BMatC= 3.07D-07 BMatP= 4.49D-06
 IDIUse=1 WtCom= 1.00D+00 WtEn= 0.00D+00
 Coeff-Com:  0.328D+00-0.924D+00 0.146D+01-0.176D+01 0.190D+01
 Coeff:      0.328D+00-0.924D+00 0.146D+01-0.176D+01 0.190D+01
 Gap=     0.346 Goal=   None    Shift=    0.000
 Gap=     0.522 Goal=   None    Shift=    0.000
 RMSDP=1.83D-04 MaxDP=7.88D-04 DE=-1.22D-05 OVMax= 1.46D-03

 Cycle   6  Pass 1  IDiag  3:
 E=-0.466963521109065E-02 Delta-E=       -0.000000784407 Rises=F Damp=F
 DIIS: error= 2.96D-05 at cycle   6 NSaved=   6.
 NSaved= 6 IEnMin= 6 EnMin=-0.466963521109065E-02 IErMin= 6 ErrMin= 2.96D-05
 ErrMax= 2.96D-05  0.00D+00 EMaxC= 1.00D-01 BMatC= 4.40D-08 BMatP= 3.07D-07
 IDIUse=1 WtCom= 1.00D+00 WtEn= 0.00D+00
 Coeff-Com: -0.150D+00 0.421D+00-0.659D+00 0.787D+00-0.102D+01 0.162D+01
 Coeff:     -0.150D+00 0.421D+00-0.659D+00 0.787D+00-0.102D+01 0.162D+01
 Gap=     0.346 Goal=   None    Shift=    0.000
 Gap=     0.522 Goal=   None    Shift=    0.000
 RMSDP=6.39D-05 MaxDP=2.00D-04 DE=-7.84D-07 OVMax= 4.68D-04

 Cycle   7  Pass 1  IDiag  3:
 E=-0.466974262512210E-02 Delta-E=       -0.000000107414 Rises=F Damp=F
 DIIS: error= 1.04D-05 at cycle   7 NSaved=   7.
 NSaved= 7 IEnMin= 7 EnMin=-0.466974262512210E-02 IErMin= 7 ErrMin= 1.04D-05
 ErrMax= 1.04D-05  0.00D+00 EMaxC= 1.00D-01 BMatC= 7.34D-09 BMatP= 4.40D-08
 IDIUse=1 WtCom= 1.00D+00 WtEn= 0.00D+00
 Coeff-Com: -0.986D-02 0.287D-01-0.514D-01 0.847D-01-0.164D+00-0.178D+00
 Coeff-Com:  0.129D+01
 Coeff:     -0.986D-02 0.287D-01-0.514D-01 0.847D-01-0.164D+00-0.178D+00
 Coeff:      0.129D+01
 Gap=     0.346 Goal=   None    Shift=    0.000
 Gap=     0.522 Goal=   None    Shift=    0.000
 RMSDP=2.98D-05 MaxDP=9.91D-05 DE=-1.07D-07 OVMax= 1.96D-04

 Cycle   8  Pass 1  IDiag  3:
 E=-0.466976134782016E-02 Delta-E=       -0.000000018723 Rises=F Damp=F
 DIIS: error= 3.78D-06 at cycle   8 NSaved=   8.
 NSaved= 8 IEnMin= 8 EnMin=-0.466976134782016E-02 IErMin= 8 ErrMin= 3.78D-06
 ErrMax= 3.78D-06  0.00D+00 EMaxC= 1.00D-01 BMatC= 1.07D-09 BMatP= 7.34D-09
 IDIUse=1 WtCom= 1.00D+00 WtEn= 0.00D+00
 Coeff-Com:  0.137D-01-0.392D-01 0.663D-01-0.999D-01 0.193D+00 0.148D-01
 Coeff-Com: -0.112D+01 0.197D+01
 Coeff:      0.137D-01-0.392D-01 0.663D-01-0.999D-01 0.193D+00 0.148D-01
 Coeff:     -0.112D+01 0.197D+01
 Gap=     0.346 Goal=   None    Shift=    0.000
 Gap=     0.522 Goal=   None    Shift=    0.000
 RMSDP=1.12D-05 MaxDP=3.69D-05 DE=-1.87D-08 OVMax= 6.06D-05

 Cycle   9  Pass 1  IDiag  3:
 E=-0.466976381139972E-02 Delta-E=       -0.000000002464 Rises=F Damp=F
 DIIS: error= 1.82D-06 at cycle   9 NSaved=   9.
 NSaved= 9 IEnMin= 9 EnMin=-0.466976381139972E-02 IErMin= 9 ErrMin= 1.82D-06
 ErrMax= 1.82D-06  0.00D+00 EMaxC= 1.00D-01 BMatC= 6.40D-11 BMatP= 1.07D-09
 IDIUse=1 WtCom= 1.00D+00 WtEn= 0.00D+00
 Coeff-Com: -0.452D-03 0.158D-02-0.475D-02 0.157D-01-0.564D-01-0.582D-01
 Coeff-Com:  0.611D+00-0.114D+01 0.164D+01
 Coeff:     -0.452D-03 0.158D-02-0.475D-02 0.157D-01-0.564D-01-0.582D-01
 Coeff:      0.611D+00-0.114D+01 0.164D+01
 Gap=     0.346 Goal=   None    Shift=    0.000
 Gap=     0.522 Goal=   None    Shift=    0.000
 RMSDP=2.22D-06 MaxDP=1.10D-05 DE=-2.46D-09 OVMax= 1.22D-05

 Cycle  10  Pass 1  IDiag  3:
 E=-0.466976393751750E-02 Delta-E=       -0.000000000126 Rises=F Damp=F
 DIIS: error= 5.89D-07 at cycle  10 NSaved=  10.
 NSaved=10 IEnMin=10 EnMin=-0.466976393751750E-02 IErMin=10 ErrMin= 5.89D-07
 ErrMax= 5.89D-07  0.00D+00 EMaxC= 1.00D-01 BMatC= 9.30D-12 BMatP= 6.40D-11
 IDIUse=1 WtCom= 1.00D+00 WtEn= 0.00D+00
 Coeff-Com:  0.189D-03-0.848D-03 0.367D-02-0.147D-01 0.558D-01 0.633D-01
 Coeff-Com: -0.629D+00 0.119D+01-0.191D+01 0.224D+01
 Coeff:      0.189D-03-0.848D-03 0.367D-02-0.147D-01 0.558D-01 0.633D-01
 Coeff:     -0.629D+00 0.119D+01-0.191D+01 0.224D+01
 Gap=     0.346 Goal=   None    Shift=    0.000
 Gap=     0.522 Goal=   None    Shift=    0.000
 RMSDP=9.82D-07 MaxDP=4.83D-06 DE=-1.26D-10 OVMax= 5.40D-06

 Cycle  11  Pass 1  IDiag  3:
 E=-0.466976396108620E-02 Delta-E=       -0.000000000024 Rises=F Damp=F
 DIIS: error= 2.63D-07 at cycle  11 NSaved=  11.
 NSaved=11 IEnMin=11 EnMin=-0.466976396108620E-02 IErMin=11 ErrMin= 2.63D-07
 ErrMax= 2.63D-07  0.00D+00 EMaxC= 1.00D-01 BMatC= 1.29D-12 BMatP= 9.30D-12
 IDIUse=1 WtCom= 1.00D+00 WtEn= 0.00D+00
 Coeff-Com: -0.444D-04 0.467D-03-0.325D-02 0.150D-01-0.593D-01-0.705D-01
 Coeff-Com:  0.682D+00-0.129D+01 0.210D+01-0.276D+01 0.238D+01
 Coeff:     -0.444D-04 0.467D-03-0.325D-02 0.150D-01-0.593D-01-0.705D-01
 Coeff:      0.682D+00-0.129D+01 0.210D+01-0.276D+01 0.238D+01
 Gap=     0.346 Goal=   None    Shift=    0.000
 Gap=     0.522 Goal=   None    Shift=    0.000
 RMSDP=4.75D-07 MaxDP=2.54D-06 DE=-2.36D-11 OVMax= 2.78D-06

 Cycle  12  Pass 1  IDiag  3:
 E=-0.466976396473484E-02 Delta-E=       -0.000000000004 Rises=F Damp=F
 DIIS: error= 4.52D-08 at cycle  12 NSaved=  12.
 NSaved=12 IEnMin=12 EnMin=-0.466976396473484E-02 IErMin=12 ErrMin= 4.52D-08
 ErrMax= 4.52D-08  0.00D+00 EMaxC= 1.00D-01 BMatC= 5.18D-14 BMatP= 1.29D-12
 IDIUse=1 WtCom= 1.00D+00 WtEn= 0.00D+00
 Coeff-Com:  0.986D-04-0.565D-03 0.300D-02-0.129D-01 0.501D-01 0.590D-01
 Coeff-Com: -0.573D+00 0.108D+01-0.176D+01 0.232D+01-0.212D+01 0.195D+01
 Coeff:      0.986D-04-0.565D-03 0.300D-02-0.129D-01 0.501D-01 0.590D-01
 Coeff:     -0.573D+00 0.108D+01-0.176D+01 0.232D+01-0.212D+01 0.195D+01
 Gap=     0.346 Goal=   None    Shift=    0.000
 Gap=     0.522 Goal=   None    Shift=    0.000
 RMSDP=8.21D-08 MaxDP=4.22D-07 DE=-3.65D-12 OVMax= 4.63D-07

 Cycle  13  Pass 1  IDiag  3:
 E=-0.466976396486629E-02 Delta-E=       -0.000000000000 Rises=F Damp=F
 DIIS: error= 6.40D-09 at cycle  13 NSaved=  13.
 NSaved=13 IEnMin=13 EnMin=-0.466976396486629E-02 IErMin=13 ErrMin= 6.40D-09
 ErrMax= 6.40D-09  0.00D+00 EMaxC= 1.00D-01 BMatC= 1.50D-15 BMatP= 5.18D-14
 IDIUse=1 WtCom= 1.00D+00 WtEn= 0.00D+00
 Coeff-Com: -0.732D-04 0.360D-03-0.170D-02 0.705D-02-0.270D-01-0.315D-01
 Coeff-Com:  0.307D+00-0.579D+00 0.941D+00-0.124D+01 0.113D+01-0.111D+01
 Coeff-Com:  0.161D+01
 Coeff:     -0.732D-04 0.360D-03-0.170D-02 0.705D-02-0.270D-01-0.315D-01
 Coeff:      0.307D+00-0.579D+00 0.941D+00-0.124D+01 0.113D+01-0.111D+01
 Coeff:      0.161D+01
 Gap=     0.346 Goal=   None    Shift=    0.000
 Gap=     0.522 Goal=   None    Shift=    0.000
 RMSDP=1.11D-08 MaxDP=5.80D-08 DE=-1.31D-13 OVMax= 6.35D-08

 Cycle  14  Pass 1  IDiag  3:
 E=-0.466976396486629E-02 Delta-E=        0.000000000000 Rises=F Damp=F
 DIIS: error= 1.39D-09 at cycle  14 NSaved=  14.
 NSaved=14 IEnMin=13 EnMin=-0.466976396486629E-02 IErMin=14 ErrMin= 1.39D-09
 ErrMax= 1.39D-09  0.00D+00 EMaxC= 1.00D-01 BMatC= 1.20D-16 BMatP= 1.50D-15
 IDIUse=1 WtCom= 1.00D+00 WtEn= 0.00D+00
 Coeff-Com:  0.548D-05-0.275D-04 0.132D-03-0.555D-03 0.212D-02 0.249D-02
 Coeff-Com: -0.241D-01 0.455D-01-0.738D-01 0.979D-01-0.867D-01 0.960D-01
 Coeff-Com: -0.446D+00 0.139D+01
 Coeff:      0.548D-05-0.275D-04 0.132D-03-0.555D-03 0.212D-02 0.249D-02
 Coeff:     -0.241D-01 0.455D-01-0.738D-01 0.979D-01-0.867D-01 0.960D-01
 Coeff:     -0.446D+00 0.139D+01
 Gap=     0.346 Goal=   None    Shift=    0.000
 Gap=     0.522 Goal=   None    Shift=    0.000
 RMSDP=3.34D-09 MaxDP=1.55D-08 DE= 0.00D+00 OVMax= 2.05D-08

 Cycle  15  Pass 2  IDiag  1:
 SCF Done:  E(UPM6) = -0.466976396487E-02 A.U. after   15 cycles
            NFock= 14  Conv=0.33D-08     -V/T= 0.9998
 <Sx>= 0.0000 <Sy>= 0.0000 <Sz>= 0.5000 <S**2>= 0.7521 S= 0.5010
 <L.S>= 0.000000000000E+00
 KE=-2.573152206764D+01 PE=-2.009467104325D+01 EE= 1.904168003179D+01
 Annihilation of the first spin contaminant:
 S**2 before annihilation     0.7521,   after     0.7500
 Leave Link  502 at Wed Oct 21 14:28:33 2020, MaxMem=  2684354560 cpu:               9.4 elap:               1.4
 (Enter /udrive/faculty/rpeverati/g16/g16/l508.exe)
 QCSCF skips out because SCF is already converged.
 Leave Link  508 at Wed Oct 21 14:28:34 2020, MaxMem=  2684354560 cpu:               0.4 elap:               0.6
 (Enter /udrive/faculty/rpeverati/g16/g16/l701.exe)
 ... and contract with generalized density number  0.
 Compute integral first derivatives.
 Leave Link  701 at Wed Oct 21 14:28:36 2020, MaxMem=  2684354560 cpu:               3.6 elap:               0.9
 (Enter /udrive/faculty/rpeverati/g16/g16/l702.exe)
 L702 exits ... SP integral derivatives will be done elsewhere.
 Leave Link  702 at Wed Oct 21 14:28:37 2020, MaxMem=  2684354560 cpu:               1.8 elap:               0.8
 (Enter /udrive/faculty/rpeverati/g16/g16/l703.exe)
 Integral derivatives from FoFJK, PRISM(SPDF).
 Compute integral first derivatives, UseDBF=F ICtDFT=           0.
 Calling FoFJK, ICntrl=      2127 FMM=F ISym2X=1 I1Cent= 0 IOpClX= 1 NMat=1 NMatS=1 NMatT=0.
 FoFJK:  IHMeth=40 ICntrl=    2127 DoSepK=F KAlg= 0 I1Cent=           0 FoldK=F
 IRaf=         0 NMat=       1 IRICut=       1 DoRegI=T DoRafI=F ISym2E= 1 IDoP0=3 IntGTp=3.
 FoFCou: FMM=F IPFlag=           0 FMFlag=      100000 FMFlg1=         800
         NFxFlg=           0 DoJE=F BraDBF=F KetDBF=F FulRan=T
         wScrn=  0.000000 ICntrl=      2127 IOpCl=  1 I1Cent=           0 NGrid=           0
         NMat0=    1 NMatS0=      1 NMatT0=    0 NMatD0=    1 NMtDS0=    0 NMtDT0=    0
 Petite list used in FoFCou.
 Leave Link  703 at Wed Oct 21 14:28:38 2020, MaxMem=  2684354560 cpu:               2.7 elap:               0.9
 (Enter /udrive/faculty/rpeverati/g16/g16/l716.exe)
 Dipole        =-4.71985148D-01 5.66419921D-01 3.24863881D-16
 ***** Axes restored to original set *****
 -------------------------------------------------------------------
 Center     Atomic                   Forces (Hartrees/Bohr)
 Number     Number              X              Y              Z
 -------------------------------------------------------------------
      1        1           0.012918310   -0.002885097   -0.000000000
      2        6          -0.017830272   -0.006758532   -0.000000000
      3        8           0.004911963    0.009643629    0.000000000
 -------------------------------------------------------------------
 Cartesian Forces:  Max     0.017830272 RMS     0.008537042
 Leave Link  716 at Wed Oct 21 14:28:39 2020, MaxMem=  2684354560 cpu:               1.7 elap:               0.7
 (Enter /udrive/faculty/rpeverati/g16/g16/l103.exe)

 GradGradGradGradGradGradGradGradGradGradGradGradGradGradGradGradGradGrad
 Berny optimization.
 Optmz: redundant internal coordinate code flag= 1
 Using GEDIIS/GDIIS optimizer.
 Red2BG:  D1=  7.83D-01 OD1=  9.23D-02 B2RMS=  0.00D+00 IAprox=0
 FormGI is forming the generalized inverse of G from B-inverse, IUseBI=4.
 Internal  Forces:  Max     0.012713505 RMS     0.011294044
 Search for a local minimum.
 Step number   2 out of a maximum of  100
 All quantities printed in internal units (Hartrees-Bohrs-Radians)
 RMS Force = .11294D-01 SwitMx=.10000D-02 MixMth= 1
 Mixed Optimization -- RFO/linear search
 Update second derivatives using D2CorX and points    1    2
 DE= -4.79D-03 DEPred=-3.42D-03 R= 1.40D+00
 TightC=F SS=  1.41D+00  RLast= 1.89D-01 DXNew= 5.0454D-01 5.6822D-01
 Trust test= 1.40D+00 RLast= 1.89D-01 DXMaxT set to 5.05D-01
 The second derivative matrix:
                          R1        R2        A1
           R1           0.28211
           R2          -0.03102   1.14920
           A1           0.04946   0.03906   0.11395
 ITU=  1  0
 Use linear search instead of GDIIS.
 Eigenvectors of the second derivative matrix:
                           1         2         3
     Eigenvalues --     0.09848   0.29513   1.15165
   1         R1        -0.26669   0.96320   0.03358
   2         R2        -0.04366   0.02274  -0.99879
   3         A1         0.96279   0.26783  -0.03599
 Iter=   1 RLamda= 0.00000000D+00 Sum=-1.74829823D-04.
 Iter=   2 RLamda=-1.74829823D-04 Sum=-1.74729269D-04.
 Iter=   3 RLamda=-1.74729269D-04 Sum=-1.74729326D-04.
 RFO step:  Lambda=-1.74729269D-04 EMin= 9.84788722D-02
 Quartic linear search produced a step of  1.00128.
 Iteration  1 RMS(Cart)=  0.09254364 RMS(Int)=  0.00693405
 Iteration  2 RMS(Cart)=  0.00723626 RMS(Int)=  0.00000835
 Iteration  3 RMS(Cart)=  0.00000694 RMS(Int)=  0.00000000
 Iteration  4 RMS(Cart)=  0.00000000 RMS(Int)=  0.00000000
 ITry= 1 IFail=0 DXMaxC= 1.20D-01 DCOld= 1.00D+10 DXMaxT= 5.05D-01 DXLimC= 3.00D+00 Rises=F
 ClnCor:  largest displacement from symmetrization is 4.97D-16 for atom     1.
 Variable       Old X    -DE/DX   Delta X   Delta X   Delta X     New X
                                 (Linear)    (Quad)   (Total)
    R1        2.05639  -0.01170  -0.05406  -0.02219  -0.07625   1.98014
    R2        2.21053  -0.00917  -0.01300  -0.00307  -0.01607   2.19446
    A1        2.36568   0.01271   0.18132  -0.00855   0.17277   2.53845
         Item               Value     Threshold  Converged?
 Maximum Force            0.012714     0.000450     NO 
 RMS     Force            0.011294     0.000300     NO 
 Maximum Displacement     0.119808     0.001800     NO 
 RMS     Displacement     0.090599     0.001200     NO 
 Predicted change in Energy=-1.365104D-03
 Lowest energy point so far.  Saving SCF results.
 Largest change from initial coordinates is atom    1       0.024 Angstoms.
 GradGradGradGradGradGradGradGradGradGradGradGradGradGradGradGradGradGrad

 Leave Link  103 at Wed Oct 21 14:28:40 2020, MaxMem=  2684354560 cpu:               4.2 elap:               1.0
 (Enter /udrive/faculty/rpeverati/g16/g16/l202.exe)
                          Input orientation:                          
 ---------------------------------------------------------------------
 Center     Atomic      Atomic             Coordinates (Angstroms)
 Number     Number       Type             X           Y           Z
 ---------------------------------------------------------------------
      1          1           0       -0.799993    1.286329    0.000000
      2          6           0       -0.065476    0.539022    0.000000
      3          8           0        0.135137   -0.604777    0.000000
 ---------------------------------------------------------------------
                    Distance matrix (angstroms):
                    1          2          3
     1  H    0.000000
     2  C    1.047848   0.000000
     3  O    2.109681   1.161259   0.000000
 Stoichiometry    CHO(2)
 Framework group  CS[SG(CHO)]
 Deg. of freedom     3
 Full point group                 CS      NOp   2
 RotChk:  IX=0 Diff= 1.19D-01
 Largest Abelian subgroup         CS      NOp   2
 Largest concise Abelian subgroup C1      NOp   1
                         Standard orientation:                         
 ---------------------------------------------------------------------
 Center     Atomic      Atomic             Coordinates (Angstroms)
 Number     Number       Type             X           Y           Z
 ---------------------------------------------------------------------
      1          1           0       -0.554747    1.424771    0.000000
      2          6           0        0.039625    0.561807    0.000000
      3          8           0        0.039625   -0.599452    0.000000
 ---------------------------------------------------------------------
 Rotational constants (GHZ):        1842.0738299          43.6358235          42.6260789
 Leave Link  202 at Wed Oct 21 14:28:41 2020, MaxMem=  2684354560 cpu:               2.0 elap:               0.7
 (Enter /udrive/faculty/rpeverati/g16/g16/l301.exe)
 Standard basis: VSTO-6G (5D, 7F)
 Ernie: Thresh=  0.10000D-02 Tol=  0.10000D-05 Strict=F.
  NNHCO=     0 NNPyr=     0 NCTC=     0               EPep=         0.000000000
    EC=        10.442001132  ECS=         0.732523500   EG=         0.036777173
   EHC=         0.000636646  EAt=       -15.198629379  AtH=         0.450273680
 EPDDG=         0.000000000  ECC=        11.211938451 EAtT=        15.648903059
 There are     7 symmetry adapted cartesian basis functions of A'  symmetry.
 There are     2 symmetry adapted cartesian basis functions of A"  symmetry.
 There are     7 symmetry adapted basis functions of A'  symmetry.
 There are     2 symmetry adapted basis functions of A"  symmetry.
     9 basis functions,    54 primitive gaussians,     9 cartesian basis functions
     6 alpha electrons        5 beta electrons
       nuclear repulsion energy        26.8608415094 Hartrees.
 IExCor=    0 DFT=F Ex=HF Corr=None ExCW=0 ScaHFX=  1.000000
 ScaDFX=  1.000000  1.000000  1.000000  1.000000 ScalE2=  1.000000  1.000000
 IRadAn=      5 IRanWt=     -1 IRanGd=            0 ICorTp=0 IEmpDi=  4
 Integral buffers will be    131072 words long.
 Regular integral format.
 Two-electron integral symmetry is turned off.
 Leave Link  301 at Wed Oct 21 14:28:43 2020, MaxMem=  2684354560 cpu:               4.2 elap:               1.0
 (Enter /udrive/faculty/rpeverati/g16/g16/l302.exe)
 Do NDO integrals.
 NPDir=0 NMtPBC=     1 NCelOv=     1 NCel=       1 NClECP=     1 NCelD=      1
         NCelK=      1 NCelE2=     1 NClLst=     1 CellRange=     0.0.
 One-electron integrals computed using PRISM.
 NBasis=     9 RedAO= T EigKep=  1.00D+00  NBF=     7     2
 NBsUse=     9 1.00D-06 EigRej= -1.00D+00 NBFU=     7     2
 Leave Link  302 at Wed Oct 21 14:28:44 2020, MaxMem=  2684354560 cpu:               3.8 elap:               1.0
 (Enter /udrive/faculty/rpeverati/g16/g16/l303.exe)
 DipDrv:  MaxL=1.
 Leave Link  303 at Wed Oct 21 14:28:45 2020, MaxMem=  2684354560 cpu:               2.8 elap:               0.8
 (Enter /udrive/faculty/rpeverati/g16/g16/l401.exe)
 Initial guess from the checkpoint file:  "MN_50_hco_BH76_PM6_SE.chk"
 SCF N**3 symmetry information disabled.
 B after Tr=     0.000000    0.000000    0.000000
         Rot=    0.999802    0.000000    0.000000    0.019890 Ang=   2.28 deg.
 Guess basis will be translated and rotated to current coordinates.
 JPrj=0 DoOrth=T DoCkMO=T.
 Initial guess orbital symmetries:
 Alpha Orbitals:
       Occupied  (A') (A') (A') (A") (A') (A')
       Virtual   (A") (A') (A')
 Beta  Orbitals:
       Occupied  (A') (A') (A') (A") (A')
       Virtual   (A') (A") (A') (A')
 The electronic state of the initial guess is 2-A'.
 Initial guess <Sx>= 0.0000 <Sy>= 0.0000 <Sz>= 0.5000 <S**2>= 0.7521 S= 0.5010
 Leave Link  401 at Wed Oct 21 14:28:46 2020, MaxMem=  2684354560 cpu:               3.0 elap:               0.8
 (Enter /udrive/faculty/rpeverati/g16/g16/l502.exe)
 Keep J ints in memory in canonical form, NReq=859290.
 FoFCou: FMM=F IPFlag=           0 FMFlag=           0 FMFlg1=           0
         NFxFlg=           0 DoJE=F BraDBF=F KetDBF=F FulRan=T
         wScrn=  0.000000 ICntrl=       600 IOpCl=  2 I1Cent=           0 NGrid=           0
         NMat0=    1 NMatS0=     21 NMatT0=    0 NMatD0=    1 NMtDS0=    0 NMtDT0=    0
 Symmetry not used in FoFCou.
 Two-electron integral symmetry not used.
 UHF open shell SCF:
 Using DIIS extrapolation, IDIIS=  1040.
 Overlap will be assumed to be unity.
 NGot=  2684354560 LenX=  2684293973 LenY=  2684293091
 Requested convergence on RMS density matrix=1.00D-08 within 120 cycles.
 Requested convergence on MAX density matrix=1.00D-06.
 Requested convergence on             energy=1.00D-06.
 No special actions if energy rises.

 Cycle   1  Pass 1  IDiag  1:
 E=-0.301650964160771E-02
 DIIS: error= 8.41D-03 at cycle   1 NSaved=   1.
 NSaved= 1 IEnMin= 1 EnMin=-0.301650964160771E-02 IErMin= 1 ErrMin= 8.41D-03
 ErrMax= 8.41D-03  0.00D+00 EMaxC= 1.00D-01 BMatC= 2.61D-03 BMatP= 2.61D-03
 IDIUse=3 WtCom= 9.16D-01 WtEn= 8.41D-02
 Coeff-Com:  0.100D+01
 Coeff-En:   0.100D+01
 Coeff:      0.100D+01
 GapD=    2.000 DampG=2.000 DampE=1.000 DampFc=2.0000 IDamp=-1.
 RMSDP=5.23D-03 MaxDP=2.00D-02              OVMax= 0.00D+00

 Cycle   2  Pass 1  IDiag  3:
 E=-0.537882802927570E-02 Delta-E=       -0.002362318388 Rises=F Damp=F
 DIIS: error= 3.14D-03 at cycle   2 NSaved=   2.
 NSaved= 2 IEnMin= 2 EnMin=-0.537882802927570E-02 IErMin= 2 ErrMin= 3.14D-03
 ErrMax= 3.14D-03  0.00D+00 EMaxC= 1.00D-01 BMatC= 4.93D-04 BMatP= 2.61D-03
 IDIUse=3 WtCom= 9.69D-01 WtEn= 3.14D-02
 Coeff-Com: -0.634D+00 0.163D+01
 Coeff-En:   0.000D+00 0.100D+01
 Coeff:     -0.614D+00 0.161D+01
 Gap=     0.335 Goal=   None    Shift=    0.000
 Gap=     0.535 Goal=   None    Shift=    0.000
 RMSDP=4.26D-03 MaxDP=2.08D-02 DE=-2.36D-03 OVMax= 2.13D-02

 Cycle   3  Pass 1  IDiag  3:
 E=-0.610281204284391E-02 Delta-E=       -0.000723984014 Rises=F Damp=F
 DIIS: error= 1.65D-03 at cycle   3 NSaved=   3.
 NSaved= 3 IEnMin= 3 EnMin=-0.610281204284391E-02 IErMin= 3 ErrMin= 1.65D-03
 ErrMax= 1.65D-03  0.00D+00 EMaxC= 1.00D-01 BMatC= 4.54D-05 BMatP= 4.93D-04
 IDIUse=3 WtCom= 9.84D-01 WtEn= 1.65D-02
 Coeff-Com:  0.578D+00-0.163D+01 0.205D+01
 Coeff-En:   0.000D+00 0.000D+00 0.100D+01
 Coeff:      0.568D+00-0.160D+01 0.203D+01
 Gap=     0.334 Goal=   None    Shift=    0.000
 Gap=     0.534 Goal=   None    Shift=    0.000
 RMSDP=2.19D-03 MaxDP=1.30D-02 DE=-7.24D-04 OVMax= 1.33D-02

 Cycle   4  Pass 1  IDiag  3:
 E=-0.622401772810122E-02 Delta-E=       -0.000121205685 Rises=F Damp=F
 DIIS: error= 5.60D-04 at cycle   4 NSaved=   4.
 NSaved= 4 IEnMin= 4 EnMin=-0.622401772810122E-02 IErMin= 4 ErrMin= 5.60D-04
 ErrMax= 5.60D-04  0.00D+00 EMaxC= 1.00D-01 BMatC= 6.41D-06 BMatP= 4.54D-05
 IDIUse=3 WtCom= 9.94D-01 WtEn= 5.60D-03
 Coeff-Com: -0.435D+00 0.125D+01-0.189D+01 0.208D+01
 Coeff-En:   0.000D+00 0.000D+00 0.000D+00 0.100D+01
 Coeff:     -0.432D+00 0.124D+01-0.188D+01 0.208D+01
 Gap=     0.334 Goal=   None    Shift=    0.000
 Gap=     0.534 Goal=   None    Shift=    0.000
 RMSDP=1.09D-03 MaxDP=6.03D-03 DE=-1.21D-04 OVMax= 8.24D-03

 Cycle   5  Pass 1  IDiag  3:
 E=-0.624381864665580E-02 Delta-E=       -0.000019800919 Rises=F Damp=F
 DIIS: error= 9.37D-05 at cycle   5 NSaved=   5.
 NSaved= 5 IEnMin= 5 EnMin=-0.624381864665580E-02 IErMin= 5 ErrMin= 9.37D-05
 ErrMax= 9.37D-05  0.00D+00 EMaxC= 1.00D-01 BMatC= 5.68D-07 BMatP= 6.41D-06
 IDIUse=1 WtCom= 1.00D+00 WtEn= 0.00D+00
 Coeff-Com:  0.315D+00-0.902D+00 0.140D+01-0.170D+01 0.189D+01
 Coeff:      0.315D+00-0.902D+00 0.140D+01-0.170D+01 0.189D+01
 Gap=     0.334 Goal=   None    Shift=    0.000
 Gap=     0.534 Goal=   None    Shift=    0.000
 RMSDP=2.75D-04 MaxDP=9.62D-04 DE=-1.98D-05 OVMax= 2.33D-03

 Cycle   6  Pass 1  IDiag  3:
 E=-0.624549543242736E-02 Delta-E=       -0.000001676786 Rises=F Damp=F
 DIIS: error= 4.95D-05 at cycle   6 NSaved=   6.
 NSaved= 6 IEnMin= 6 EnMin=-0.624549543242736E-02 IErMin= 6 ErrMin= 4.95D-05
 ErrMax= 4.95D-05  0.00D+00 EMaxC= 1.00D-01 BMatC= 9.71D-08 BMatP= 5.68D-07
 IDIUse=1 WtCom= 1.00D+00 WtEn= 0.00D+00
 Coeff-Com: -0.220D+00 0.631D+00-0.977D+00 0.120D+01-0.168D+01 0.205D+01
 Coeff:     -0.220D+00 0.631D+00-0.977D+00 0.120D+01-0.168D+01 0.205D+01
 Gap=     0.334 Goal=   None    Shift=    0.000
 Gap=     0.534 Goal=   None    Shift=    0.000
 RMSDP=1.38D-04 MaxDP=4.96D-04 DE=-1.68D-06 OVMax= 1.07D-03

 Cycle   7  Pass 1  IDiag  3:
 E=-0.624579776144074E-02 Delta-E=       -0.000000302329 Rises=F Damp=F
 DIIS: error= 9.66D-06 at cycle   7 NSaved=   7.
 NSaved= 7 IEnMin= 7 EnMin=-0.624579776144074E-02 IErMin= 7 ErrMin= 9.66D-06
 ErrMax= 9.66D-06  0.00D+00 EMaxC= 1.00D-01 BMatC= 7.01D-09 BMatP= 9.71D-08
 IDIUse=1 WtCom= 1.00D+00 WtEn= 0.00D+00
 Coeff-Com:  0.358D-01-0.102D+00 0.151D+00-0.165D+00 0.190D+00-0.375D+00
 Coeff-Com:  0.126D+01
 Coeff:      0.358D-01-0.102D+00 0.151D+00-0.165D+00 0.190D+00-0.375D+00
 Coeff:      0.126D+01
 Gap=     0.334 Goal=   None    Shift=    0.000
 Gap=     0.534 Goal=   None    Shift=    0.000
 RMSDP=2.56D-05 MaxDP=9.96D-05 DE=-3.02D-07 OVMax= 1.64D-04

 Cycle   8  Pass 1  IDiag  3:
 E=-0.624581273764591E-02 Delta-E=       -0.000000014976 Rises=F Damp=F
 DIIS: error= 4.74D-06 at cycle   8 NSaved=   8.
 NSaved= 8 IEnMin= 8 EnMin=-0.624581273764591E-02 IErMin= 8 ErrMin= 4.74D-06
 ErrMax= 4.74D-06  0.00D+00 EMaxC= 1.00D-01 BMatC= 1.05D-09 BMatP= 7.01D-09
 IDIUse=1 WtCom= 1.00D+00 WtEn= 0.00D+00
 Coeff-Com:  0.744D-02-0.217D-01 0.370D-01-0.592D-01 0.127D+00-0.135D+00
 Coeff-Com: -0.490D+00 0.153D+01
 Coeff:      0.744D-02-0.217D-01 0.370D-01-0.592D-01 0.127D+00-0.135D+00
 Coeff:     -0.490D+00 0.153D+01
 Gap=     0.334 Goal=   None    Shift=    0.000
 Gap=     0.534 Goal=   None    Shift=    0.000
 RMSDP=9.61D-06 MaxDP=3.11D-05 DE=-1.50D-08 OVMax= 5.48D-05

 Cycle   9  Pass 1  IDiag  3:
 E=-0.624581478304620E-02 Delta-E=       -0.000000002045 Rises=F Damp=F
 DIIS: error= 1.59D-06 at cycle   9 NSaved=   9.
 NSaved= 9 IEnMin= 9 EnMin=-0.624581478304620E-02 IErMin= 9 ErrMin= 1.59D-06
 ErrMax= 1.59D-06  0.00D+00 EMaxC= 1.00D-01 BMatC= 6.27D-11 BMatP= 1.05D-09
 IDIUse=1 WtCom= 1.00D+00 WtEn= 0.00D+00
 Coeff-Com:  0.750D-03-0.196D-02 0.149D-02 0.467D-02-0.313D-01 0.375D-01
 Coeff-Com:  0.233D+00-0.842D+00 0.160D+01
 Coeff:      0.750D-03-0.196D-02 0.149D-02 0.467D-02-0.313D-01 0.375D-01
 Coeff:      0.233D+00-0.842D+00 0.160D+01
 Gap=     0.334 Goal=   None    Shift=    0.000
 Gap=     0.534 Goal=   None    Shift=    0.000
 RMSDP=2.06D-06 MaxDP=1.08D-05 DE=-2.05D-09 OVMax= 1.03D-05

 Cycle  10  Pass 1  IDiag  3:
 E=-0.624581489368126E-02 Delta-E=       -0.000000000111 Rises=F Damp=F
 DIIS: error= 5.12D-07 at cycle  10 NSaved=  10.
 NSaved=10 IEnMin=10 EnMin=-0.624581489368126E-02 IErMin=10 ErrMin= 5.12D-07
 ErrMax= 5.12D-07  0.00D+00 EMaxC= 1.00D-01 BMatC= 6.00D-12 BMatP= 6.27D-11
 IDIUse=1 WtCom= 1.00D+00 WtEn= 0.00D+00
 Coeff-Com: -0.212D-03 0.432D-03 0.760D-03-0.696D-02 0.328D-01-0.404D-01
 Coeff-Com: -0.207D+00 0.787D+00-0.163D+01 0.206D+01
 Coeff:     -0.212D-03 0.432D-03 0.760D-03-0.696D-02 0.328D-01-0.404D-01
 Coeff:     -0.207D+00 0.787D+00-0.163D+01 0.206D+01
 Gap=     0.334 Goal=   None    Shift=    0.000
 Gap=     0.534 Goal=   None    Shift=    0.000
 RMSDP=6.55D-07 MaxDP=3.51D-06 DE=-1.11D-10 OVMax= 3.88D-06

 Cycle  11  Pass 1  IDiag  3:
 E=-0.624581490668774E-02 Delta-E=       -0.000000000013 Rises=F Damp=F
 DIIS: error= 2.43D-07 at cycle  11 NSaved=  11.
 NSaved=11 IEnMin=11 EnMin=-0.624581490668774E-02 IErMin=11 ErrMin= 2.43D-07
 ErrMax= 2.43D-07  0.00D+00 EMaxC= 1.00D-01 BMatC= 1.02D-12 BMatP= 6.00D-12
 IDIUse=1 WtCom= 1.00D+00 WtEn= 0.00D+00
 Coeff-Com:  0.982D-04-0.628D-04-0.166D-02 0.945D-02-0.417D-01 0.510D-01
 Coeff-Com:  0.256D+00-0.975D+00 0.204D+01-0.290D+01 0.257D+01
 Coeff:      0.982D-04-0.628D-04-0.166D-02 0.945D-02-0.417D-01 0.510D-01
 Coeff:      0.256D+00-0.975D+00 0.204D+01-0.290D+01 0.257D+01
 Gap=     0.334 Goal=   None    Shift=    0.000
 Gap=     0.534 Goal=   None    Shift=    0.000
 RMSDP=4.17D-07 MaxDP=2.30D-06 DE=-1.30D-11 OVMax= 2.50D-06

 Cycle  12  Pass 1  IDiag  3:
 E=-0.624581490969334E-02 Delta-E=       -0.000000000003 Rises=F Damp=F
 DIIS: error= 5.04D-08 at cycle  12 NSaved=  12.
 NSaved=12 IEnMin=12 EnMin=-0.624581490969334E-02 IErMin=12 ErrMin= 5.04D-08
 ErrMax= 5.04D-08  0.00D+00 EMaxC= 1.00D-01 BMatC= 4.80D-14 BMatP= 1.02D-12
 IDIUse=1 WtCom= 1.00D+00 WtEn= 0.00D+00
 Coeff-Com:  0.571D-04-0.312D-03 0.168D-02-0.711D-02 0.293D-01-0.357D-01
 Coeff-Com: -0.174D+00 0.666D+00-0.139D+01 0.199D+01-0.191D+01 0.183D+01
 Coeff:      0.571D-04-0.312D-03 0.168D-02-0.711D-02 0.293D-01-0.357D-01
 Coeff:     -0.174D+00 0.666D+00-0.139D+01 0.199D+01-0.191D+01 0.183D+01
 Gap=     0.334 Goal=   None    Shift=    0.000
 Gap=     0.534 Goal=   None    Shift=    0.000
 RMSDP=8.34D-08 MaxDP=4.66D-07 DE=-3.01D-12 OVMax= 5.16D-07

 Cycle  13  Pass 1  IDiag  3:
 E=-0.624581490978571E-02 Delta-E=       -0.000000000000 Rises=F Damp=F
 DIIS: error= 7.60D-09 at cycle  13 NSaved=  13.
 NSaved=13 IEnMin=13 EnMin=-0.624581490978571E-02 IErMin=13 ErrMin= 7.60D-09
 ErrMax= 7.60D-09  0.00D+00 EMaxC= 1.00D-01 BMatC= 1.95D-15 BMatP= 4.80D-14
 IDIUse=1 WtCom= 1.00D+00 WtEn= 0.00D+00
 Coeff-Com: -0.317D-04 0.150D-03-0.713D-03 0.289D-02-0.118D-01 0.143D-01
 Coeff-Com:  0.697D-01-0.267D+00 0.556D+00-0.799D+00 0.779D+00-0.914D+00
 Coeff-Com:  0.157D+01
 Coeff:     -0.317D-04 0.150D-03-0.713D-03 0.289D-02-0.118D-01 0.143D-01
 Coeff:      0.697D-01-0.267D+00 0.556D+00-0.799D+00 0.779D+00-0.914D+00
 Coeff:      0.157D+01
 Gap=     0.334 Goal=   None    Shift=    0.000
 Gap=     0.534 Goal=   None    Shift=    0.000
 RMSDP=1.36D-08 MaxDP=7.37D-08 DE=-9.24D-14 OVMax= 8.16D-08

 Cycle  14  Pass 1  IDiag  3:
 E=-0.624581490979992E-02 Delta-E=       -0.000000000000 Rises=F Damp=F
 DIIS: error= 1.36D-09 at cycle  14 NSaved=  14.
 NSaved=14 IEnMin=14 EnMin=-0.624581490979992E-02 IErMin=14 ErrMin= 1.36D-09
 ErrMax= 1.36D-09  0.00D+00 EMaxC= 1.00D-01 BMatC= 1.10D-16 BMatP= 1.95D-15
 IDIUse=1 WtCom= 1.00D+00 WtEn= 0.00D+00
 Coeff-Com:  0.227D-05-0.167D-04 0.109D-03-0.481D-03 0.200D-02-0.242D-02
 Coeff-Com: -0.121D-01 0.460D-01-0.956D-01 0.138D+00-0.139D+00 0.216D+00
 Coeff-Com: -0.609D+00 0.146D+01
 Coeff:      0.227D-05-0.167D-04 0.109D-03-0.481D-03 0.200D-02-0.242D-02
 Coeff:     -0.121D-01 0.460D-01-0.956D-01 0.138D+00-0.139D+00 0.216D+00
 Coeff:     -0.609D+00 0.146D+01
 Gap=     0.334 Goal=   None    Shift=    0.000
 Gap=     0.534 Goal=   None    Shift=    0.000
 RMSDP=2.27D-09 MaxDP=7.61D-09 DE=-1.42D-14 OVMax= 1.03D-08

 Cycle  15  Pass 2  IDiag  1:
 SCF Done:  E(UPM6) = -0.624581490980E-02 A.U. after   15 cycles
            NFock= 14  Conv=0.23D-08     -V/T= 0.9998
 <Sx>= 0.0000 <Sy>= 0.0000 <Sz>= 0.5000 <S**2>= 0.7518 S= 0.5009
 <L.S>= 0.000000000000E+00
 KE=-2.574375127172D+01 PE=-2.019083444575D+01 EE= 1.906749839316D+01
 Annihilation of the first spin contaminant:
 S**2 before annihilation     0.7518,   after     0.7500
 Leave Link  502 at Wed Oct 21 14:28:48 2020, MaxMem=  2684354560 cpu:              10.7 elap:               1.6
 (Enter /udrive/faculty/rpeverati/g16/g16/l508.exe)
 QCSCF skips out because SCF is already converged.
 Leave Link  508 at Wed Oct 21 14:28:49 2020, MaxMem=  2684354560 cpu:               0.5 elap:               0.6
 (Enter /udrive/faculty/rpeverati/g16/g16/l701.exe)
 ... and contract with generalized density number  0.
 Compute integral first derivatives.
 Leave Link  701 at Wed Oct 21 14:28:51 2020, MaxMem=  2684354560 cpu:               4.1 elap:               0.9
 (Enter /udrive/faculty/rpeverati/g16/g16/l702.exe)
 L702 exits ... SP integral derivatives will be done elsewhere.
 Leave Link  702 at Wed Oct 21 14:28:52 2020, MaxMem=  2684354560 cpu:               2.1 elap:               0.8
 (Enter /udrive/faculty/rpeverati/g16/g16/l703.exe)
 Integral derivatives from FoFJK, PRISM(SPDF).
 Compute integral first derivatives, UseDBF=F ICtDFT=           0.
 Calling FoFJK, ICntrl=      2127 FMM=F ISym2X=1 I1Cent= 0 IOpClX= 1 NMat=1 NMatS=1 NMatT=0.
 FoFJK:  IHMeth=40 ICntrl=    2127 DoSepK=F KAlg= 0 I1Cent=           0 FoldK=F
 IRaf=         0 NMat=       1 IRICut=       1 DoRegI=T DoRafI=F ISym2E= 1 IDoP0=3 IntGTp=3.
 FoFCou: FMM=F IPFlag=           0 FMFlag=      100000 FMFlg1=         800
         NFxFlg=           0 DoJE=F BraDBF=F KetDBF=F FulRan=T
         wScrn=  0.000000 ICntrl=      2127 IOpCl=  1 I1Cent=           0 NGrid=           0
         NMat0=    1 NMatS0=      1 NMatT0=    0 NMatD0=    1 NMtDS0=    0 NMtDT0=    0
 Petite list used in FoFCou.
 Leave Link  703 at Wed Oct 21 14:28:53 2020, MaxMem=  2684354560 cpu:               2.8 elap:               0.9
 (Enter /udrive/faculty/rpeverati/g16/g16/l716.exe)
 Dipole        =-4.34086449D-01 5.92309377D-01 4.82654315D-16
 ***** Axes restored to original set *****
 -------------------------------------------------------------------
 Center     Atomic                   Forces (Hartrees/Bohr)
 Number     Number              X              Y              Z
 -------------------------------------------------------------------
      1        1          -0.000719891    0.001543889   -0.000000000
      2        6          -0.000369075    0.001693806    0.000000000
      3        8           0.001088966   -0.003237695    0.000000000
 -------------------------------------------------------------------
 Cartesian Forces:  Max     0.003237695 RMS     0.001397440
 Leave Link  716 at Wed Oct 21 14:28:54 2020, MaxMem=  2684354560 cpu:               1.7 elap:               0.7
 (Enter /udrive/faculty/rpeverati/g16/g16/l103.exe)

 GradGradGradGradGradGradGradGradGradGradGradGradGradGradGradGradGradGrad
 Berny optimization.
 Optmz: redundant internal coordinate code flag= 1
 Using GEDIIS/GDIIS optimizer.
 Red2BG:  D1=  8.63D-01 OD1=  1.01D-01 B2RMS=  0.00D+00 IAprox=0
 FormGI is forming the generalized inverse of G from B-inverse, IUseBI=4.
 Internal  Forces:  Max     0.003377141 RMS     0.002254773
 Search for a local minimum.
 Step number   3 out of a maximum of  100
 All quantities printed in internal units (Hartrees-Bohrs-Radians)
 RMS Force = .22548D-02 SwitMx=.10000D-02 MixMth= 1
 Mixed Optimization -- RFO/linear search
 Update second derivatives using D2CorX and points    1    2    3
 DE= -1.58D-03 DEPred=-1.37D-03 R= 1.15D+00
 TightC=F SS=  1.41D+00  RLast= 1.90D-01 DXNew= 8.4853D-01 5.6859D-01
 Trust test= 1.15D+00 RLast= 1.90D-01 DXMaxT set to 5.69D-01
 The second derivative matrix:
                          R1        R2        A1
           R1           0.29352
           R2          -0.01273   1.17296
           A1           0.05132   0.03085   0.09258
 ITU=  1  1  0
 Use linear search instead of GDIIS.
 Eigenvectors of the second derivative matrix:
                           1         2         3
     Eigenvalues --     0.07924   0.30583   1.17398
   1         R1        -0.23449   0.97203   0.01283
   2         R2        -0.03014   0.00592  -0.99953
   3         A1         0.97165   0.23477  -0.02791
 Iter=   1 RLamda= 0.00000000D+00 Sum=-2.56969071D-05.
 Iter=   2 RLamda=-2.56969071D-05 Sum=-2.56945138D-05.
 RFO step:  Lambda=-2.56969071D-05 EMin= 7.92428042D-02
 Quartic linear search produced a step of  0.00614.
 Iteration  1 RMS(Cart)=  0.00622505 RMS(Int)=  0.00001999
 Iteration  2 RMS(Cart)=  0.00001662 RMS(Int)=  0.00000000
 Iteration  3 RMS(Cart)=  0.00000000 RMS(Int)=  0.00000000
 ITry= 1 IFail=0 DXMaxC= 6.85D-03 DCOld= 1.00D+10 DXMaxT= 5.69D-01 DXLimC= 3.00D+00 Rises=F
 ClnCor:  largest displacement from symmetrization is 4.97D-16 for atom     1.
 Variable       Old X    -DE/DX   Delta X   Delta X   Delta X     New X
                                 (Linear)    (Quad)   (Total)
    R1        1.98014   0.00161  -0.00047   0.00444   0.00397   1.98412
    R2        2.19446   0.00338  -0.00010   0.00278   0.00268   2.19714
    A1        2.53845   0.00113   0.00106   0.00811   0.00917   2.54762
         Item               Value     Threshold  Converged?
 Maximum Force            0.003377     0.000450     NO 
 RMS     Force            0.002255     0.000300     NO 
 Maximum Displacement     0.006850     0.001800     NO 
 RMS     Displacement     0.006221     0.001200     NO 
 Predicted change in Energy=-1.284502D-05
 Lowest energy point so far.  Saving SCF results.
 Largest change from initial coordinates is atom    1       0.022 Angstoms.
 GradGradGradGradGradGradGradGradGradGradGradGradGradGradGradGradGradGrad

 Leave Link  103 at Wed Oct 21 14:28:56 2020, MaxMem=  2684354560 cpu:               4.2 elap:               1.0
 (Enter /udrive/faculty/rpeverati/g16/g16/l202.exe)
                          Input orientation:                          
 ---------------------------------------------------------------------
 Center     Atomic      Atomic             Coordinates (Angstroms)
 Number     Number       Type             X           Y           Z
 ---------------------------------------------------------------------
      1          1           0       -0.800152    1.289955    0.000000
      2          6           0       -0.067909    0.537483    0.000000
      3          8           0        0.137728   -0.606864    0.000000
 ---------------------------------------------------------------------
                    Distance matrix (angstroms):
                    1          2          3
     1  H    0.000000
     2  C    1.049949   0.000000
     3  O    2.116020   1.162677   0.000000
 Stoichiometry    CHO(2)
 Framework group  CS[SG(CHO)]
 Deg. of freedom     3
 Full point group                 CS      NOp   2
 RotChk:  IX=0 Diff= 5.90D-03
 Largest Abelian subgroup         CS      NOp   2
 Largest concise Abelian subgroup C1      NOp   1
                         Standard orientation:                         
 ---------------------------------------------------------------------
 Center     Atomic      Atomic             Coordinates (Angstroms)
 Number     Number       Type             X           Y           Z
 ---------------------------------------------------------------------
      1          1           0       -0.548439    1.432203    0.000000
      2          6           0        0.039174    0.562087    0.000000
      3          8           0        0.039174   -0.600590    0.000000
 ---------------------------------------------------------------------
 Rotational constants (GHZ):        1887.4247975          43.4664412          42.4879648
 Leave Link  202 at Wed Oct 21 14:28:57 2020, MaxMem=  2684354560 cpu:               2.2 elap:               0.8
 (Enter /udrive/faculty/rpeverati/g16/g16/l301.exe)
 Standard basis: VSTO-6G (5D, 7F)
 Ernie: Thresh=  0.10000D-02 Tol=  0.10000D-05 Strict=F.
  NNHCO=     0 NNPyr=     0 NCTC=     0               EPep=         0.000000000
    EC=        10.432840644  ECS=         0.728854128   EG=         0.036754750
   EHC=         0.000626905  EAt=       -15.198629379  AtH=         0.450273680
 EPDDG=         0.000000000  ECC=        11.199076428 EAtT=        15.648903059
 There are     7 symmetry adapted cartesian basis functions of A'  symmetry.
 There are     2 symmetry adapted cartesian basis functions of A"  symmetry.
 There are     7 symmetry adapted basis functions of A'  symmetry.
 There are     2 symmetry adapted basis functions of A"  symmetry.
     9 basis functions,    54 primitive gaussians,     9 cartesian basis functions
     6 alpha electrons        5 beta electrons
       nuclear repulsion energy        26.8479794864 Hartrees.
 IExCor=    0 DFT=F Ex=HF Corr=None ExCW=0 ScaHFX=  1.000000
 ScaDFX=  1.000000  1.000000  1.000000  1.000000 ScalE2=  1.000000  1.000000
 IRadAn=      5 IRanWt=     -1 IRanGd=            0 ICorTp=0 IEmpDi=  4
 Integral buffers will be    131072 words long.
 Regular integral format.
 Two-electron integral symmetry is turned off.
 Leave Link  301 at Wed Oct 21 14:28:58 2020, MaxMem=  2684354560 cpu:               5.0 elap:               1.0
 (Enter /udrive/faculty/rpeverati/g16/g16/l302.exe)
 Do NDO integrals.
 NPDir=0 NMtPBC=     1 NCelOv=     1 NCel=       1 NClECP=     1 NCelD=      1
         NCelK=      1 NCelE2=     1 NClLst=     1 CellRange=     0.0.
 One-electron integrals computed using PRISM.
 NBasis=     9 RedAO= T EigKep=  1.00D+00  NBF=     7     2
 NBsUse=     9 1.00D-06 EigRej= -1.00D+00 NBFU=     7     2
 Leave Link  302 at Wed Oct 21 14:28:59 2020, MaxMem=  2684354560 cpu:               4.1 elap:               0.9
 (Enter /udrive/faculty/rpeverati/g16/g16/l303.exe)
 DipDrv:  MaxL=1.
 Leave Link  303 at Wed Oct 21 14:29:01 2020, MaxMem=  2684354560 cpu:               2.7 elap:               0.8
 (Enter /udrive/faculty/rpeverati/g16/g16/l401.exe)
 Initial guess from the checkpoint file:  "MN_50_hco_BH76_PM6_SE.chk"
 SCF N**3 symmetry information disabled.
 B after Tr=    -0.000000    0.000000    0.000000
         Rot=    1.000000    0.000000    0.000000    0.000984 Ang=   0.11 deg.
 Guess basis will be translated and rotated to current coordinates.
 JPrj=0 DoOrth=T DoCkMO=T.
 Initial guess orbital symmetries:
 Alpha Orbitals:
       Occupied  (A') (A') (A') (A") (A') (A')
       Virtual   (A") (A') (A')
 Beta  Orbitals:
       Occupied  (A') (A') (A') (A") (A')
       Virtual   (A") (A') (A') (A')
[...]
         wScrn=  0.000000 ICntrl=       600 IOpCl=  2 I1Cent=           0 NGrid=           0
         NMat0=    1 NMatS0=     21 NMatT0=    0 NMatD0=    1 NMtDS0=    0 NMtDT0=    0
 Symmetry not used in FoFCou.
 Two-electron integral symmetry not used.
 UHF open shell SCF:
 Using DIIS extrapolation, IDIIS=  1040.
 Overlap will be assumed to be unity.
 NGot=  2684354560 LenX=  2684293973 LenY=  2684293091
 Requested convergence on RMS density matrix=1.00D-08 within 120 cycles.
 Requested convergence on MAX density matrix=1.00D-06.
 Requested convergence on             energy=1.00D-06.
 No special actions if energy rises.

 Cycle   1  Pass 1  IDiag  1:
 E=-0.625983922531148E-02
 DIIS: error= 1.59D-04 at cycle   1 NSaved=   1.
 NSaved= 1 IEnMin= 1 EnMin=-0.625983922531148E-02 IErMin= 1 ErrMin= 1.59D-04
 ErrMax= 1.59D-04  0.00D+00 EMaxC= 1.00D-01 BMatC= 8.47D-07 BMatP= 8.47D-07
 IDIUse=3 WtCom= 9.98D-01 WtEn= 1.59D-03
 Coeff-Com:  0.100D+01
 Coeff-En:   0.100D+01
 Coeff:      0.100D+01
 RMSDP=9.53D-05 MaxDP=3.98D-04              OVMax= 0.00D+00

 Cycle   2  Pass 1  IDiag  3:
 E=-0.626061616579321E-02 Delta-E=       -0.000000776940 Rises=F Damp=F
 DIIS: error= 5.89D-05 at cycle   2 NSaved=   2.
 NSaved= 2 IEnMin= 2 EnMin=-0.626061616579321E-02 IErMin= 2 ErrMin= 5.89D-05
 ErrMax= 5.89D-05  0.00D+00 EMaxC= 1.00D-01 BMatC= 1.61D-07 BMatP= 8.47D-07
 IDIUse=1 WtCom= 1.00D+00 WtEn= 0.00D+00
 Coeff-Com: -0.652D+00 0.165D+01
 Coeff:     -0.652D+00 0.165D+01
 Gap=     0.333 Goal=   None    Shift=    0.000
 Gap=     0.533 Goal=   None    Shift=    0.000
 RMSDP=7.84D-05 MaxDP=3.57D-04 DE=-7.77D-07 OVMax= 3.85D-04

 Cycle   3  Pass 1  IDiag  3:
 E=-0.626085144063993E-02 Delta-E=       -0.000000235275 Rises=F Damp=F
 DIIS: error= 2.68D-05 at cycle   3 NSaved=   3.
 NSaved= 3 IEnMin= 3 EnMin=-0.626085144063993E-02 IErMin= 3 ErrMin= 2.68D-05
 ErrMax= 2.68D-05  0.00D+00 EMaxC= 1.00D-01 BMatC= 1.30D-08 BMatP= 1.61D-07
 IDIUse=1 WtCom= 1.00D+00 WtEn= 0.00D+00
 Coeff-Com:  0.643D+00-0.173D+01 0.209D+01
 Coeff:      0.643D+00-0.173D+01 0.209D+01
 Gap=     0.333 Goal=   None    Shift=    0.000
 Gap=     0.533 Goal=   None    Shift=    0.000
 RMSDP=3.74D-05 MaxDP=2.13D-04 DE=-2.35D-07 OVMax= 2.24D-04

 Cycle   4  Pass 1  IDiag  3:
 E=-0.626088605090658E-02 Delta-E=       -0.000000034610 Rises=F Damp=F
 DIIS: error= 9.22D-06 at cycle   4 NSaved=   4.
 NSaved= 4 IEnMin= 4 EnMin=-0.626088605090658E-02 IErMin= 4 ErrMin= 9.22D-06
 ErrMax= 9.22D-06  0.00D+00 EMaxC= 1.00D-01 BMatC= 1.75D-09 BMatP= 1.30D-08
 IDIUse=1 WtCom= 1.00D+00 WtEn= 0.00D+00
 Coeff-Com: -0.567D+00 0.154D+01-0.216D+01 0.218D+01
 Coeff:     -0.567D+00 0.154D+01-0.216D+01 0.218D+01
 Gap=     0.333 Goal=   None    Shift=    0.000
 Gap=     0.533 Goal=   None    Shift=    0.000
 RMSDP=1.88D-05 MaxDP=1.01D-04 DE=-3.46D-08 OVMax= 1.44D-04

 Cycle   5  Pass 1  IDiag  3:
 E=-0.626089167537813E-02 Delta-E=       -0.000000005624 Rises=F Damp=F
 DIIS: error= 1.68D-06 at cycle   5 NSaved=   5.
 NSaved= 5 IEnMin= 5 EnMin=-0.626089167537813E-02 IErMin= 5 ErrMin= 1.68D-06
 ErrMax= 1.68D-06  0.00D+00 EMaxC= 1.00D-01 BMatC= 1.51D-10 BMatP= 1.75D-09
 IDIUse=1 WtCom= 1.00D+00 WtEn= 0.00D+00
 Coeff-Com:  0.504D+00-0.137D+01 0.193D+01-0.210D+01 0.203D+01
 Coeff:      0.504D+00-0.137D+01 0.193D+01-0.210D+01 0.203D+01
 Gap=     0.333 Goal=   None    Shift=    0.000
 Gap=     0.533 Goal=   None    Shift=    0.000
 RMSDP=4.74D-06 MaxDP=1.61D-05 DE=-5.62D-09 OVMax= 3.98D-05

 Cycle   6  Pass 1  IDiag  3:
 E=-0.626089213519876E-02 Delta-E=       -0.000000000460 Rises=F Damp=F
 DIIS: error= 7.23D-07 at cycle   6 NSaved=   6.
 NSaved= 6 IEnMin= 6 EnMin=-0.626089213519876E-02 IErMin= 6 ErrMin= 7.23D-07
 ErrMax= 7.23D-07  0.00D+00 EMaxC= 1.00D-01 BMatC= 1.99D-11 BMatP= 1.51D-10
 IDIUse=1 WtCom= 1.00D+00 WtEn= 0.00D+00
 Coeff-Com: -0.183D+00 0.497D+00-0.711D+00 0.807D+00-0.116D+01 0.175D+01
 Coeff:     -0.183D+00 0.497D+00-0.711D+00 0.807D+00-0.116D+01 0.175D+01
 Gap=     0.333 Goal=   None    Shift=    0.000
 Gap=     0.533 Goal=   None    Shift=    0.000
 RMSDP=1.97D-06 MaxDP=7.24D-06 DE=-4.60D-10 OVMax= 1.55D-05

 Cycle   7  Pass 1  IDiag  3:
 E=-0.626089219630899E-02 Delta-E=       -0.000000000061 Rises=F Damp=F
 DIIS: error= 1.49D-07 at cycle   7 NSaved=   7.
 NSaved= 7 IEnMin= 7 EnMin=-0.626089219630899E-02 IErMin= 7 ErrMin= 1.49D-07
 ErrMax= 1.49D-07  0.00D+00 EMaxC= 1.00D-01 BMatC= 1.46D-12 BMatP= 1.99D-11
 IDIUse=1 WtCom= 1.00D+00 WtEn= 0.00D+00
 Coeff-Com:  0.762D-01-0.207D+00 0.298D+00-0.346D+00 0.583D+00-0.114D+01
 Coeff-Com:  0.174D+01
 Coeff:      0.762D-01-0.207D+00 0.298D+00-0.346D+00 0.583D+00-0.114D+01
 Coeff:      0.174D+01
 Gap=     0.333 Goal=   None    Shift=    0.000
 Gap=     0.533 Goal=   None    Shift=    0.000
 RMSDP=4.16D-07 MaxDP=1.56D-06 DE=-6.11D-11 OVMax= 2.67D-06

 Cycle   8  Pass 1  IDiag  3:
 E=-0.626089219965209E-02 Delta-E=       -0.000000000003 Rises=F Damp=F
 DIIS: error= 5.42D-08 at cycle   8 NSaved=   8.
 NSaved= 8 IEnMin= 8 EnMin=-0.626089219965209E-02 IErMin= 8 ErrMin= 5.42D-08
 ErrMax= 5.42D-08  0.00D+00 EMaxC= 1.00D-01 BMatC= 8.76D-14 BMatP= 1.46D-12
 IDIUse=1 WtCom= 1.00D+00 WtEn= 0.00D+00
 Coeff-Com: -0.301D-01 0.821D-01-0.118D+00 0.138D+00-0.245D+00 0.516D+00
 Coeff-Com: -0.993D+00 0.165D+01
 Coeff:     -0.301D-01 0.821D-01-0.118D+00 0.138D+00-0.245D+00 0.516D+00
 Coeff:     -0.993D+00 0.165D+01
 Gap=     0.333 Goal=   None    Shift=    0.000
 Gap=     0.533 Goal=   None    Shift=    0.000
 RMSDP=8.95D-08 MaxDP=3.59D-07 DE=-3.34D-12 OVMax= 4.37D-07

 Cycle   9  Pass 1  IDiag  3:
 E=-0.626089219980841E-02 Delta-E=       -0.000000000000 Rises=F Damp=F
 DIIS: error= 1.36D-08 at cycle   9 NSaved=   9.
 NSaved= 9 IEnMin= 9 EnMin=-0.626089219980841E-02 IErMin= 9 ErrMin= 1.36D-08
 ErrMax= 1.36D-08  0.00D+00 EMaxC= 1.00D-01 BMatC= 5.08D-15 BMatP= 8.76D-14
 IDIUse=1 WtCom= 1.00D+00 WtEn= 0.00D+00
 Coeff-Com:  0.225D-01-0.612D-01 0.885D-01-0.104D+00 0.185D+00-0.391D+00
 Coeff-Com:  0.768D+00-0.137D+01 0.187D+01
 Coeff:      0.225D-01-0.612D-01 0.885D-01-0.104D+00 0.185D+00-0.391D+00
 Coeff:      0.768D+00-0.137D+01 0.187D+01
 Gap=     0.333 Goal=   None    Shift=    0.000
 Gap=     0.533 Goal=   None    Shift=    0.000
 RMSDP=1.76D-08 MaxDP=9.37D-08 DE=-1.56D-13 OVMax= 9.45D-08

 Cycle  10  Pass 1  IDiag  3:
 E=-0.626089219982617E-02 Delta-E=       -0.000000000000 Rises=F Damp=F
 DIIS: error= 6.21D-09 at cycle  10 NSaved=  10.
 NSaved=10 IEnMin=10 EnMin=-0.626089219982617E-02 IErMin=10 ErrMin= 6.21D-09
 ErrMax= 6.21D-09  0.00D+00 EMaxC= 1.00D-01 BMatC= 8.63D-16 BMatP= 5.08D-15
 IDIUse=1 WtCom= 1.00D+00 WtEn= 0.00D+00
 Coeff-Com: -0.321D-01 0.873D-01-0.126D+00 0.148D+00-0.267D+00 0.570D+00
 Coeff-Com: -0.114D+01 0.207D+01-0.306D+01 0.275D+01
 Coeff:     -0.321D-01 0.873D-01-0.126D+00 0.148D+00-0.267D+00 0.570D+00
 Coeff:     -0.114D+01 0.207D+01-0.306D+01 0.275D+01
 Gap=     0.333 Goal=   None    Shift=    0.000
 Gap=     0.533 Goal=   None    Shift=    0.000
 RMSDP=1.14D-08 MaxDP=6.00D-08 DE=-1.78D-14 OVMax= 6.64D-08

 Cycle  11  Pass 1  IDiag  3:
 E=-0.626089219981907E-02 Delta-E=        0.000000000000 Rises=F Damp=F
 DIIS: error= 1.75D-09 at cycle  11 NSaved=  11.
 NSaved=11 IEnMin=10 EnMin=-0.626089219982617E-02 IErMin=11 ErrMin= 1.75D-09
 ErrMax= 1.75D-09  0.00D+00 EMaxC= 1.00D-01 BMatC= 5.83D-17 BMatP= 8.63D-16
 IDIUse=1 WtCom= 1.00D+00 WtEn= 0.00D+00
 Coeff-Com:  0.182D-01-0.497D-01 0.719D-01-0.845D-01 0.154D+00-0.333D+00
 Coeff-Com:  0.670D+00-0.123D+01 0.184D+01-0.185D+01 0.179D+01
 Coeff:      0.182D-01-0.497D-01 0.719D-01-0.845D-01 0.154D+00-0.333D+00
 Coeff:      0.670D+00-0.123D+01 0.184D+01-0.185D+01 0.179D+01
 Gap=     0.333 Goal=   None    Shift=    0.000
 Gap=     0.533 Goal=   None    Shift=    0.000
 RMSDP=2.86D-09 MaxDP=1.67D-08 DE= 7.11D-15 OVMax= 1.82D-08

 Cycle  12  Pass 2  IDiag  1:
 SCF Done:  E(UPM6) = -0.626089219982E-02 A.U. after   12 cycles
            NFock= 11  Conv=0.29D-08     -V/T= 0.9998
 <Sx>= 0.0000 <Sy>= 0.0000 <Sz>= 0.5000 <S**2>= 0.7518 S= 0.5009
 <L.S>= 0.000000000000E+00
 KE=-2.574180175541D+01 PE=-2.017306697736D+01 EE= 1.906151632199D+01
 Annihilation of the first spin contaminant:
 S**2 before annihilation     0.7518,   after     0.7500
 Leave Link  502 at Wed Oct 21 14:29:18 2020, MaxMem=  2684354560 cpu:               8.8 elap:               1.4
 (Enter /udrive/faculty/rpeverati/g16/g16/l508.exe)
 QCSCF skips out because SCF is already converged.
 Leave Link  508 at Wed Oct 21 14:29:19 2020, MaxMem=  2684354560 cpu:               0.7 elap:               0.7
 (Enter /udrive/faculty/rpeverati/g16/g16/l701.exe)
 ... and contract with generalized density number  0.
 Compute integral first derivatives.
 Leave Link  701 at Wed Oct 21 14:29:21 2020, MaxMem=  2684354560 cpu:               3.3 elap:               0.9
 (Enter /udrive/faculty/rpeverati/g16/g16/l702.exe)
 L702 exits ... SP integral derivatives will be done elsewhere.
 Leave Link  702 at Wed Oct 21 14:29:22 2020, MaxMem=  2684354560 cpu:               1.9 elap:               0.8
 (Enter /udrive/faculty/rpeverati/g16/g16/l703.exe)
 Integral derivatives from FoFJK, PRISM(SPDF).
 Compute integral first derivatives, UseDBF=F ICtDFT=           0.
 Calling FoFJK, ICntrl=      2127 FMM=F ISym2X=1 I1Cent= 0 IOpClX= 1 NMat=1 NMatS=1 NMatT=0.
 FoFJK:  IHMeth=40 ICntrl=    2127 DoSepK=F KAlg= 0 I1Cent=           0 FoldK=F
 IRaf=         0 NMat=       1 IRICut=       1 DoRegI=T DoRafI=F ISym2E= 1 IDoP0=3 IntGTp=3.
 FoFCou: FMM=F IPFlag=           0 FMFlag=      100000 FMFlg1=         800
         NFxFlg=           0 DoJE=F BraDBF=F KetDBF=F FulRan=T
         wScrn=  0.000000 ICntrl=      2127 IOpCl=  1 I1Cent=           0 NGrid=           0
         NMat0=    1 NMatS0=      1 NMatT0=    0 NMatD0=    1 NMtDS0=    0 NMtDT0=    0
 Petite list used in FoFCou.
 Leave Link  703 at Wed Oct 21 14:29:23 2020, MaxMem=  2684354560 cpu:               3.2 elap:               0.9
 (Enter /udrive/faculty/rpeverati/g16/g16/l716.exe)
 Dipole        =-4.31984333D-01 5.98639326D-01 4.78235942D-16
 ***** Axes restored to original set *****
 -------------------------------------------------------------------
 Center     Atomic                   Forces (Hartrees/Bohr)
 Number     Number              X              Y              Z
 -------------------------------------------------------------------
      1        1          -0.000002271    0.000018918   -0.000000000
      2        6           0.000008499   -0.000111677    0.000000000
      3        8          -0.000006227    0.000092759    0.000000000
 -------------------------------------------------------------------
 Cartesian Forces:  Max     0.000111677 RMS     0.000048933
 Leave Link  716 at Wed Oct 21 14:29:24 2020, MaxMem=  2684354560 cpu:               2.1 elap:               0.8
 (Enter /udrive/faculty/rpeverati/g16/g16/l103.exe)

 GradGradGradGradGradGradGradGradGradGradGradGradGradGradGradGradGradGrad
 Berny optimization.
 Optmz: redundant internal coordinate code flag= 1
 Using GEDIIS/GDIIS optimizer.
 Red2BG:  D1=  8.53D-01 OD1=  1.58D-03 B2RMS=  0.00D+00 IAprox=0
 FormGI is forming the generalized inverse of G from B-inverse, IUseBI=4.
 Internal  Forces:  Max     0.000092382 RMS     0.000055643
 Search for a local minimum.
 Step number   5 out of a maximum of  100
 All quantities printed in internal units (Hartrees-Bohrs-Radians)
 RMS Force = .55643D-04 SwitMx=.10000D-02 MixMth= 2
 Mixed Optimization -- En-DIIS/RFO-DIIS
 Swapping is turned off.
 Update second derivatives using D2CorX and points    2    3    4    5
 DE= -5.22D-07 DEPred=-4.78D-07 R= 1.09D+00
 Trust test= 1.09D+00 RLast= 3.41D-03 DXMaxT set to 5.69D-01
 The second derivative matrix:
                          R1        R2        A1
           R1           0.27555
           R2           0.00359   1.26214
           A1           0.03071   0.03654   0.06824
 ITU=  0  1  1  1
 Eigenvectors of the second derivative matrix:
                           1         2         3
     Eigenvalues --     0.06272   0.27993   1.26328
   1         R1        -0.14228   0.98982  -0.00459
   2         R2        -0.02972  -0.00890  -0.99952
   3         A1         0.98938   0.14207  -0.03068
 DoSqrt=T IScMMF=    -3 MM Scaling Factor =       0.00000
 En-DIIS/RFO-DIIS/Sim-DIIS IScMMF=       -3 using points:     5    4
 Iter=   1 RLamda= 0.00000000D+00 Sum=-1.65500258D-08.
 Iter=   2 RLamda=-1.65500258D-08 Sum=-1.65500234D-08.
 RFO step:  Lambda=-1.65500258D-08.
 NNeg= 0 NGDIIS= 2 SimSw=  2.50D-01 Rises=F DC= -5.22D-07 SmlDif=  1.00D-05
 NRisDI= 0 DoIntr=F SqrtH=F CThrHd= 10.0 CDAdj=  3.0
 RMS Error=  0.2215152459D-03 NUsed= 2 OKEnD=F EnDIS=F
 Total RFO-DIIS matrix:
                 1             2             3 
      1   0.000000D+00 -0.100000D+01 -0.100000D+01
      2  -0.100000D+01  0.147207D-06  0.142021D-05
      3  -0.100000D+01  0.142021D-05  0.143251D-04
 InvSVX:  RCond= 2.91D-06 Info=           0 Equed=N FErr=  1.11D-15 BErr=  0.00D+00
 DidBck=F Rises=F RFO-DIIS coefs:    1.10944   -0.10944
 Iteration  1 RMS(Cart)=  0.00019332 RMS(Int)=  0.00000003
 Iteration  2 RMS(Cart)=  0.00000003 RMS(Int)=  0.00000000
 ITry= 1 IFail=0 DXMaxC= 2.11D-04 DCOld= 1.00D+10 DXMaxT= 5.69D-01 DXLimC= 3.00D+00 Rises=F
 ClnCor:  largest displacement from symmetrization is 6.28D-16 for atom     1.
 Variable       Old X    -DE/DX   Delta X   Delta X   Delta X     New X
                                 (Linear)    (Quad)   (Total)
    R1        1.98442   0.00002   0.00003  -0.00002   0.00001   1.98444
    R2        2.19716  -0.00009   0.00000  -0.00009  -0.00008   2.19708
    A1        2.55101   0.00002   0.00037   0.00000   0.00037   2.55139
         Item               Value     Threshold  Converged?
 Maximum Force            0.000092     0.000450     YES
 RMS     Force            0.000056     0.000300     YES
 Maximum Displacement     0.000211     0.001800     YES
 RMS     Displacement     0.000193     0.001200     YES
 Predicted change in Energy=-8.275013D-09
 Optimization completed.
    -- Stationary point found.
                           ----------------------------
                           !   Optimized Parameters   !
                           ! (Angstroms and Degrees)  !
 --------------------------                            --------------------------
 ! Name  Definition              Value          Derivative Info.                !
 --------------------------------------------------------------------------------
 ! R1    R(1,2)                  1.0501         -DE/DX =    0.0                 !
 ! R2    R(2,3)                  1.1627         -DE/DX =   -0.0001              !
 ! A1    A(1,2,3)              146.1624         -DE/DX =    0.0                 !
 --------------------------------------------------------------------------------
 Lowest energy point so far.  Saving SCF results.
 Largest change from initial coordinates is atom    1       0.024 Angstoms.
 GradGradGradGradGradGradGradGradGradGradGradGradGradGradGradGradGradGrad

 Leave Link  103 at Wed Oct 21 14:29:26 2020, MaxMem=  2684354560 cpu:               5.0 elap:               1.1
 (Enter /udrive/faculty/rpeverati/g16/g16/l202.exe)
                          Input orientation:                          
 ---------------------------------------------------------------------
 Center     Atomic      Atomic             Coordinates (Angstroms)
 Number     Number       Type             X           Y           Z
 ---------------------------------------------------------------------
      1          1           0       -0.799903    1.290824    0.000000
      2          6           0       -0.068928    0.536893    0.000000
      3          8           0        0.138498   -0.607144    0.000000
 ---------------------------------------------------------------------
                    Distance matrix (angstroms):
                    1          2          3
     1  H    0.000000
     2  C    1.050112   0.000000
     3  O    2.117281   1.162690   0.000000
 Stoichiometry    CHO(2)
 Framework group  CS[SG(CHO)]
 Deg. of freedom     3
 Full point group                 CS      NOp   2
 RotChk:  IX=0 Diff= 3.14D-16
 Largest Abelian subgroup         CS      NOp   2
 Largest concise Abelian subgroup C1      NOp   1
                         Standard orientation:                         
 ---------------------------------------------------------------------
 Center     Atomic      Atomic             Coordinates (Angstroms)
 Number     Number       Type             X           Y           Z
 ---------------------------------------------------------------------
      1          1           0       -0.545763    1.434195    0.000000
      2          6           0        0.038983    0.561952    0.000000
      3          8           0        0.038983   -0.600738    0.000000
 ---------------------------------------------------------------------
 Rotational constants (GHZ):        1906.9309213          43.4438696          42.4761736
 Leave Link  202 at Wed Oct 21 14:29:27 2020, MaxMem=  2684354560 cpu:               2.2 elap:               0.8
 (Enter /udrive/faculty/rpeverati/g16/g16/l601.exe)
 Copying SCF densities to generalized density rwf, IOpCl= 1 IROHF=0.

 **********************************************************************

            Population analysis using the SCF density.

 **********************************************************************

 Orbital symmetries:
 Alpha Orbitals:
       Occupied  (A') (A') (A') (A") (A') (A')
       Virtual   (A") (A') (A')
 Beta  Orbitals:
       Occupied  (A') (A') (A') (A") (A')
       Virtual   (A") (A') (A') (A')
 The electronic state is 2-A'.
 Alpha  occ. eigenvalues --   -1.24313  -0.83540  -0.61771  -0.57518  -0.55256
 Alpha  occ. eigenvalues --   -0.32333
 Alpha virt. eigenvalues --    0.01008   0.14404   0.18716
  Beta  occ. eigenvalues --   -1.20301  -0.81050  -0.57067  -0.55443  -0.50592
  Beta virt. eigenvalues --    0.02744   0.04034   0.15949   0.21138
          Condensed to atoms (all electrons):
               1          2          3
     1  H    0.844846   0.000000   0.000000
     2  C    0.000000   3.922957   0.000000
     3  O    0.000000   0.000000   6.232197
          Atomic-Atomic Spin Densities.
               1          2          3
     1  H    0.047584   0.000000   0.000000
     2  C    0.000000   0.602008   0.000000
     3  O    0.000000   0.000000   0.350409
 Mulliken charges and spin densities:
               1          2
     1  H    0.155154   0.047584
     2  C    0.077043   0.602008
     3  O   -0.232197   0.350409
 Sum of Mulliken charges =  -0.00000   1.00000
 Mulliken charges and spin densities with hydrogens summed into heavy atoms:
               1          2
     2  C    0.232197   0.649591
     3  O   -0.232197   0.350409
 Charge=              0.0000 electrons
 Dipole moment (field-independent basis, Debye):
    X=             -1.0980    Y=              1.5216    Z=              0.0000  Tot=              1.8764
 N-N= 2.684709151858D+01 E-N=-2.017306697970D+01  KE=-2.574180175541D+01
 Leave Link  601 at Wed Oct 21 14:29:28 2020, MaxMem=  2684354560 cpu:               2.8 elap:               0.8
 (Enter /udrive/faculty/rpeverati/g16/g16/l9999.exe)

 Test job not archived.
 1\1\GINC-NODE63\FOpt\UPM6\ZDO\C1H1O1(2)\RPEVERATI\21-Oct-2020\0\\#P Op
 t(MaxCyc=150) PM6 5D 7F Integral=UltraFineGrid SCF=(NoSymm,XQC,MaxCyc=
 120) IOp(1/33=1)\\TS search on BH76.\\0,2\H,-0.7999027749,1.2908242047
 ,0.\C,-0.0689278141,0.5368934323,0.\O,0.1384983034,-0.6071439414,0.\\V
 ersion=ES64L-G16RevA.03\State=2-A'\HF=-0.0062609\S2=0.751756\S2-1=0.\S
 2A=0.750002\RMSD=2.865e-09\RMSF=4.893e-05\Dipole=-0.5318527,0.5119689,
 0.\PG=CS [SG(C1H1O1)]\\@


 DEPRESSION IS WAITING FOR YOUR SHIP TO COME IN,
 AND FINDING OUT IT'S THE TITANIC.
 Job cpu time:       0 days  0 hours  3 minutes 58.9 seconds.
 Elapsed time:       0 days  0 hours  0 minutes 59.1 seconds.
 File lengths (MBytes):  RWF=      5 Int=      0 D2E=      0 Chk=      2 Scr=      1
 Normal termination of Gaussian 16 at Wed Oct 21 14:29:30 2020.
