 Entering Gaussian System, Link 0=g16
 Input=MN_58_hn2_BH76_PM6_SE.in
 Output=MN_58_hn2_BH76_PM6_SE.log
 Initial command:
 /udrive/faculty/rpeverati/g16/g16/l1.exe "/udrive/scratch-directories/gaussian09/rpeverati/Gau-15304.inp" -scrdir="/udrive/scratch-directories/gaussian09/rpeverati/"
 Entering Link 1 = /udrive/faculty/rpeverati/g16/g16/l1.exe PID=     15318.
  
 Copyright (c) 1988,1990,1992,1993,1995,1998,2003,2009,2016,
            Gaussian, Inc.  All Rights Reserved.
  
 This is part of the Gaussian(R) 16 program.  It is based on
 the Gaussian(R) 09 system (copyright 2009, Gaussian, Inc.),
 the Gaussian(R) 03 system (copyright 2003, Gaussian, Inc.),
 the Gaussian(R) 98 system (copyright 1998, Gaussian, Inc.),
 the Gaussian(R) 94 system (copyright 1995, Gaussian, Inc.),
 the Gaussian 92(TM) system (copyright 1992, Gaussian, Inc.),
 the Gaussian 90(TM) system (copyright 1990, Gaussian, Inc.),
 the Gaussian 88(TM) system (copyright 1988, Gaussian, Inc.),
 the Gaussian 86(TM) system (copyright 1986, Carnegie Mellon
 University), and the Gaussian 82(TM) system (copyright 1983,
 Carnegie Mellon University). Gaussian is a federally registered
 trademark of Gaussian, Inc.
  
 This software contains proprietary and confidential information,
 including trade secrets, belonging to Gaussian, Inc.
  
 This software is provided under written license and may be
 used, copied, transmitted, or stored only in accord with that
 written license.
  
 The following legend is applicable only to US Government
 contracts under FAR:
  
                    RESTRICTED RIGHTS LEGEND
  
 Use, reproduction and disclosure by the US Government is
 subject to restrictions as set forth in subparagraphs (a)
 and (c) of the Commercial Computer Software - Restricted
 Rights clause in FAR 52.227-19.
  
 Gaussian, Inc.
 340 Quinnipiac St., Bldg. 40, Wallingford CT 06492
  
  
 ---------------------------------------------------------------
 Warning -- This program may not be used in any manner that
 competes with the business of Gaussian, Inc. or will provide
 assistance to any competitor of Gaussian, Inc.  The licensee
 of this program is prohibited from giving any competitor of
 Gaussian, Inc. access to this program.  By using this program,
 the user acknowledges that Gaussian, Inc. is engaged in the
 business of creating and licensing software in the field of
 computational chemistry and represents and warrants to the
 licensee that it is not a competitor of Gaussian, Inc. and that
 it will not use this program in any manner prohibited above.
 ---------------------------------------------------------------
  

 Cite this work as:
 Gaussian 16, Revision A.03,
 M. J. Frisch, G. W. Trucks, H. B. Schlegel, G. E. Scuseria, 
 M. A. Robb, J. R. Cheeseman, G. Scalmani, V. Barone, 
 G. A. Petersson, H. Nakatsuji, X. Li, M. Caricato, A. V. Marenich, 
 J. Bloino, B. G. Janesko, R. Gomperts, B. Mennucci, H. P. Hratchian, 
 J. V. Ortiz, A. F. Izmaylov, J. L. Sonnenberg, D. Williams-Young, 
 F. Ding, F. Lipparini, F. Egidi, J. Goings, B. Peng, A. Petrone, 
 T. Henderson, D. Ranasinghe, V. G. Zakrzewski, J. Gao, N. Rega, 
 G. Zheng, W. Liang, M. Hada, M. Ehara, K. Toyota, R. Fukuda, 
 J. Hasegawa, M. Ishida, T. Nakajima, Y. Honda, O. Kitao, H. Nakai, 
 T. Vreven, K. Throssell, J. A. Montgomery, Jr., J. E. Peralta, 
 F. Ogliaro, M. J. Bearpark, J. J. Heyd, E. N. Brothers, K. N. Kudin, 
 V. N. Staroverov, T. A. Keith, R. Kobayashi, J. Normand, 
 K. Raghavachari, A. P. Rendell, J. C. Burant, S. S. Iyengar, 
 J. Tomasi, M. Cossi, J. M. Millam, M. Klene, C. Adamo, R. Cammi, 
 J. W. Ochterski, R. L. Martin, K. Morokuma, O. Farkas, 
 J. B. Foresman, and D. J. Fox, Gaussian, Inc., Wallingford CT, 2016.
 
 ******************************************
 Gaussian 16:  ES64L-G16RevA.03 25-Dec-2016
                21-Oct-2020 
 ******************************************
 %NoSave
 %nproc=12
 Will use up to   12 processors via shared memory.
 %mem=20GB
 %chk=MN_58_hn2_BH76_PM6_SE
 ----------------------------------------------------------------------
 #P Opt(MaxCyc=150) PM6 5D 7F Integral=UltraFineGrid SCF=(NoSymm,XQC,Ma
 xCyc=120) IOp(1/33=1)
 ----------------------------------------------------------------------
 1/6=150,18=20,19=15,26=1,33=1,38=1/1,3;
 2/9=110,12=2,17=6,18=5,40=1/2;
 3/5=2,8=11,25=1,41=3900000,71=1,75=-5/1,2,3;
 4/9=2,35=1/1;
 5/5=2,7=120,8=3,13=1,35=1,38=5/2,8;
 6/7=2,8=2,9=2,10=2,28=1/1;
 7//1,2,3,16;
 1/6=150,18=20,19=15,26=1,33=1/3(2);
 2/9=110/2;
 99//99;
 2/9=110/2;
 3/5=2,8=11,25=1,41=3900000,71=1,75=-5,135=20/1,2,3;
 4/5=5,9=2,16=3,35=1/1;
 5/5=2,7=120,8=3,13=1,35=1,38=5/2,8;
 7//1,2,3,16;
 1/6=150,18=20,19=15,26=1,33=1/3(-5);
 2/9=110/2;
 6/7=2,8=2,9=2,10=2,19=2,28=1/1;
 99/9=1/99;
 Leave Link    1 at Wed Oct 21 14:28:52 2020, MaxMem=  2684354560 cpu:               6.6 elap:               0.7
 (Enter /udrive/faculty/rpeverati/g16/g16/l101.exe)
 ONIOM data not found on unit 2.
 ------------------
 TS search on BH76.
 ------------------
 TstMul:  ICh=     0
 TstMul:  Mul=     2
 TstMul:  ICh=     0
 TstMul:  Mul=     2
 Symbolic Z-matrix:
 Charge =  0 Multiplicity = 2
 N                    -0.06244   0.65949   0. 
 N                    -0.06244  -0.51871   0. 
 H                     0.8742   -0.98548   0. 
 
 RdStrC is calling ZToCFu for IStruc=1 NZ=     3.
 PrtBox:  NBox=     1 Levels=  1 BoxLen=    8.00 SMaxX=        3.11
          Shift=            0.117998            1.862280            0.000000
 Box      1 Number                   0 centers from      1 to      3:
 After GenITR:
 ITRead=  0  0  0
 MicOpt= -1 -1 -1
 ITRead=  0  0  0
 MicOpt= -1 -1 -1
 NAtoms=      3 NQM=        3 NQMF=       0 NMMI=      0 NMMIF=      0
                NMic=       0 NMicF=      0.
                    Isotopes and Nuclear Properties:
 (Nuclear quadrupole moments (NQMom) in fm**2, nuclear magnetic moments (NMagM)
  in nuclear magnetons)

  Atom         1           2           3
 IAtWgt=          14          14           1
 AtmWgt=  14.0030740  14.0030740   1.0078250
 NucSpn=           2           2           1
 AtZEff=   0.0000000   0.0000000   0.0000000
 NQMom=    2.0440000   2.0440000   0.0000000
 NMagM=    0.4037610   0.4037610   2.7928460
 AtZNuc=   7.0000000   7.0000000   1.0000000
 No MM parameters found.
 Leave Link  101 at Wed Oct 21 14:28:53 2020, MaxMem=  2684354560 cpu:               9.7 elap:               1.0
 (Enter /udrive/faculty/rpeverati/g16/g16/l103.exe)

 GradGradGradGradGradGradGradGradGradGradGradGradGradGradGradGradGradGrad
 Berny optimization.
 Optmz: redundant internal coordinate code flag= 1
 Initialization pass.
                           ----------------------------
                           !    Initial Parameters    !
                           ! (Angstroms and Degrees)  !
 --------------------------                            --------------------------
 ! Name  Definition              Value          Derivative Info.                !
 --------------------------------------------------------------------------------
 ! R1    R(1,2)                  1.1782         estimate D2E/DX2                !
 ! R2    R(2,3)                  1.0465         estimate D2E/DX2                !
 ! A1    A(1,2,3)              116.4891         estimate D2E/DX2                !
 --------------------------------------------------------------------------------
 Maximum allowed force set to 1.00D+20.
 Trust Radius=3.00D-01 FncErr=1.00D-07 GrdErr=1.00D-07 EigMax=2.50D+02 EigMin=1.00D-04
 Number of steps in this run=    100 maximum allowed number of steps=    100.
 GradGradGradGradGradGradGradGradGradGradGradGradGradGradGradGradGradGrad

 Leave Link  103 at Wed Oct 21 14:28:54 2020, MaxMem=  2684354560 cpu:               1.8 elap:               0.8
 (Enter /udrive/faculty/rpeverati/g16/g16/l202.exe)
                          Input orientation:                          
 ---------------------------------------------------------------------
 Center     Atomic      Atomic             Coordinates (Angstroms)
 Number     Number       Type             X           Y           Z
 ---------------------------------------------------------------------
      1          7           0       -0.062442    0.659492    0.000000
      2          7           0       -0.062442   -0.518709    0.000000
      3          1           0        0.874195   -0.985476    0.000000
 ---------------------------------------------------------------------
                    Distance matrix (angstroms):
                    1          2          3
     1  N    0.000000
     2  N    1.178201   0.000000
     3  H    1.892937   1.046499   0.000000
 Stoichiometry    HN2(2)
 Framework group  CS[SG(HN2)]
 Deg. of freedom     3
 Full point group                 CS      NOp   2
 Largest Abelian subgroup         CS      NOp   2
 Largest concise Abelian subgroup C1      NOp   1
                         Standard orientation:                         
 ---------------------------------------------------------------------
 Center     Atomic      Atomic             Coordinates (Angstroms)
 Number     Number       Type             X           Y           Z
 ---------------------------------------------------------------------
      1          7           0       -0.062442    0.659492    0.000000
      2          7           0       -0.062442   -0.518710    0.000000
      3          1           0        0.874195   -0.985477    0.000000
 ---------------------------------------------------------------------
 Rotational constants (GHZ):         663.8594863          46.3822203          43.3532368
 Leave Link  202 at Wed Oct 21 14:28:55 2020, MaxMem=  2684354560 cpu:               2.3 elap:               0.8
 (Enter /udrive/faculty/rpeverati/g16/g16/l301.exe)
 Standard basis: VSTO-6G (5D, 7F)
 Ernie: Thresh=  0.10000D-02 Tol=  0.10000D-05 Strict=F.
  NNHCO=     0 NNPyr=     0 NCTC=     0               EPep=         0.000000000
    EC=        10.955745605  ECS=         0.744905837   EG=         0.000772781
   EHC=         0.000584215  EAt=       -13.272012673  AtH=         0.443183747
 EPDDG=         0.000000000  ECC=        11.702008437 EAtT=        13.715196420
 There are     7 symmetry adapted cartesian basis functions of A'  symmetry.
 There are     2 symmetry adapted cartesian basis functions of A"  symmetry.
 There are     7 symmetry adapted basis functions of A'  symmetry.
 There are     2 symmetry adapted basis functions of A"  symmetry.
     9 basis functions,    54 primitive gaussians,     9 cartesian basis functions
     6 alpha electrons        5 beta electrons
       nuclear repulsion energy        25.4172048567 Hartrees.
 IExCor=    0 DFT=F Ex=HF Corr=None ExCW=0 ScaHFX=  1.000000
 ScaDFX=  1.000000  1.000000  1.000000  1.000000 ScalE2=  1.000000  1.000000
 IRadAn=      5 IRanWt=     -1 IRanGd=            0 ICorTp=0 IEmpDi=  4
 Integral buffers will be    131072 words long.
 Regular integral format.
 Two-electron integral symmetry is turned off.
 Leave Link  301 at Wed Oct 21 14:28:56 2020, MaxMem=  2684354560 cpu:               3.1 elap:               0.9
 (Enter /udrive/faculty/rpeverati/g16/g16/l302.exe)
 Do NDO integrals.
 NPDir=0 NMtPBC=     1 NCelOv=     1 NCel=       1 NClECP=     1 NCelD=      1
         NCelK=      1 NCelE2=     1 NClLst=     1 CellRange=     0.0.
 One-electron integrals computed using PRISM.
 NBasis=     9 RedAO= T EigKep=  1.00D+00  NBF=     7     2
 NBsUse=     9 1.00D-06 EigRej= -1.00D+00 NBFU=     7     2
 Leave Link  302 at Wed Oct 21 14:28:58 2020, MaxMem=  2684354560 cpu:               4.0 elap:               1.0
 (Enter /udrive/faculty/rpeverati/g16/g16/l303.exe)
 DipDrv:  MaxL=1.
 Leave Link  303 at Wed Oct 21 14:28:59 2020, MaxMem=  2684354560 cpu:               2.9 elap:               0.8
 (Enter /udrive/faculty/rpeverati/g16/g16/l401.exe)
 SCF N**3 symmetry information disabled.
 Simple Huckel Guess.
 JPrj=0 DoOrth=F DoCkMO=F.
 Initial guess orbital symmetries:
 Alpha Orbitals:
       Occupied  (A') (A') (A') (A") (A') (A')
       Virtual   (A") (A') (A')
 Beta  Orbitals:
       Occupied  (A') (A') (A') (A") (A')
       Virtual   (A') (A") (A') (A')
 The electronic state of the initial guess is 2-A'.
 Initial guess <Sx>= 0.0000 <Sy>= 0.0000 <Sz>= 0.5000 <S**2>= 0.7500 S= 0.5000
 Leave Link  401 at Wed Oct 21 14:29:00 2020, MaxMem=  2684354560 cpu:               2.7 elap:               0.8
 (Enter /udrive/faculty/rpeverati/g16/g16/l502.exe)
 Keep J ints in memory in canonical form, NReq=859290.
 FoFCou: FMM=F IPFlag=           0 FMFlag=           0 FMFlg1=           0
         NFxFlg=           0 DoJE=F BraDBF=F KetDBF=F FulRan=T
         wScrn=  0.000000 ICntrl=       600 IOpCl=  2 I1Cent=           0 NGrid=           0
         NMat0=    1 NMatS0=     21 NMatT0=    0 NMatD0=    1 NMtDS0=    0 NMtDT0=    0
 Symmetry not used in FoFCou.
 Two-electron integral symmetry not used.
 UHF open shell SCF:
 Using DIIS extrapolation, IDIIS=  1040.
 Overlap will be assumed to be unity.
 NGot=  2684354560 LenX=  2684293973 LenY=  2684293091
 Requested convergence on RMS density matrix=1.00D-08 within 120 cycles.
 Requested convergence on MAX density matrix=1.00D-06.
 Requested convergence on             energy=1.00D-06.
 No special actions if energy rises.

 Cycle   1  Pass 1  IDiag  1:
 E= 0.248544938574959    
 DIIS: error= 5.18D-02 at cycle   1 NSaved=   1.
 NSaved= 1 IEnMin= 1 EnMin= 0.248544938574959     IErMin= 1 ErrMin= 5.18D-02
 ErrMax= 5.18D-02  0.00D+00 EMaxC= 1.00D-01 BMatC= 1.68D-01 BMatP= 1.68D-01
 IDIUse=3 WtCom= 4.82D-01 WtEn= 5.18D-01
 Coeff-Com:  0.100D+01
 Coeff-En:   0.100D+01
 Coeff:      0.100D+01
 GapD=    2.000 DampG=2.000 DampE=0.500 DampFc=1.0000 IDamp=-1.
 RMSDP=4.18D-02 MaxDP=1.48D-01              OVMax= 0.00D+00

 Cycle   2  Pass 1  IDiag  1:
 E= 0.113005380691028     Delta-E=       -0.135539557884 Rises=F Damp=F
 DIIS: error= 1.36D-02 at cycle   2 NSaved=   2.
 NSaved= 2 IEnMin= 2 EnMin= 0.113005380691028     IErMin= 2 ErrMin= 1.36D-02
 ErrMax= 1.36D-02  0.00D+00 EMaxC= 1.00D-01 BMatC= 1.28D-02 BMatP= 1.68D-01
 IDIUse=3 WtCom= 8.64D-01 WtEn= 1.36D-01
 Coeff-Com: -0.313D+00 0.131D+01
 Coeff-En:   0.000D+00 0.100D+01
 Coeff:     -0.270D+00 0.127D+01
 RMSDP=1.42D-02 MaxDP=5.22D-02 DE=-1.36D-01 OVMax= 0.00D+00

 Cycle   3  Pass 1  IDiag  3:
 E= 0.101497194641940     Delta-E=       -0.011508186049 Rises=F Damp=F
 DIIS: error= 3.02D-03 at cycle   3 NSaved=   3.
 NSaved= 3 IEnMin= 3 EnMin= 0.101497194641940     IErMin= 3 ErrMin= 3.02D-03
 ErrMax= 3.02D-03  0.00D+00 EMaxC= 1.00D-01 BMatC= 5.95D-04 BMatP= 1.28D-02
 IDIUse=3 WtCom= 9.70D-01 WtEn= 3.02D-02
 Coeff-Com:  0.849D-01-0.436D+00 0.135D+01
 Coeff-En:   0.000D+00 0.000D+00 0.100D+01
 Coeff:      0.823D-01-0.423D+00 0.134D+01
 Gap=     0.363 Goal=   None    Shift=    0.000
 Gap=     0.466 Goal=   None    Shift=    0.000
 RMSDP=4.41D-03 MaxDP=1.40D-02 DE=-1.15D-02 OVMax= 2.70D-02

 Cycle   4  Pass 1  IDiag  3:
 E= 0.100566490635956     Delta-E=       -0.000930704006 Rises=F Damp=F
 DIIS: error= 1.47D-03 at cycle   4 NSaved=   4.
 NSaved= 4 IEnMin= 4 EnMin= 0.100566490635956     IErMin= 4 ErrMin= 1.47D-03
 ErrMax= 1.47D-03  0.00D+00 EMaxC= 1.00D-01 BMatC= 1.21D-04 BMatP= 5.95D-04
 IDIUse=3 WtCom= 9.85D-01 WtEn= 1.47D-02
 Coeff-Com: -0.228D-01 0.125D+00-0.739D+00 0.164D+01
 Coeff-En:   0.000D+00 0.000D+00 0.000D+00 0.100D+01
 Coeff:     -0.225D-01 0.123D+00-0.728D+00 0.163D+01
 Gap=     0.363 Goal=   None    Shift=    0.000
 Gap=     0.467 Goal=   None    Shift=    0.000
 RMSDP=2.97D-03 MaxDP=1.13D-02 DE=-9.31D-04 OVMax= 1.87D-02

 Cycle   5  Pass 1  IDiag  3:
 E= 0.100278488706088     Delta-E=       -0.000288001930 Rises=F Damp=F
 DIIS: error= 1.04D-03 at cycle   5 NSaved=   5.
 NSaved= 5 IEnMin= 5 EnMin= 0.100278488706088     IErMin= 5 ErrMin= 1.04D-03
 ErrMax= 1.04D-03  0.00D+00 EMaxC= 1.00D-01 BMatC= 3.28D-05 BMatP= 1.21D-04
 IDIUse=3 WtCom= 9.90D-01 WtEn= 1.04D-02
 Coeff-Com:  0.134D-01-0.762D-01 0.692D+00-0.212D+01 0.249D+01
 Coeff-En:   0.000D+00 0.000D+00 0.000D+00 0.000D+00 0.100D+01
 Coeff:      0.132D-01-0.754D-01 0.685D+00-0.210D+01 0.248D+01
 Gap=     0.363 Goal=   None    Shift=    0.000
 Gap=     0.468 Goal=   None    Shift=    0.000
 RMSDP=2.46D-03 MaxDP=1.09D-02 DE=-2.88D-04 OVMax= 1.25D-02

 Cycle   6  Pass 1  IDiag  3:
 E= 0.100170004179304     Delta-E=       -0.000108484527 Rises=F Damp=F
 DIIS: error= 5.85D-04 at cycle   6 NSaved=   6.
 NSaved= 6 IEnMin= 6 EnMin= 0.100170004179304     IErMin= 6 ErrMin= 5.85D-04
 ErrMax= 5.85D-04  0.00D+00 EMaxC= 1.00D-01 BMatC= 6.21D-06 BMatP= 3.28D-05
 IDIUse=3 WtCom= 9.94D-01 WtEn= 5.85D-03
 Coeff-Com: -0.136D-01 0.752D-01-0.762D+00 0.246D+01-0.316D+01 0.241D+01
 Coeff-En:   0.000D+00 0.000D+00 0.000D+00 0.000D+00 0.000D+00 0.100D+01
 Coeff:     -0.135D-01 0.748D-01-0.757D+00 0.244D+01-0.314D+01 0.240D+01
 Gap=     0.363 Goal=   None    Shift=    0.000
 Gap=     0.468 Goal=   None    Shift=    0.000
 RMSDP=1.01D-03 MaxDP=6.31D-03 DE=-1.08D-04 OVMax= 6.31D-03

 Cycle   7  Pass 1  IDiag  3:
 E= 0.100147501557398     Delta-E=       -0.000022502622 Rises=F Damp=F
 DIIS: error= 3.02D-04 at cycle   7 NSaved=   7.
 NSaved= 7 IEnMin= 7 EnMin= 0.100147501557398     IErMin= 7 ErrMin= 3.02D-04
 ErrMax= 3.02D-04  0.00D+00 EMaxC= 1.00D-01 BMatC= 1.73D-06 BMatP= 6.21D-06
 IDIUse=3 WtCom= 9.97D-01 WtEn= 3.02D-03
 Coeff-Com:  0.109D-01-0.558D-01 0.538D+00-0.175D+01 0.229D+01-0.237D+01
 Coeff-Com:  0.233D+01
 Coeff-En:   0.000D+00 0.000D+00 0.000D+00 0.000D+00 0.000D+00 0.000D+00
 Coeff-En:   0.100D+01
 Coeff:      0.108D-01-0.556D-01 0.536D+00-0.174D+01 0.228D+01-0.236D+01
 Coeff:      0.233D+01
 Gap=     0.363 Goal=   None    Shift=    0.000
 Gap=     0.468 Goal=   None    Shift=    0.000
 RMSDP=7.62D-04 MaxDP=4.87D-03 DE=-2.25D-05 OVMax= 4.87D-03

 Cycle   8  Pass 1  IDiag  3:
 E= 0.100139923174513     Delta-E=       -0.000007578383 Rises=F Damp=F
 DIIS: error= 8.40D-05 at cycle   8 NSaved=   8.
 NSaved= 8 IEnMin= 8 EnMin= 0.100139923174513     IErMin= 8 ErrMin= 8.40D-05
 ErrMax= 8.40D-05  0.00D+00 EMaxC= 1.00D-01 BMatC= 1.98D-07 BMatP= 1.73D-06
 IDIUse=1 WtCom= 1.00D+00 WtEn= 0.00D+00
 Coeff-Com: -0.223D-02 0.912D-02-0.724D-01 0.233D+00-0.288D+00 0.361D+00
 Coeff-Com: -0.747D+00 0.151D+01
 Coeff:     -0.223D-02 0.912D-02-0.724D-01 0.233D+00-0.288D+00 0.361D+00
 Coeff:     -0.747D+00 0.151D+01
 Gap=     0.363 Goal=   None    Shift=    0.000
 Gap=     0.468 Goal=   None    Shift=    0.000
 RMSDP=2.24D-04 MaxDP=1.29D-03 DE=-7.58D-06 OVMax= 1.31D-03

 Cycle   9  Pass 1  IDiag  3:
 E= 0.100139233264816     Delta-E=       -0.000000689910 Rises=F Damp=F
 DIIS: error= 1.98D-05 at cycle   9 NSaved=   9.
 NSaved= 9 IEnMin= 9 EnMin= 0.100139233264816     IErMin= 9 ErrMin= 1.98D-05
 ErrMax= 1.98D-05  0.00D+00 EMaxC= 1.00D-01 BMatC= 2.43D-08 BMatP= 1.98D-07
 IDIUse=1 WtCom= 1.00D+00 WtEn= 0.00D+00
 Coeff-Com: -0.143D-03 0.277D-02-0.385D-01 0.125D+00-0.179D+00 0.129D+00
 Coeff-Com:  0.173D+00-0.108D+01 0.186D+01
 Coeff:     -0.143D-03 0.277D-02-0.385D-01 0.125D+00-0.179D+00 0.129D+00
 Coeff:      0.173D+00-0.108D+01 0.186D+01
 Gap=     0.363 Goal=   None    Shift=    0.000
 Gap=     0.468 Goal=   None    Shift=    0.000
 RMSDP=6.50D-05 MaxDP=3.39D-04 DE=-6.90D-07 OVMax= 3.39D-04

 Cycle  10  Pass 1  IDiag  3:
 E= 0.100139171589738     Delta-E=       -0.000000061675 Rises=F Damp=F
 DIIS: error= 3.47D-06 at cycle  10 NSaved=  10.
 NSaved=10 IEnMin=10 EnMin= 0.100139171589738     IErMin=10 ErrMin= 3.47D-06
 ErrMax= 3.47D-06  0.00D+00 EMaxC= 1.00D-01 BMatC= 7.58D-10 BMatP= 2.43D-08
 IDIUse=1 WtCom= 1.00D+00 WtEn= 0.00D+00
 Coeff-Com:  0.169D-03-0.197D-02 0.264D-01-0.865D-01 0.122D+00-0.959D-01
 Coeff-Com: -0.685D-01 0.568D+00-0.109D+01 0.162D+01
 Coeff:      0.169D-03-0.197D-02 0.264D-01-0.865D-01 0.122D+00-0.959D-01
 Coeff:     -0.685D-01 0.568D+00-0.109D+01 0.162D+01
 Gap=     0.363 Goal=   None    Shift=    0.000
 Gap=     0.468 Goal=   None    Shift=    0.000
 RMSDP=7.92D-06 MaxDP=3.55D-05 DE=-6.17D-08 OVMax= 3.95D-05

 Cycle  11  Pass 1  IDiag  3:
 E= 0.100139170180785     Delta-E=       -0.000000001409 Rises=F Damp=F
 DIIS: error= 1.39D-06 at cycle  11 NSaved=  11.
 NSaved=11 IEnMin=11 EnMin= 0.100139170180785     IErMin=11 ErrMin= 1.39D-06
 ErrMax= 1.39D-06  0.00D+00 EMaxC= 1.00D-01 BMatC= 4.72D-11 BMatP= 7.58D-10
 IDIUse=1 WtCom= 1.00D+00 WtEn= 0.00D+00
 Coeff-Com: -0.428D-04 0.941D-03-0.147D-01 0.491D-01-0.706D-01 0.546D-01
 Coeff-Com:  0.523D-01-0.378D+00 0.719D+00-0.121D+01 0.180D+01
 Coeff:     -0.428D-04 0.941D-03-0.147D-01 0.491D-01-0.706D-01 0.546D-01
 Coeff:      0.523D-01-0.378D+00 0.719D+00-0.121D+01 0.180D+01
 Gap=     0.363 Goal=   None    Shift=    0.000
 Gap=     0.468 Goal=   None    Shift=    0.000
 RMSDP=1.99D-06 MaxDP=1.03D-05 DE=-1.41D-09 OVMax= 1.18D-05

 Cycle  12  Pass 1  IDiag  3:
 E= 0.100139170094813     Delta-E=       -0.000000000086 Rises=F Damp=F
 DIIS: error= 1.46D-07 at cycle  12 NSaved=  12.
 NSaved=12 IEnMin=12 EnMin= 0.100139170094813     IErMin=12 ErrMin= 1.46D-07
 ErrMax= 1.46D-07  0.00D+00 EMaxC= 1.00D-01 BMatC= 1.13D-12 BMatP= 4.72D-11
 IDIUse=1 WtCom= 1.00D+00 WtEn= 0.00D+00
 Coeff-Com: -0.183D-05-0.550D-04 0.114D-02-0.400D-02 0.593D-02-0.465D-02
 Coeff-Com: -0.510D-02 0.351D-01-0.659D-01 0.126D+00-0.295D+00 0.121D+01
 Coeff:     -0.183D-05-0.550D-04 0.114D-02-0.400D-02 0.593D-02-0.465D-02
 Coeff:     -0.510D-02 0.351D-01-0.659D-01 0.126D+00-0.295D+00 0.121D+01
 Gap=     0.363 Goal=   None    Shift=    0.000
 Gap=     0.468 Goal=   None    Shift=    0.000
 RMSDP=2.11D-07 MaxDP=8.53D-07 DE=-8.60D-11 OVMax= 1.06D-06

 Cycle  13  Pass 1  IDiag  3:
 E= 0.100139170093115     Delta-E=       -0.000000000002 Rises=F Damp=F
 DIIS: error= 4.46D-08 at cycle  13 NSaved=  13.
 NSaved=13 IEnMin=13 EnMin= 0.100139170093115     IErMin=13 ErrMin= 4.46D-08
 ErrMax= 4.46D-08  0.00D+00 EMaxC= 1.00D-01 BMatC= 1.41D-13 BMatP= 1.13D-12
 IDIUse=1 WtCom= 1.00D+00 WtEn= 0.00D+00
 Coeff-Com: -0.110D-05 0.164D-04-0.310D-03 0.114D-02-0.166D-02 0.147D-02
 Coeff-Com:  0.345D-03-0.600D-02 0.115D-01-0.315D-01 0.124D+00-0.900D+00
 Coeff-Com:  0.180D+01
 Coeff:     -0.110D-05 0.164D-04-0.310D-03 0.114D-02-0.166D-02 0.147D-02
 Coeff:      0.345D-03-0.600D-02 0.115D-01-0.315D-01 0.124D+00-0.900D+00
 Coeff:      0.180D+01
 Gap=     0.363 Goal=   None    Shift=    0.000
 Gap=     0.468 Goal=   None    Shift=    0.000
 RMSDP=1.04D-07 MaxDP=4.07D-07 DE=-1.70D-12 OVMax= 5.93D-07

 Cycle  14  Pass 1  IDiag  3:
 E= 0.100139170092870     Delta-E=       -0.000000000000 Rises=F Damp=F
 DIIS: error= 9.23D-09 at cycle  14 NSaved=  14.
 NSaved=14 IEnMin=14 EnMin= 0.100139170092870     IErMin=14 ErrMin= 9.23D-09
 ErrMax= 9.23D-09  0.00D+00 EMaxC= 1.00D-01 BMatC= 3.71D-15 BMatP= 1.41D-13
 IDIUse=1 WtCom= 1.00D+00 WtEn= 0.00D+00
 Coeff-Com:  0.509D-07-0.174D-05 0.732D-04-0.314D-03 0.475D-03-0.473D-03
 Coeff-Com:  0.124D-03 0.101D-02-0.189D-02 0.107D-01-0.642D-01 0.550D+00
 Coeff-Com: -0.118D+01 0.169D+01
 Coeff:      0.509D-07-0.174D-05 0.732D-04-0.314D-03 0.475D-03-0.473D-03
 Coeff:      0.124D-03 0.101D-02-0.189D-02 0.107D-01-0.642D-01 0.550D+00
 Coeff:     -0.118D+01 0.169D+01
 Gap=     0.363 Goal=   None    Shift=    0.000
 Gap=     0.468 Goal=   None    Shift=    0.000
 RMSDP=1.79D-08 MaxDP=6.05D-08 DE=-2.45D-13 OVMax= 1.29D-07

 Cycle  15  Pass 1  IDiag  3:
 E= 0.100139170092849     Delta-E=       -0.000000000000 Rises=F Damp=F
 DIIS: error= 1.86D-09 at cycle  15 NSaved=  15.
 NSaved=15 IEnMin=15 EnMin= 0.100139170092849     IErMin=15 ErrMin= 1.86D-09
 ErrMax= 1.86D-09  0.00D+00 EMaxC= 1.00D-01 BMatC= 3.02D-16 BMatP= 3.71D-15
 IDIUse=1 WtCom= 1.00D+00 WtEn= 0.00D+00
 Coeff-Com:  0.146D-06-0.143D-05-0.250D-05 0.416D-04-0.716D-04 0.103D-03
 Coeff-Com: -0.149D-03 0.259D-03-0.493D-03-0.248D-02 0.252D-01-0.239D+00
 Coeff-Com:  0.527D+00-0.951D+00 0.164D+01
 Coeff:      0.146D-06-0.143D-05-0.250D-05 0.416D-04-0.716D-04 0.103D-03
 Coeff:     -0.149D-03 0.259D-03-0.493D-03-0.248D-02 0.252D-01-0.239D+00
 Coeff:      0.527D+00-0.951D+00 0.164D+01
 Gap=     0.363 Goal=   None    Shift=    0.000
 Gap=     0.468 Goal=   None    Shift=    0.000
 RMSDP=5.61D-09 MaxDP=1.98D-08 DE=-2.13D-14 OVMax= 2.75D-08

 Cycle  16  Pass 2  IDiag  1:
 SCF Done:  E(UPM6) =  0.100139170093     A.U. after   16 cycles
            NFock= 15  Conv=0.56D-08     -V/T= 1.0046
 <Sx>= 0.0000 <Sy>= 0.0000 <Sz>= 0.5000 <S**2>= 0.7598 S= 0.5049
 <L.S>= 0.000000000000E+00
 KE=-2.162845399853D+01 PE=-2.101626352430D+01 EE= 1.732765183621D+01
 Annihilation of the first spin contaminant:
 S**2 before annihilation     0.7598,   after     0.7501
 Leave Link  502 at Wed Oct 21 14:29:02 2020, MaxMem=  2684354560 cpu:               9.8 elap:               1.5
 (Enter /udrive/faculty/rpeverati/g16/g16/l508.exe)
 QCSCF skips out because SCF is already converged.
 Leave Link  508 at Wed Oct 21 14:29:03 2020, MaxMem=  2684354560 cpu:               0.6 elap:               0.6
 (Enter /udrive/faculty/rpeverati/g16/g16/l601.exe)
 Copying SCF densities to generalized density rwf, IOpCl= 1 IROHF=0.

 **********************************************************************

            Population analysis using the SCF density.

 **********************************************************************

 Orbital symmetries:
 Alpha Orbitals:
       Occupied  (A') (A') (A') (A") (A') (A')
       Virtual   (A") (A') (A')
 Beta  Orbitals:
       Occupied  (A') (A') (A') (A") (A')
       Virtual   (A') (A") (A') (A')
 The electronic state is 2-A'.
 Alpha  occ. eigenvalues --   -1.33141  -0.84886  -0.64102  -0.57031  -0.51223
 Alpha  occ. eigenvalues --   -0.36944
 Alpha virt. eigenvalues --   -0.00638   0.10329   0.17006
  Beta  occ. eigenvalues --   -1.30728  -0.81610  -0.57048  -0.55448  -0.46781
  Beta virt. eigenvalues --   -0.00003   0.01453   0.12509   0.20591
          Condensed to atoms (all electrons):
               1          2          3
     1  N    5.139131   0.000000   0.000000
     2  N    0.000000   5.095907   0.000000
     3  H    0.000000   0.000000   0.764962
          Atomic-Atomic Spin Densities.
               1          2          3
     1  N    0.792677   0.000000   0.000000
     2  N    0.000000   0.076825   0.000000
     3  H    0.000000   0.000000   0.130497
 Mulliken charges and spin densities:
               1          2
     1  N   -0.139131   0.792677
     2  N   -0.095907   0.076825
     3  H    0.235038   0.130497
 Sum of Mulliken charges =  -0.00000   1.00000
 Mulliken charges and spin densities with hydrogens summed into heavy atoms:
               1          2
     1  N   -0.139131   0.792677
     2  N    0.139131   0.207323
 Charge=             -0.0000 electrons
 Dipole moment (field-independent basis, Debye):
    X=              1.8449    Y=             -1.7185    Z=             -0.0000  Tot=              2.5213
 N-N= 2.541720485672D+01 E-N=-2.101626352605D+01  KE=-2.162845399853D+01
 Leave Link  601 at Wed Oct 21 14:29:04 2020, MaxMem=  2684354560 cpu:               2.5 elap:               0.8
 (Enter /udrive/faculty/rpeverati/g16/g16/l701.exe)
 ... and contract with generalized density number  0.
 Compute integral first derivatives.
 Leave Link  701 at Wed Oct 21 14:29:05 2020, MaxMem=  2684354560 cpu:               4.1 elap:               0.9
 (Enter /udrive/faculty/rpeverati/g16/g16/l702.exe)
 L702 exits ... SP integral derivatives will be done elsewhere.
 Leave Link  702 at Wed Oct 21 14:29:06 2020, MaxMem=  2684354560 cpu:               2.3 elap:               0.8
 (Enter /udrive/faculty/rpeverati/g16/g16/l703.exe)
 Integral derivatives from FoFJK, PRISM(SPDF).
 Compute integral first derivatives, UseDBF=F ICtDFT=           0.
 Calling FoFJK, ICntrl=      2127 FMM=F ISym2X=1 I1Cent= 0 IOpClX= 1 NMat=1 NMatS=1 NMatT=0.
 FoFJK:  IHMeth=40 ICntrl=    2127 DoSepK=F KAlg= 0 I1Cent=           0 FoldK=F
 IRaf=         0 NMat=       1 IRICut=       1 DoRegI=T DoRafI=F ISym2E= 1 IDoP0=3 IntGTp=3.
 FoFCou: FMM=F IPFlag=           0 FMFlag=      100000 FMFlg1=         800
         NFxFlg=           0 DoJE=F BraDBF=F KetDBF=F FulRan=T
         wScrn=  0.000000 ICntrl=      2127 IOpCl=  1 I1Cent=           0 NGrid=           0
         NMat0=    1 NMatS0=      1 NMatT0=    0 NMatD0=    1 NMtDS0=    0 NMtDT0=    0
 Petite list used in FoFCou.
 Leave Link  703 at Wed Oct 21 14:29:08 2020, MaxMem=  2684354560 cpu:               3.4 elap:               0.9
 (Enter /udrive/faculty/rpeverati/g16/g16/l716.exe)
 Dipole        = 7.25841037D-01-6.76116676D-01-1.04742466D-16
 ***** Axes restored to original set *****
 -------------------------------------------------------------------
 Center     Atomic                   Forces (Hartrees/Bohr)
 Number     Number              X              Y              Z
 -------------------------------------------------------------------
      1        7          -0.019694802    0.015419899   -0.000000000
      2        7           0.028688401    0.004872403    0.000000000
      3        1          -0.008993600   -0.020292302   -0.000000000
 -------------------------------------------------------------------
 Cartesian Forces:  Max     0.028688401 RMS     0.014776428
 Leave Link  716 at Wed Oct 21 14:29:09 2020, MaxMem=  2684354560 cpu:               2.8 elap:               0.8
 (Enter /udrive/faculty/rpeverati/g16/g16/l103.exe)

 GradGradGradGradGradGradGradGradGradGradGradGradGradGradGradGradGradGrad
 Berny optimization.
 Optmz: redundant internal coordinate code flag= 1
 FormGI is forming the generalized inverse of G from B-inverse, IUseBI=4.
 Internal  Forces:  Max     0.043850043 RMS     0.026842767
 Search for a local minimum.
 Step number   1 out of a maximum of  100
 All quantities printed in internal units (Hartrees-Bohrs-Radians)
 RMS Force = .26843D-01 SwitMx=.10000D-02 MixMth= 1
 Mixed Optimization -- RFO/linear search
 Second derivative matrix not updated -- first step.
 The second derivative matrix:
                          R1        R2        A1
           R1           1.16586
           R2           0.00000   0.40365
           A1           0.00000   0.00000   0.16000
 ITU=  0
 Eigenvectors of the second derivative matrix:
                           1         2         3
     Eigenvalues --     0.16000   0.40365   1.16586
   1         R1         0.00000   0.00000  -1.00000
   2         R2         0.00000   1.00000   0.00000
   3         A1        -1.00000   0.00000  -0.00000
 Iter=   1 RLamda= 0.00000000D+00 Sum=-1.22240954D-02.
 Iter=   2 RLamda=-1.22240954D-02 Sum=-1.13689183D-02.
 Iter=   3 RLamda=-1.13689183D-02 Sum=-1.14247846D-02.
 Iter=   4 RLamda=-1.14247846D-02 Sum=-1.14211180D-02.
 Iter=   5 RLamda=-1.14211180D-02 Sum=-1.14213586D-02.
 Iter=   6 RLamda=-1.14213586D-02 Sum=-1.14213428D-02.
 Iter=   7 RLamda=-1.14213428D-02 Sum=-1.14213438D-02.
 RFO step:  Lambda=-1.14213428D-02 EMin= 1.60000000D-01
 Linear search not attempted -- first point.
 Iteration  1 RMS(Cart)=  0.12545674 RMS(Int)=  0.03435194
 Iteration  2 RMS(Cart)=  0.03134483 RMS(Int)=  0.00074136
 Iteration  3 RMS(Cart)=  0.00075521 RMS(Int)=  0.00000007
 Iteration  4 RMS(Cart)=  0.00000006 RMS(Int)=  0.00000000
 ITry= 1 IFail=0 DXMaxC= 1.58D-01 DCOld= 1.00D+10 DXMaxT= 3.00D-01 DXLimC= 3.00D+00 Rises=F
 ClnCor:  largest displacement from symmetrization is 0.00D+00 for atom     0.
 Variable       Old X    -DE/DX   Delta X   Delta X   Delta X     New X
                                 (Linear)    (Quad)   (Total)
    R1        2.22648   0.01542   0.00000   0.01310   0.01310   2.23958
    R2        1.97760   0.00100   0.00000   0.00241   0.00241   1.98001
    A1        2.03312   0.04385   0.00000   0.25580   0.25580   2.28892
         Item               Value     Threshold  Converged?
 Maximum Force            0.043850     0.000450     NO 
 RMS     Force            0.026843     0.000300     NO 
 Maximum Displacement     0.158253     0.001800     NO 
 RMS     Displacement     0.154426     0.001200     NO 
 Predicted change in Energy=-6.085363D-03
 Lowest energy point so far.  Saving SCF results.
 Largest change from initial coordinates is atom    3       0.084 Angstoms.
 GradGradGradGradGradGradGradGradGradGradGradGradGradGradGradGradGradGrad

 Leave Link  103 at Wed Oct 21 14:29:10 2020, MaxMem=  2684354560 cpu:               4.9 elap:               1.0
 (Enter /udrive/faculty/rpeverati/g16/g16/l202.exe)
                          Input orientation:                          
 ---------------------------------------------------------------------
 Center     Atomic      Atomic             Coordinates (Angstroms)
 Number     Number       Type             X           Y           Z
 ---------------------------------------------------------------------
      1          7           0       -0.130095    0.700807    0.000000
      2          7           0        0.007773   -0.476279    0.000000
      3          1           0        0.871634   -1.069220    0.000000
 ---------------------------------------------------------------------
                    Distance matrix (angstroms):
                    1          2          3
     1  N    0.000000
     2  N    1.185133   0.000000
     3  H    2.033828   1.047776   0.000000
 Stoichiometry    HN2(2)
 Framework group  CS[SG(HN2)]
 Deg. of freedom     3
 Full point group                 CS      NOp   2
 RotChk:  IX=3 Diff= 1.65D-01
 Largest Abelian subgroup         CS      NOp   2
 Largest concise Abelian subgroup C1      NOp   1
                         Standard orientation:                         
 ---------------------------------------------------------------------
 Center     Atomic      Atomic             Coordinates (Angstroms)
 Number     Number       Type             X           Y           Z
 ---------------------------------------------------------------------
      1          7           0       -0.052601    0.678031    0.000000
      2          7           0       -0.052601   -0.507101    0.000000
      3          1           0        0.736417   -1.196510    0.000000
 ---------------------------------------------------------------------
 Rotational constants (GHZ):         977.6652537          43.8642900          41.9807655
 Leave Link  202 at Wed Oct 21 14:29:11 2020, MaxMem=  2684354560 cpu:               2.3 elap:               0.7
 (Enter /udrive/faculty/rpeverati/g16/g16/l301.exe)
 Standard basis: VSTO-6G (5D, 7F)
 Ernie: Thresh=  0.10000D-02 Tol=  0.10000D-05 Strict=F.
  NNHCO=     0 NNPyr=     0 NCTC=     0               EPep=         0.000000000
    EC=        10.865967924  ECS=         0.727616340   EG=         0.000339046
   EHC=         0.000548721  EAt=       -13.272012673  AtH=         0.443183747
 EPDDG=         0.000000000  ECC=        11.594472031 EAtT=        13.715196420
 There are     7 symmetry adapted cartesian basis functions of A'  symmetry.
 There are     2 symmetry adapted cartesian basis functions of A"  symmetry.
 There are     7 symmetry adapted basis functions of A'  symmetry.
 There are     2 symmetry adapted basis functions of A"  symmetry.
     9 basis functions,    54 primitive gaussians,     9 cartesian basis functions
     6 alpha electrons        5 beta electrons
       nuclear repulsion energy        25.3096684511 Hartrees.
 IExCor=    0 DFT=F Ex=HF Corr=None ExCW=0 ScaHFX=  1.000000
 ScaDFX=  1.000000  1.000000  1.000000  1.000000 ScalE2=  1.000000  1.000000
 IRadAn=      5 IRanWt=     -1 IRanGd=            0 ICorTp=0 IEmpDi=  4
 Integral buffers will be    131072 words long.
 Regular integral format.
 Two-electron integral symmetry is turned off.
 Leave Link  301 at Wed Oct 21 14:29:12 2020, MaxMem=  2684354560 cpu:               5.2 elap:               1.1
 (Enter /udrive/faculty/rpeverati/g16/g16/l302.exe)
 Do NDO integrals.
 NPDir=0 NMtPBC=     1 NCelOv=     1 NCel=       1 NClECP=     1 NCelD=      1
         NCelK=      1 NCelE2=     1 NClLst=     1 CellRange=     0.0.
 One-electron integrals computed using PRISM.
 NBasis=     9 RedAO= T EigKep=  1.00D+00  NBF=     7     2
 NBsUse=     9 1.00D-06 EigRej= -1.00D+00 NBFU=     7     2
 Leave Link  302 at Wed Oct 21 14:29:14 2020, MaxMem=  2684354560 cpu:               4.0 elap:               1.0
 (Enter /udrive/faculty/rpeverati/g16/g16/l303.exe)
 DipDrv:  MaxL=1.
 Leave Link  303 at Wed Oct 21 14:29:15 2020, MaxMem=  2684354560 cpu:               3.0 elap:               0.9
 (Enter /udrive/faculty/rpeverati/g16/g16/l401.exe)
 Initial guess from the checkpoint file:  "MN_58_hn2_BH76_PM6_SE.chk"
 SCF N**3 symmetry information disabled.
 B after Tr=    -0.000000   -0.000000    0.000000
         Rot=    0.999686    0.000000    0.000000    0.025059 Ang=   2.87 deg.
 Guess basis will be translated and rotated to current coordinates.
 JPrj=0 DoOrth=T DoCkMO=T.
 Initial guess orbital symmetries:
 Alpha Orbitals:
       Occupied  (A') (A') (A') (A") (A') (A')
       Virtual   (A") (A') (A')
 Beta  Orbitals:
       Occupied  (A') (A') (A') (A") (A')
       Virtual   (A') (A") (A') (A')
 The electronic state of the initial guess is 2-A'.
 Initial guess <Sx>= 0.0000 <Sy>= 0.0000 <Sz>= 0.5000 <S**2>= 0.7598 S= 0.5049
 Leave Link  401 at Wed Oct 21 14:29:16 2020, MaxMem=  2684354560 cpu:               3.1 elap:               0.9
 (Enter /udrive/faculty/rpeverati/g16/g16/l502.exe)
 Keep J ints in memory in canonical form, NReq=859290.
 FoFCou: FMM=F IPFlag=           0 FMFlag=           0 FMFlg1=           0
         NFxFlg=           0 DoJE=F BraDBF=F KetDBF=F FulRan=T
         wScrn=  0.000000 ICntrl=       600 IOpCl=  2 I1Cent=           0 NGrid=           0
         NMat0=    1 NMatS0=     21 NMatT0=    0 NMatD0=    1 NMtDS0=    0 NMtDT0=    0
 Symmetry not used in FoFCou.
 Two-electron integral symmetry not used.
 UHF open shell SCF:
 Using DIIS extrapolation, IDIIS=  1040.
 Overlap will be assumed to be unity.
 NGot=  2684354560 LenX=  2684293973 LenY=  2684293091
 Requested convergence on RMS density matrix=1.00D-08 within 120 cycles.
 Requested convergence on MAX density matrix=1.00D-06.
 Requested convergence on             energy=1.00D-06.
 No special actions if energy rises.

 Cycle   1  Pass 1  IDiag  1:
 E= 0.100966590785035    
 DIIS: error= 9.37D-03 at cycle   1 NSaved=   1.
 NSaved= 1 IEnMin= 1 EnMin= 0.100966590785035     IErMin= 1 ErrMin= 9.37D-03
 ErrMax= 9.37D-03  0.00D+00 EMaxC= 1.00D-01 BMatC= 5.28D-03 BMatP= 5.28D-03
 IDIUse=3 WtCom= 9.06D-01 WtEn= 9.37D-02
 Coeff-Com:  0.100D+01
 Coeff-En:   0.100D+01
 Coeff:      0.100D+01
 GapD=    2.000 DampG=2.000 DampE=1.000 DampFc=2.0000 IDamp=-1.
 RMSDP=8.26D-03 MaxDP=2.75D-02              OVMax= 0.00D+00

 Cycle   2  Pass 1  IDiag  3:
 E= 0.956996725186841E-01 Delta-E=       -0.005266918266 Rises=F Damp=F
 DIIS: error= 4.21D-03 at cycle   2 NSaved=   2.
 NSaved= 2 IEnMin= 2 EnMin= 0.956996725186841E-01 IErMin= 2 ErrMin= 4.21D-03
 ErrMax= 4.21D-03  0.00D+00 EMaxC= 1.00D-01 BMatC= 1.03D-03 BMatP= 5.28D-03
 IDIUse=3 WtCom= 9.58D-01 WtEn= 4.21D-02
 Coeff-Com: -0.646D+00 0.165D+01
 Coeff-En:   0.000D+00 0.100D+01
 Coeff:     -0.619D+00 0.162D+01
 Gap=     0.350 Goal=   None    Shift=    0.000
 Gap=     0.486 Goal=   None    Shift=    0.000
 RMSDP=6.67D-03 MaxDP=1.98D-02 DE=-5.27D-03 OVMax= 3.57D-02

 Cycle   3  Pass 1  IDiag  3:
 E= 0.940836646035308E-01 Delta-E=       -0.001616007915 Rises=F Damp=F
 DIIS: error= 1.40D-03 at cycle   3 NSaved=   3.
 NSaved= 3 IEnMin= 3 EnMin= 0.940836646035308E-01 IErMin= 3 ErrMin= 1.40D-03
 ErrMax= 1.40D-03  0.00D+00 EMaxC= 1.00D-01 BMatC= 7.47D-05 BMatP= 1.03D-03
 IDIUse=3 WtCom= 9.86D-01 WtEn= 1.40D-02
 Coeff-Com:  0.279D+00-0.869D+00 0.159D+01
 Coeff-En:   0.000D+00 0.000D+00 0.100D+01
 Coeff:      0.275D+00-0.857D+00 0.158D+01
 Gap=     0.351 Goal=   None    Shift=    0.000
 Gap=     0.486 Goal=   None    Shift=    0.000
 RMSDP=2.30D-03 MaxDP=1.14D-02 DE=-1.62D-03 OVMax= 1.48D-02

 Cycle   4  Pass 1  IDiag  3:
 E= 0.939204260503743E-01 Delta-E=       -0.000163238553 Rises=F Damp=F
 DIIS: error= 7.55D-04 at cycle   4 NSaved=   4.
 NSaved= 4 IEnMin= 4 EnMin= 0.939204260503743E-01 IErMin= 4 ErrMin= 7.55D-04
 ErrMax= 7.55D-04  0.00D+00 EMaxC= 1.00D-01 BMatC= 1.25D-05 BMatP= 7.47D-05
 IDIUse=3 WtCom= 9.92D-01 WtEn= 7.55D-03
 Coeff-Com: -0.670D-01 0.244D+00-0.795D+00 0.162D+01
 Coeff-En:   0.000D+00 0.000D+00 0.000D+00 0.100D+01
 Coeff:     -0.664D-01 0.242D+00-0.789D+00 0.161D+01
 Gap=     0.351 Goal=   None    Shift=    0.000
 Gap=     0.487 Goal=   None    Shift=    0.000
 RMSDP=1.04D-03 MaxDP=5.96D-03 DE=-1.63D-04 OVMax= 5.92D-03

 Cycle   5  Pass 1  IDiag  3:
 E= 0.938893186080740E-01 Delta-E=       -0.000031107442 Rises=F Damp=F
 DIIS: error= 4.04D-04 at cycle   5 NSaved=   5.
 NSaved= 5 IEnMin= 5 EnMin= 0.938893186080740E-01 IErMin= 5 ErrMin= 4.04D-04
 ErrMax= 4.04D-04  0.00D+00 EMaxC= 1.00D-01 BMatC= 3.12D-06 BMatP= 1.25D-05
 IDIUse=3 WtCom= 9.96D-01 WtEn= 4.04D-03
 Coeff-Com: -0.790D-02 0.287D-03 0.257D+00-0.116D+01 0.191D+01
 Coeff-En:   0.000D+00 0.000D+00 0.000D+00 0.000D+00 0.100D+01
 Coeff:     -0.787D-02 0.286D-03 0.256D+00-0.116D+01 0.191D+01
 Gap=     0.351 Goal=   None    Shift=    0.000
 Gap=     0.487 Goal=   None    Shift=    0.000
 RMSDP=6.27D-04 MaxDP=3.38D-03 DE=-3.11D-05 OVMax= 3.38D-03

 Cycle   6  Pass 1  IDiag  3:
 E= 0.938798030887362E-01 Delta-E=       -0.000009515519 Rises=F Damp=F
 DIIS: error= 2.33D-04 at cycle   6 NSaved=   6.
 NSaved= 6 IEnMin= 6 EnMin= 0.938798030887362E-01 IErMin= 6 ErrMin= 2.33D-04
 ErrMax= 2.33D-04  0.00D+00 EMaxC= 1.00D-01 BMatC= 9.54D-07 BMatP= 3.12D-06
 IDIUse=3 WtCom= 9.98D-01 WtEn= 2.33D-03
 Coeff-Com:  0.267D-01-0.462D-01-0.317D+00 0.180D+01-0.352D+01 0.306D+01
 Coeff-En:   0.000D+00 0.000D+00 0.000D+00 0.000D+00 0.000D+00 0.100D+01
 Coeff:      0.266D-01-0.461D-01-0.317D+00 0.179D+01-0.351D+01 0.306D+01
 Gap=     0.351 Goal=   None    Shift=    0.000
 Gap=     0.487 Goal=   None    Shift=    0.000
 RMSDP=5.17D-04 MaxDP=3.29D-03 DE=-9.52D-06 OVMax= 3.29D-03

 Cycle   7  Pass 1  IDiag  3:
 E= 0.938755992209899E-01 Delta-E=       -0.000004203868 Rises=F Damp=F
 DIIS: error= 1.11D-04 at cycle   7 NSaved=   7.
 NSaved= 7 IEnMin= 7 EnMin= 0.938755992209899E-01 IErMin= 7 ErrMin= 1.11D-04
 ErrMax= 1.11D-04  0.00D+00 EMaxC= 1.00D-01 BMatC= 1.89D-07 BMatP= 9.54D-07
 IDIUse=3 WtCom= 9.99D-01 WtEn= 1.11D-03
 Coeff-Com: -0.353D-01 0.696D-01 0.331D+00-0.206D+01 0.416D+01-0.412D+01
 Coeff-Com:  0.265D+01
 Coeff-En:   0.000D+00 0.000D+00 0.000D+00 0.000D+00 0.000D+00 0.000D+00
 Coeff-En:   0.100D+01
 Coeff:     -0.353D-01 0.695D-01 0.331D+00-0.205D+01 0.416D+01-0.411D+01
 Coeff:      0.265D+01
 Gap=     0.351 Goal=   None    Shift=    0.000
 Gap=     0.487 Goal=   None    Shift=    0.000
 RMSDP=2.96D-04 MaxDP=1.84D-03 DE=-4.20D-06 OVMax= 1.87D-03

 Cycle   8  Pass 1  IDiag  3:
 E= 0.938747298959157E-01 Delta-E=       -0.000000869325 Rises=F Damp=F
 DIIS: error= 1.93D-05 at cycle   8 NSaved=   8.
 NSaved= 8 IEnMin= 8 EnMin= 0.938747298959157E-01 IErMin= 8 ErrMin= 1.93D-05
 ErrMax= 1.93D-05  0.00D+00 EMaxC= 1.00D-01 BMatC= 1.33D-08 BMatP= 1.89D-07
 IDIUse=1 WtCom= 1.00D+00 WtEn= 0.00D+00
 Coeff-Com:  0.133D-01-0.277D-01-0.105D+00 0.698D+00-0.144D+01 0.149D+01
 Coeff-Com: -0.117D+01 0.154D+01
 Coeff:      0.133D-01-0.277D-01-0.105D+00 0.698D+00-0.144D+01 0.149D+01
 Coeff:     -0.117D+01 0.154D+01
 Gap=     0.351 Goal=   None    Shift=    0.000
 Gap=     0.487 Goal=   None    Shift=    0.000
 RMSDP=4.30D-05 MaxDP=2.43D-04 DE=-8.69D-07 OVMax= 2.45D-04

 Cycle   9  Pass 1  IDiag  3:
 E= 0.938746938048318E-01 Delta-E=       -0.000000036091 Rises=F Damp=F
 DIIS: error= 1.05D-05 at cycle   9 NSaved=   9.
 NSaved= 9 IEnMin= 9 EnMin= 0.938746938048318E-01 IErMin= 9 ErrMin= 1.05D-05
 ErrMax= 1.05D-05  0.00D+00 EMaxC= 1.00D-01 BMatC= 2.30D-09 BMatP= 1.33D-08
 IDIUse=1 WtCom= 1.00D+00 WtEn= 0.00D+00
 Coeff-Com: -0.261D-02 0.643D-02 0.758D-02-0.826D-01 0.178D+00-0.204D+00
 Coeff-Com:  0.226D+00-0.820D+00 0.169D+01
 Coeff:     -0.261D-02 0.643D-02 0.758D-02-0.826D-01 0.178D+00-0.204D+00
 Coeff:      0.226D+00-0.820D+00 0.169D+01
 Gap=     0.351 Goal=   None    Shift=    0.000
 Gap=     0.487 Goal=   None    Shift=    0.000
 RMSDP=1.84D-05 MaxDP=8.68D-05 DE=-3.61D-08 OVMax= 1.08D-04

 Cycle  10  Pass 1  IDiag  3:
 E= 0.938746876075598E-01 Delta-E=       -0.000000006197 Rises=F Damp=F
 DIIS: error= 2.73D-06 at cycle  10 NSaved=  10.
 NSaved=10 IEnMin=10 EnMin= 0.938746876075598E-01 IErMin=10 ErrMin= 2.73D-06
 ErrMax= 2.73D-06  0.00D+00 EMaxC= 1.00D-01 BMatC= 2.26D-10 BMatP= 2.30D-09
 IDIUse=1 WtCom= 1.00D+00 WtEn= 0.00D+00
 Coeff-Com:  0.912D-04-0.102D-02 0.101D-01-0.400D-01 0.736D-01-0.617D-01
 Coeff-Com:  0.660D-02 0.306D+00-0.103D+01 0.173D+01
 Coeff:      0.912D-04-0.102D-02 0.101D-01-0.400D-01 0.736D-01-0.617D-01
 Coeff:      0.660D-02 0.306D+00-0.103D+01 0.173D+01
 Gap=     0.351 Goal=   None    Shift=    0.000
 Gap=     0.487 Goal=   None    Shift=    0.000
 RMSDP=5.74D-06 MaxDP=2.56D-05 DE=-6.20D-09 OVMax= 4.35D-05

 Cycle  11  Pass 1  IDiag  3:
 E= 0.938746870059362E-01 Delta-E=       -0.000000000602 Rises=F Damp=F
 DIIS: error= 6.19D-07 at cycle  11 NSaved=  11.
 NSaved=11 IEnMin=11 EnMin= 0.938746870059362E-01 IErMin=11 ErrMin= 6.19D-07
 ErrMax= 6.19D-07  0.00D+00 EMaxC= 1.00D-01 BMatC= 1.87D-11 BMatP= 2.26D-10
 IDIUse=1 WtCom= 1.00D+00 WtEn= 0.00D+00
 Coeff-Com: -0.146D-03 0.107D-02-0.892D-02 0.341D-01-0.624D-01 0.522D-01
 Coeff-Com: -0.467D-02-0.276D+00 0.941D+00-0.175D+01 0.208D+01
 Coeff:     -0.146D-03 0.107D-02-0.892D-02 0.341D-01-0.624D-01 0.522D-01
 Coeff:     -0.467D-02-0.276D+00 0.941D+00-0.175D+01 0.208D+01
 Gap=     0.351 Goal=   None    Shift=    0.000
 Gap=     0.487 Goal=   None    Shift=    0.000
 RMSDP=1.67D-06 MaxDP=5.23D-06 DE=-6.02D-10 OVMax= 1.26D-05

 Cycle  12  Pass 1  IDiag  3:
 E= 0.938746869556795E-01 Delta-E=       -0.000000000050 Rises=F Damp=F
 DIIS: error= 1.91D-07 at cycle  12 NSaved=  12.
 NSaved=12 IEnMin=12 EnMin= 0.938746869556795E-01 IErMin=12 ErrMin= 1.91D-07
 ErrMax= 1.91D-07  0.00D+00 EMaxC= 1.00D-01 BMatC= 1.14D-12 BMatP= 1.87D-11
 IDIUse=1 WtCom= 1.00D+00 WtEn= 0.00D+00
 Coeff-Com:  0.153D-03-0.843D-03 0.571D-02-0.208D-01 0.373D-01-0.303D-01
 Coeff-Com: -0.402D-04 0.189D+00-0.640D+00 0.121D+01-0.160D+01 0.185D+01
 Coeff:      0.153D-03-0.843D-03 0.571D-02-0.208D-01 0.373D-01-0.303D-01
 Coeff:     -0.402D-04 0.189D+00-0.640D+00 0.121D+01-0.160D+01 0.185D+01
 Gap=     0.351 Goal=   None    Shift=    0.000
 Gap=     0.487 Goal=   None    Shift=    0.000
 RMSDP=3.86D-07 MaxDP=1.69D-06 DE=-5.03D-11 OVMax= 2.03D-06

 Cycle  13  Pass 1  IDiag  3:
 E= 0.938746869531073E-01 Delta-E=       -0.000000000003 Rises=F Damp=F
 DIIS: error= 1.93D-08 at cycle  13 NSaved=  13.
 NSaved=13 IEnMin=13 EnMin= 0.938746869531073E-01 IErMin=13 ErrMin= 1.93D-08
 ErrMax= 1.93D-08  0.00D+00 EMaxC= 1.00D-01 BMatC= 2.62D-14 BMatP= 1.14D-12
 IDIUse=1 WtCom= 1.00D+00 WtEn= 0.00D+00
 Coeff-Com: -0.759D-04 0.372D-03-0.223D-02 0.780D-02-0.138D-01 0.110D-01
 Coeff-Com:  0.971D-03-0.782D-01 0.263D+00-0.495D+00 0.663D+00-0.824D+00
 Coeff-Com:  0.147D+01
 Coeff:     -0.759D-04 0.372D-03-0.223D-02 0.780D-02-0.138D-01 0.110D-01
 Coeff:      0.971D-03-0.782D-01 0.263D+00-0.495D+00 0.663D+00-0.824D+00
 Coeff:      0.147D+01
 Gap=     0.351 Goal=   None    Shift=    0.000
 Gap=     0.487 Goal=   None    Shift=    0.000
 RMSDP=3.98D-08 MaxDP=1.51D-07 DE=-2.57D-12 OVMax= 1.60D-07

 Cycle  14  Pass 1  IDiag  3:
 E= 0.938746869530789E-01 Delta-E=       -0.000000000000 Rises=F Damp=F
 DIIS: error= 6.94D-09 at cycle  14 NSaved=  14.
 NSaved=14 IEnMin=14 EnMin= 0.938746869530789E-01 IErMin=14 ErrMin= 6.94D-09
 ErrMax= 6.94D-09  0.00D+00 EMaxC= 1.00D-01 BMatC= 1.70D-15 BMatP= 2.62D-14
 IDIUse=1 WtCom= 1.00D+00 WtEn= 0.00D+00
 Coeff-Com:  0.119D-04-0.573D-04 0.340D-03-0.120D-02 0.211D-02-0.169D-02
 Coeff-Com: -0.994D-04 0.116D-01-0.397D-01 0.750D-01-0.103D+00 0.133D+00
 Coeff-Com: -0.462D+00 0.139D+01
 Coeff:      0.119D-04-0.573D-04 0.340D-03-0.120D-02 0.211D-02-0.169D-02
 Coeff:     -0.994D-04 0.116D-01-0.397D-01 0.750D-01-0.103D+00 0.133D+00
 Coeff:     -0.462D+00 0.139D+01
 Gap=     0.351 Goal=   None    Shift=    0.000
 Gap=     0.487 Goal=   None    Shift=    0.000
 RMSDP=1.30D-08 MaxDP=7.28D-08 DE=-2.84D-14 OVMax= 7.85D-08

 Cycle  15  Pass 1  IDiag  3:
 E= 0.938746869530682E-01 Delta-E=       -0.000000000000 Rises=F Damp=F
 DIIS: error= 1.23D-09 at cycle  15 NSaved=  15.
 NSaved=15 IEnMin=15 EnMin= 0.938746869530682E-01 IErMin=15 ErrMin= 1.23D-09
 ErrMax= 1.23D-09  0.00D+00 EMaxC= 1.00D-01 BMatC= 9.72D-17 BMatP= 1.70D-15
 IDIUse=1 WtCom= 1.00D+00 WtEn= 0.00D+00
 Coeff-Com: -0.123D-05 0.564D-05-0.334D-04 0.122D-03-0.211D-03 0.177D-03
 Coeff-Com: -0.302D-04-0.896D-03 0.344D-02-0.676D-02 0.104D-01-0.155D-01
 Coeff-Com:  0.168D+00-0.762D+00 0.160D+01
 Coeff:     -0.123D-05 0.564D-05-0.334D-04 0.122D-03-0.211D-03 0.177D-03
 Coeff:     -0.302D-04-0.896D-03 0.344D-02-0.676D-02 0.104D-01-0.155D-01
 Coeff:      0.168D+00-0.762D+00 0.160D+01
 Gap=     0.351 Goal=   None    Shift=    0.000
 Gap=     0.487 Goal=   None    Shift=    0.000
 RMSDP=2.09D-09 MaxDP=6.64D-09 DE=-1.07D-14 OVMax= 7.76D-09

 Cycle  16  Pass 2  IDiag  1:
 SCF Done:  E(UPM6) =  0.938746869531E-01 A.U. after   16 cycles
            NFock= 15  Conv=0.21D-08     -V/T= 1.0043
 <Sx>= 0.0000 <Sy>= 0.0000 <Sz>= 0.5000 <S**2>= 0.7566 S= 0.5033
 <L.S>= 0.000000000000E+00
 KE=-2.163456066226D+01 PE=-2.087304961617D+01 EE= 1.729181651430D+01
 Annihilation of the first spin contaminant:
 S**2 before annihilation     0.7566,   after     0.7500
 Leave Link  502 at Wed Oct 21 14:29:18 2020, MaxMem=  2684354560 cpu:              10.2 elap:               1.6
 (Enter /udrive/faculty/rpeverati/g16/g16/l508.exe)
 QCSCF skips out because SCF is already converged.
 Leave Link  508 at Wed Oct 21 14:29:19 2020, MaxMem=  2684354560 cpu:               0.4 elap:               0.7
 (Enter /udrive/faculty/rpeverati/g16/g16/l701.exe)
 ... and contract with generalized density number  0.
 Compute integral first derivatives.
 Leave Link  701 at Wed Oct 21 14:29:21 2020, MaxMem=  2684354560 cpu:               4.3 elap:               1.1
 (Enter /udrive/faculty/rpeverati/g16/g16/l702.exe)
 L702 exits ... SP integral derivatives will be done elsewhere.
 Leave Link  702 at Wed Oct 21 14:29:22 2020, MaxMem=  2684354560 cpu:               2.2 elap:               0.9
 (Enter /udrive/faculty/rpeverati/g16/g16/l703.exe)
 Integral derivatives from FoFJK, PRISM(SPDF).
 Compute integral first derivatives, UseDBF=F ICtDFT=           0.
 Calling FoFJK, ICntrl=      2127 FMM=F ISym2X=1 I1Cent= 0 IOpClX= 1 NMat=1 NMatS=1 NMatT=0.
 FoFJK:  IHMeth=40 ICntrl=    2127 DoSepK=F KAlg= 0 I1Cent=           0 FoldK=F
 IRaf=         0 NMat=       1 IRICut=       1 DoRegI=T DoRafI=F ISym2E= 1 IDoP0=3 IntGTp=3.
 FoFCou: FMM=F IPFlag=           0 FMFlag=      100000 FMFlg1=         800
         NFxFlg=           0 DoJE=F BraDBF=F KetDBF=F FulRan=T
         wScrn=  0.000000 ICntrl=      2127 IOpCl=  1 I1Cent=           0 NGrid=           0
         NMat0=    1 NMatS0=      1 NMatT0=    0 NMatD0=    1 NMtDS0=    0 NMtDT0=    0
 Petite list used in FoFCou.
 Leave Link  703 at Wed Oct 21 14:29:23 2020, MaxMem=  2684354560 cpu:               3.3 elap:               1.0
 (Enter /udrive/faculty/rpeverati/g16/g16/l716.exe)
 Dipole        = 6.78524550D-01-8.41571959D-01-7.34103377D-16
 ***** Axes restored to original set *****
 -------------------------------------------------------------------
 Center     Atomic                   Forces (Hartrees/Bohr)
 Number     Number              X              Y              Z
 -------------------------------------------------------------------
      1        7           0.000134860   -0.031169737    0.000000000
      2        7           0.012293999    0.027429555    0.000000000
      3        1          -0.012428859    0.003740182   -0.000000000
 -------------------------------------------------------------------
 Cartesian Forces:  Max     0.031169737 RMS     0.015068581
 Leave Link  716 at Wed Oct 21 14:29:24 2020, MaxMem=  2684354560 cpu:               2.1 elap:               0.8
 (Enter /udrive/faculty/rpeverati/g16/g16/l103.exe)

 GradGradGradGradGradGradGradGradGradGradGradGradGradGradGradGradGradGrad
 Berny optimization.
 Optmz: redundant internal coordinate code flag= 1
 Using GEDIIS/GDIIS optimizer.
 Red2BG:  D1=  7.74D-01 OD1=  1.08D-01 B2RMS=  0.00D+00 IAprox=0
 FormGI is forming the generalized inverse of G from B-inverse, IUseBI=4.
 Internal  Forces:  Max     0.030973797 RMS     0.019777130
 Search for a local minimum.
 Step number   2 out of a maximum of  100
 All quantities printed in internal units (Hartrees-Bohrs-Radians)
 RMS Force = .19777D-01 SwitMx=.10000D-02 MixMth= 1
 Mixed Optimization -- RFO/linear search
 Update second derivatives using D2CorX and points    1    2
 DE= -6.26D-03 DEPred=-6.09D-03 R= 1.03D+00
 TightC=F SS=  1.41D+00  RLast= 2.56D-01 DXNew= 5.0454D-01 7.6845D-01
 Trust test= 1.03D+00 RLast= 2.56D-01 DXMaxT set to 5.05D-01
 The second derivative matrix:
                          R1        R2        A1
           R1           1.36239
           R2           0.06152   0.42169
           A1           0.11103   0.04512   0.13474
 ITU=  1  0
 Use linear search instead of GDIIS.
 Eigenvectors of the second derivative matrix:
                           1         2         3
     Eigenvalues --     0.11957   0.42243   1.37682
   1         R1        -0.08178   0.07943   0.99348
   2         R2        -0.13091  -0.98904   0.06830
   3         A1         0.98802  -0.12447   0.09129
 Iter=   1 RLamda= 0.00000000D+00 Sum=-1.92899054D-03.
 Iter=   2 RLamda=-1.92899054D-03 Sum=-1.91881809D-03.
 Iter=   3 RLamda=-1.91881809D-03 Sum=-1.91887109D-03.
 Iter=   4 RLamda=-1.91887109D-03 Sum=-1.91887082D-03.
 RFO step:  Lambda=-1.91887109D-03 EMin= 1.19568777D-01
 Quartic linear search produced a step of  0.18909.
 Iteration  1 RMS(Cart)=  0.05376446 RMS(Int)=  0.00244929
 Iteration  2 RMS(Cart)=  0.00260110 RMS(Int)=  0.00000134
 Iteration  3 RMS(Cart)=  0.00000110 RMS(Int)=  0.00000000
 Iteration  4 RMS(Cart)=  0.00000000 RMS(Int)=  0.00000000
 ITry= 1 IFail=0 DXMaxC= 6.40D-02 DCOld= 1.00D+10 DXMaxT= 5.05D-01 DXLimC= 3.00D+00 Rises=F
 ClnCor:  largest displacement from symmetrization is 1.11D-16 for atom     2.
 Variable       Old X    -DE/DX   Delta X   Delta X   Delta X     New X
                                 (Linear)    (Quad)   (Total)
    R1        2.23958  -0.03097   0.00248  -0.03183  -0.02935   2.21023
    R2        1.98001  -0.01236   0.00046  -0.03623  -0.03577   1.94424
    A1        2.28892   0.00782   0.04837   0.05372   0.10209   2.39101
         Item               Value     Threshold  Converged?
 Maximum Force            0.030974     0.000450     NO 
 RMS     Force            0.019777     0.000300     NO 
 Maximum Displacement     0.063970     0.001800     NO 
 RMS     Displacement     0.053036     0.001200     NO 
 Predicted change in Energy=-1.023912D-03
 Lowest energy point so far.  Saving SCF results.
 Largest change from initial coordinates is atom    3       0.273 Angstoms.
 GradGradGradGradGradGradGradGradGradGradGradGradGradGradGradGradGradGrad

 Leave Link  103 at Wed Oct 21 14:29:26 2020, MaxMem=  2684354560 cpu:               4.9 elap:               1.1
 (Enter /udrive/faculty/rpeverati/g16/g16/l202.exe)
                          Input orientation:                          
 ---------------------------------------------------------------------
 Center     Atomic      Atomic             Coordinates (Angstroms)
 Number     Number       Type             X           Y           Z
 ---------------------------------------------------------------------
      1          7           0       -0.148829    0.697121    0.000000
      2          7           0        0.041624   -0.456870    0.000000
      3          1           0        0.856516   -1.084944    0.000000
 ---------------------------------------------------------------------
                    Distance matrix (angstroms):
                    1          2          3
     1  N    0.000000
     2  N    1.169601   0.000000
     3  H    2.046087   1.028847   0.000000
 Stoichiometry    HN2(2)
 Framework group  CS[SG(HN2)]
 Deg. of freedom     3
 Full point group                 CS      NOp   2
 RotChk:  IX=3 Diff= 6.64D-02
 Largest Abelian subgroup         CS      NOp   2
 Largest concise Abelian subgroup C1      NOp   1
                         Standard orientation:                         
 ---------------------------------------------------------------------
 Center     Atomic      Atomic             Coordinates (Angstroms)
 Number     Number       Type             X           Y           Z
 ---------------------------------------------------------------------
      1          7           0       -0.046783    0.673946    0.000000
      2          7           0       -0.046783   -0.495655    0.000000
      3          1           0        0.654960   -1.248040    0.000000
 ---------------------------------------------------------------------
 Rotational constants (GHZ):        1254.9440989          44.3561088          42.8418596
 Leave Link  202 at Wed Oct 21 14:29:27 2020, MaxMem=  2684354560 cpu:               2.0 elap:               0.9
 (Enter /udrive/faculty/rpeverati/g16/g16/l301.exe)
 Standard basis: VSTO-6G (5D, 7F)
 Ernie: Thresh=  0.10000D-02 Tol=  0.10000D-05 Strict=F.
  NNHCO=     0 NNPyr=     0 NCTC=     0               EPep=         0.000000000
    EC=        10.929252582  ECS=         0.761768073   EG=         0.000231486
   EHC=         0.000648551  EAt=       -13.272012673  AtH=         0.443183747
 EPDDG=         0.000000000  ECC=        11.691900692 EAtT=        13.715196420
 There are     7 symmetry adapted cartesian basis functions of A'  symmetry.
 There are     2 symmetry adapted cartesian basis functions of A"  symmetry.
 There are     7 symmetry adapted basis functions of A'  symmetry.
 There are     2 symmetry adapted basis functions of A"  symmetry.
     9 basis functions,    54 primitive gaussians,     9 cartesian basis functions
     6 alpha electrons        5 beta electrons
       nuclear repulsion energy        25.4070971119 Hartrees.
 IExCor=    0 DFT=F Ex=HF Corr=None ExCW=0 ScaHFX=  1.000000
 ScaDFX=  1.000000  1.000000  1.000000  1.000000 ScalE2=  1.000000  1.000000
 IRadAn=      5 IRanWt=     -1 IRanGd=            0 ICorTp=0 IEmpDi=  4
 Integral buffers will be    131072 words long.
 Regular integral format.
 Two-electron integral symmetry is turned off.
 Leave Link  301 at Wed Oct 21 14:29:28 2020, MaxMem=  2684354560 cpu:               5.1 elap:               1.1
 (Enter /udrive/faculty/rpeverati/g16/g16/l302.exe)
 Do NDO integrals.
 NPDir=0 NMtPBC=     1 NCelOv=     1 NCel=       1 NClECP=     1 NCelD=      1
         NCelK=      1 NCelE2=     1 NClLst=     1 CellRange=     0.0.
 One-electron integrals computed using PRISM.
 NBasis=     9 RedAO= T EigKep=  1.00D+00  NBF=     7     2
 NBsUse=     9 1.00D-06 EigRej= -1.00D+00 NBFU=     7     2
 Leave Link  302 at Wed Oct 21 14:29:30 2020, MaxMem=  2684354560 cpu:               3.7 elap:               1.0
 (Enter /udrive/faculty/rpeverati/g16/g16/l303.exe)
 DipDrv:  MaxL=1.
 Leave Link  303 at Wed Oct 21 14:29:31 2020, MaxMem=  2684354560 cpu:               2.6 elap:               0.8
 (Enter /udrive/faculty/rpeverati/g16/g16/l401.exe)
 Initial guess from the checkpoint file:  "MN_58_hn2_BH76_PM6_SE.chk"
 SCF N**3 symmetry information disabled.
 B after Tr=     0.000000    0.000000    0.000000
         Rot=    0.999946    0.000000    0.000000    0.010409 Ang=   1.19 deg.
 Guess basis will be translated and rotated to current coordinates.
 JPrj=0 DoOrth=T DoCkMO=T.
 Initial guess orbital symmetries:
 Alpha Orbitals:
       Occupied  (A') (A') (A') (A") (A') (A')
       Virtual   (A") (A') (A')
 Beta  Orbitals:
       Occupied  (A') (A') (A') (A") (A')
       Virtual   (A') (A") (A') (A')
 The electronic state of the initial guess is 2-A'.
 Initial guess <Sx>= 0.0000 <Sy>= 0.0000 <Sz>= 0.5000 <S**2>= 0.7566 S= 0.5033
 Leave Link  401 at Wed Oct 21 14:29:32 2020, MaxMem=  2684354560 cpu:               3.1 elap:               0.9
 (Enter /udrive/faculty/rpeverati/g16/g16/l502.exe)
 Keep J ints in memory in canonical form, NReq=859290.
 FoFCou: FMM=F IPFlag=           0 FMFlag=           0 FMFlg1=           0
         NFxFlg=           0 DoJE=F BraDBF=F KetDBF=F FulRan=T
         wScrn=  0.000000 ICntrl=       600 IOpCl=  2 I1Cent=           0 NGrid=           0
         NMat0=    1 NMatS0=     21 NMatT0=    0 NMatD0=    1 NMtDS0=    0 NMtDT0=    0
 Symmetry not used in FoFCou.
 Two-electron integral symmetry not used.
 UHF open shell SCF:
 Using DIIS extrapolation, IDIIS=  1040.
 Overlap will be assumed to be unity.
 NGot=  2684354560 LenX=  2684293973 LenY=  2684293091
 Requested convergence on RMS density matrix=1.00D-08 within 120 cycles.
 Requested convergence on MAX density matrix=1.00D-06.
 Requested convergence on             energy=1.00D-06.
 No special actions if energy rises.

 Cycle   1  Pass 1  IDiag  1:
 E= 0.942323965408534E-01
 DIIS: error= 4.99D-03 at cycle   1 NSaved=   1.
 NSaved= 1 IEnMin= 1 EnMin= 0.942323965408534E-01 IErMin= 1 ErrMin= 4.99D-03
 ErrMax= 4.99D-03  0.00D+00 EMaxC= 1.00D-01 BMatC= 1.30D-03 BMatP= 1.30D-03
 IDIUse=3 WtCom= 9.50D-01 WtEn= 4.99D-02
 Coeff-Com:  0.100D+01
 Coeff-En:   0.100D+01
 Coeff:      0.100D+01
 GapD=    2.000 DampG=2.000 DampE=1.000 DampFc=2.0000 IDamp=-1.
 RMSDP=4.02D-03 MaxDP=1.30D-02              OVMax= 0.00D+00

 Cycle   2  Pass 1  IDiag  3:
 E= 0.929580463846023E-01 Delta-E=       -0.001274350156 Rises=F Damp=F
 DIIS: error= 1.88D-03 at cycle   2 NSaved=   2.
 NSaved= 2 IEnMin= 2 EnMin= 0.929580463846023E-01 IErMin= 2 ErrMin= 1.88D-03
 ErrMax= 1.88D-03  0.00D+00 EMaxC= 1.00D-01 BMatC= 2.41D-04 BMatP= 1.30D-03
 IDIUse=3 WtCom= 9.81D-01 WtEn= 1.88D-02
 Coeff-Com: -0.600D+00 0.160D+01
 Coeff-En:   0.000D+00 0.100D+01
 Coeff:     -0.589D+00 0.159D+01
 Gap=     0.347 Goal=   None    Shift=    0.000
 Gap=     0.502 Goal=   None    Shift=    0.000
 RMSDP=3.11D-03 MaxDP=1.05D-02 DE=-1.27D-03 OVMax= 1.50D-02

 Cycle   3  Pass 1  IDiag  3:
 E= 0.925917796012783E-01 Delta-E=       -0.000366266783 Rises=F Damp=F
 DIIS: error= 7.93D-04 at cycle   3 NSaved=   3.
 NSaved= 3 IEnMin= 3 EnMin= 0.925917796012783E-01 IErMin= 3 ErrMin= 7.93D-04
 ErrMax= 7.93D-04  0.00D+00 EMaxC= 1.00D-01 BMatC= 1.88D-05 BMatP= 2.41D-04
 IDIUse=3 WtCom= 9.92D-01 WtEn= 7.93D-03
 Coeff-Com:  0.312D+00-0.984D+00 0.167D+01
 Coeff-En:   0.000D+00 0.000D+00 0.100D+01
 Coeff:      0.309D+00-0.976D+00 0.167D+01
 Gap=     0.347 Goal=   None    Shift=    0.000
 Gap=     0.502 Goal=   None    Shift=    0.000
 RMSDP=1.13D-03 MaxDP=6.19D-03 DE=-3.66D-04 OVMax= 6.73D-03

 Cycle   4  Pass 1  IDiag  3:
 E= 0.925521319868672E-01 Delta-E=       -0.000039647614 Rises=F Damp=F
 DIIS: error= 3.77D-04 at cycle   4 NSaved=   4.
 NSaved= 4 IEnMin= 4 EnMin= 0.925521319868672E-01 IErMin= 4 ErrMin= 3.77D-04
 ErrMax= 3.77D-04  0.00D+00 EMaxC= 1.00D-01 BMatC= 3.43D-06 BMatP= 1.88D-05
 IDIUse=3 WtCom= 9.96D-01 WtEn= 3.77D-03
 Coeff-Com: -0.238D+00 0.777D+00-0.157D+01 0.203D+01
 Coeff-En:   0.000D+00 0.000D+00 0.000D+00 0.100D+01
 Coeff:     -0.237D+00 0.774D+00-0.157D+01 0.203D+01
 Gap=     0.347 Goal=   None    Shift=    0.000
 Gap=     0.502 Goal=   None    Shift=    0.000
 RMSDP=5.80D-04 MaxDP=3.31D-03 DE=-3.96D-05 OVMax= 2.77D-03

 Cycle   5  Pass 1  IDiag  3:
 E= 0.925427868780417E-01 Delta-E=       -0.000009345109 Rises=F Damp=F
 DIIS: error= 2.40D-04 at cycle   5 NSaved=   5.
 NSaved= 5 IEnMin= 5 EnMin= 0.925427868780417E-01 IErMin= 5 ErrMin= 2.40D-04
 ErrMax= 2.40D-04  0.00D+00 EMaxC= 1.00D-01 BMatC= 9.13D-07 BMatP= 3.43D-06
 IDIUse=3 WtCom= 9.98D-01 WtEn= 2.40D-03
 Coeff-Com:  0.864D-01-0.292D+00 0.677D+00-0.136D+01 0.189D+01
 Coeff-En:   0.000D+00 0.000D+00 0.000D+00 0.000D+00 0.100D+01
 Coeff:      0.862D-01-0.291D+00 0.675D+00-0.136D+01 0.189D+01
 Gap=     0.347 Goal=   None    Shift=    0.000
 Gap=     0.502 Goal=   None    Shift=    0.000
 RMSDP=3.50D-04 MaxDP=2.19D-03 DE=-9.35D-06 OVMax= 2.19D-03

 Cycle   6  Pass 1  IDiag  3:
 E= 0.925397601490374E-01 Delta-E=       -0.000003026729 Rises=F Damp=F
 DIIS: error= 1.34D-04 at cycle   6 NSaved=   6.
 NSaved= 6 IEnMin= 6 EnMin= 0.925397601490374E-01 IErMin= 6 ErrMin= 1.34D-04
 ErrMax= 1.34D-04  0.00D+00 EMaxC= 1.00D-01 BMatC= 2.95D-07 BMatP= 9.13D-07
 IDIUse=3 WtCom= 9.99D-01 WtEn= 1.34D-03
 Coeff-Com:  0.160D-02 0.762D-02-0.120D+00 0.691D+00-0.205D+01 0.247D+01
 Coeff-En:   0.000D+00 0.000D+00 0.000D+00 0.000D+00 0.000D+00 0.100D+01
 Coeff:      0.160D-02 0.761D-02-0.120D+00 0.690D+00-0.205D+01 0.247D+01
 Gap=     0.347 Goal=   None    Shift=    0.000
 Gap=     0.502 Goal=   None    Shift=    0.000
 RMSDP=3.02D-04 MaxDP=1.92D-03 DE=-3.03D-06 OVMax= 1.92D-03

 Cycle   7  Pass 1  IDiag  3:
 E= 0.925385083206223E-01 Delta-E=       -0.000001251828 Rises=F Damp=F
 DIIS: error= 5.01D-05 at cycle   7 NSaved=   7.
 NSaved= 7 IEnMin= 7 EnMin= 0.925385083206223E-01 IErMin= 7 ErrMin= 5.01D-05
 ErrMax= 5.01D-05  0.00D+00 EMaxC= 1.00D-01 BMatC= 3.77D-08 BMatP= 2.95D-07
 IDIUse=1 WtCom= 1.00D+00 WtEn= 0.00D+00
 Coeff-Com: -0.262D-01 0.761D-01-0.829D-01-0.255D+00 0.133D+01-0.209D+01
 Coeff-Com:  0.205D+01
 Coeff:     -0.262D-01 0.761D-01-0.829D-01-0.255D+00 0.133D+01-0.209D+01
 Coeff:      0.205D+01
 Gap=     0.347 Goal=   None    Shift=    0.000
 Gap=     0.502 Goal=   None    Shift=    0.000
 RMSDP=1.06D-04 MaxDP=7.01D-04 DE=-1.25D-06 OVMax= 7.08D-04

 Cycle   8  Pass 1  IDiag  3:
 E= 0.925383748870168E-01 Delta-E=       -0.000000133434 Rises=F Damp=F
 DIIS: error= 6.74D-06 at cycle   8 NSaved=   8.
 NSaved= 8 IEnMin= 8 EnMin= 0.925383748870168E-01 IErMin= 8 ErrMin= 6.74D-06
 ErrMax= 6.74D-06  0.00D+00 EMaxC= 1.00D-01 BMatC= 2.57D-09 BMatP= 3.77D-08
 IDIUse=1 WtCom= 1.00D+00 WtEn= 0.00D+00
 Coeff-Com:  0.192D-01-0.568D-01 0.730D-01 0.120D+00-0.780D+00 0.131D+01
 Coeff-Com: -0.150D+01 0.181D+01
 Coeff:      0.192D-01-0.568D-01 0.730D-01 0.120D+00-0.780D+00 0.131D+01
 Coeff:     -0.150D+01 0.181D+01
 Gap=     0.347 Goal=   None    Shift=    0.000
 Gap=     0.502 Goal=   None    Shift=    0.000
 RMSDP=1.84D-05 MaxDP=9.37D-05 DE=-1.33D-07 OVMax= 9.45D-05

 Cycle   9  Pass 1  IDiag  3:
 E= 0.925383682715761E-01 Delta-E=       -0.000000006615 Rises=F Damp=F
 DIIS: error= 3.44D-06 at cycle   9 NSaved=   9.
 NSaved= 9 IEnMin= 9 EnMin= 0.925383682715761E-01 IErMin= 9 ErrMin= 3.44D-06
 ErrMax= 3.44D-06  0.00D+00 EMaxC= 1.00D-01 BMatC= 2.87D-10 BMatP= 2.57D-09
 IDIUse=1 WtCom= 1.00D+00 WtEn= 0.00D+00
 Coeff-Com: -0.141D-01 0.421D-01-0.564D-01-0.777D-01 0.546D+00-0.934D+00
 Coeff-Com:  0.111D+01-0.160D+01 0.198D+01
 Coeff:     -0.141D-01 0.421D-01-0.564D-01-0.777D-01 0.546D+00-0.934D+00
 Coeff:      0.111D+01-0.160D+01 0.198D+01
 Gap=     0.347 Goal=   None    Shift=    0.000
 Gap=     0.502 Goal=   None    Shift=    0.000
 RMSDP=6.31D-06 MaxDP=2.58D-05 DE=-6.62D-09 OVMax= 4.77D-05

 Cycle  10  Pass 1  IDiag  3:
 E= 0.925383674828701E-01 Delta-E=       -0.000000000789 Rises=F Damp=F
 DIIS: error= 7.57D-07 at cycle  10 NSaved=  10.
 NSaved=10 IEnMin=10 EnMin= 0.925383674828701E-01 IErMin=10 ErrMin= 7.57D-07
 ErrMax= 7.57D-07  0.00D+00 EMaxC= 1.00D-01 BMatC= 2.59D-11 BMatP= 2.87D-10
 IDIUse=1 WtCom= 1.00D+00 WtEn= 0.00D+00
 Coeff-Com:  0.580D-02-0.174D-01 0.239D-01 0.303D-01-0.223D+00 0.388D+00
 Coeff-Com: -0.474D+00 0.716D+00-0.112D+01 0.167D+01
 Coeff:      0.580D-02-0.174D-01 0.239D-01 0.303D-01-0.223D+00 0.388D+00
 Coeff:     -0.474D+00 0.716D+00-0.112D+01 0.167D+01
 Gap=     0.347 Goal=   None    Shift=    0.000
 Gap=     0.502 Goal=   None    Shift=    0.000
 RMSDP=1.98D-06 MaxDP=7.77D-06 DE=-7.89D-10 OVMax= 1.69D-05

 Cycle  11  Pass 1  IDiag  3:
 E= 0.925383674067142E-01 Delta-E=       -0.000000000076 Rises=F Damp=F
 DIIS: error= 2.86D-07 at cycle  11 NSaved=  11.
 NSaved=11 IEnMin=11 EnMin= 0.925383674067142E-01 IErMin=11 ErrMin= 2.86D-07
 ErrMax= 2.86D-07  0.00D+00 EMaxC= 1.00D-01 BMatC= 3.49D-12 BMatP= 2.59D-11
 IDIUse=1 WtCom= 1.00D+00 WtEn= 0.00D+00
 Coeff-Com: -0.708D-04 0.289D-03-0.789D-03 0.491D-03 0.287D-02-0.900D-02
 Coeff-Com:  0.196D-01-0.515D-01 0.174D+00-0.709D+00 0.157D+01
 Coeff:     -0.708D-04 0.289D-03-0.789D-03 0.491D-03 0.287D-02-0.900D-02
 Coeff:      0.196D-01-0.515D-01 0.174D+00-0.709D+00 0.157D+01
 Gap=     0.347 Goal=   None    Shift=    0.000
 Gap=     0.502 Goal=   None    Shift=    0.000
 RMSDP=6.90D-07 MaxDP=2.07D-06 DE=-7.62D-11 OVMax= 5.43D-06

 Cycle  12  Pass 1  IDiag  3:
 E= 0.925383673972462E-01 Delta-E=       -0.000000000009 Rises=F Damp=F
 DIIS: error= 1.16D-07 at cycle  12 NSaved=  12.
 NSaved=12 IEnMin=12 EnMin= 0.925383673972462E-01 IErMin=12 ErrMin= 1.16D-07
 ErrMax= 1.16D-07  0.00D+00 EMaxC= 1.00D-01 BMatC= 4.30D-13 BMatP= 3.49D-12
 IDIUse=1 WtCom= 1.00D+00 WtEn= 0.00D+00
 Coeff-Com:  0.211D-04-0.132D-03 0.544D-03-0.774D-03-0.564D-03 0.461D-02
 Coeff-Com: -0.130D-01 0.368D-01-0.128D+00 0.559D+00-0.151D+01 0.205D+01
 Coeff:      0.211D-04-0.132D-03 0.544D-03-0.774D-03-0.564D-03 0.461D-02
 Coeff:     -0.130D-01 0.368D-01-0.128D+00 0.559D+00-0.151D+01 0.205D+01
 Gap=     0.347 Goal=   None    Shift=    0.000
 Gap=     0.502 Goal=   None    Shift=    0.000
 RMSDP=2.66D-07 MaxDP=1.12D-06 DE=-9.47D-12 OVMax= 1.73D-06

 Cycle  13  Pass 1  IDiag  3:
 E= 0.925383673961484E-01 Delta-E=       -0.000000000001 Rises=F Damp=F
 DIIS: error= 1.22D-08 at cycle  13 NSaved=  13.
 NSaved=13 IEnMin=13 EnMin= 0.925383673961484E-01 IErMin=13 ErrMin= 1.22D-08
 ErrMax= 1.22D-08  0.00D+00 EMaxC= 1.00D-01 BMatC= 8.99D-15 BMatP= 4.30D-13
 IDIUse=1 WtCom= 1.00D+00 WtEn= 0.00D+00
 Coeff-Com: -0.486D-04 0.194D-03-0.515D-03 0.355D-03 0.168D-02-0.538D-02
 Coeff-Com:  0.116D-01-0.290D-01 0.929D-01-0.388D+00 0.105D+01-0.148D+01
 Coeff-Com:  0.175D+01
 Coeff:     -0.486D-04 0.194D-03-0.515D-03 0.355D-03 0.168D-02-0.538D-02
 Coeff:      0.116D-01-0.290D-01 0.929D-01-0.388D+00 0.105D+01-0.148D+01
 Coeff:      0.175D+01
 Gap=     0.347 Goal=   None    Shift=    0.000
 Gap=     0.502 Goal=   None    Shift=    0.000
 RMSDP=2.54D-08 MaxDP=9.81D-08 DE=-1.10D-12 OVMax= 1.19D-07

 Cycle  14  Pass 1  IDiag  3:
 E= 0.925383673961377E-01 Delta-E=       -0.000000000000 Rises=F Damp=F
 DIIS: error= 2.02D-09 at cycle  14 NSaved=  14.
 NSaved=14 IEnMin=14 EnMin= 0.925383673961377E-01 IErMin=14 ErrMin= 2.02D-09
 ErrMax= 2.02D-09  0.00D+00 EMaxC= 1.00D-01 BMatC= 3.00D-16 BMatP= 8.99D-15
 IDIUse=1 WtCom= 1.00D+00 WtEn= 0.00D+00
 Coeff-Com:  0.219D-04-0.947D-04 0.281D-03-0.254D-03-0.732D-03 0.278D-02
 Coeff-Com: -0.646D-02 0.168D-01-0.553D-01 0.235D+00-0.635D+00 0.905D+00
 Coeff-Com: -0.115D+01 0.169D+01
 Coeff:      0.219D-04-0.947D-04 0.281D-03-0.254D-03-0.732D-03 0.278D-02
 Coeff:     -0.646D-02 0.168D-01-0.553D-01 0.235D+00-0.635D+00 0.905D+00
 Coeff:     -0.115D+01 0.169D+01
 Gap=     0.347 Goal=   None    Shift=    0.000
 Gap=     0.502 Goal=   None    Shift=    0.000
 RMSDP=3.70D-09 MaxDP=1.40D-08 DE=-1.07D-14 OVMax= 1.43D-08

 Cycle  15  Pass 2  IDiag  1:
 SCF Done:  E(UPM6) =  0.925383673961E-01 A.U. after   15 cycles
            NFock= 14  Conv=0.37D-08     -V/T= 1.0043
 <Sx>= 0.0000 <Sy>= 0.0000 <Sz>= 0.5000 <S**2>= 0.7544 S= 0.5022
 <L.S>= 0.000000000000E+00
 KE=-2.166512727607D+01 PE=-2.099284178274D+01 EE= 1.734341031430D+01
 Annihilation of the first spin contaminant:
 S**2 before annihilation     0.7544,   after     0.7500
 Leave Link  502 at Wed Oct 21 14:29:34 2020, MaxMem=  2684354560 cpu:               9.9 elap:               1.5
 (Enter /udrive/faculty/rpeverati/g16/g16/l508.exe)
 QCSCF skips out because SCF is already converged.
 Leave Link  508 at Wed Oct 21 14:29:35 2020, MaxMem=  2684354560 cpu:               0.6 elap:               0.7
 (Enter /udrive/faculty/rpeverati/g16/g16/l701.exe)
 ... and contract with generalized density number  0.
 Compute integral first derivatives.
 Leave Link  701 at Wed Oct 21 14:29:36 2020, MaxMem=  2684354560 cpu:               4.1 elap:               1.0
 (Enter /udrive/faculty/rpeverati/g16/g16/l702.exe)
 L702 exits ... SP integral derivatives will be done elsewhere.
 Leave Link  702 at Wed Oct 21 14:29:37 2020, MaxMem=  2684354560 cpu:               2.1 elap:               0.8
 (Enter /udrive/faculty/rpeverati/g16/g16/l703.exe)
 Integral derivatives from FoFJK, PRISM(SPDF).
 Compute integral first derivatives, UseDBF=F ICtDFT=           0.
 Calling FoFJK, ICntrl=      2127 FMM=F ISym2X=1 I1Cent= 0 IOpClX= 1 NMat=1 NMatS=1 NMatT=0.
 FoFJK:  IHMeth=40 ICntrl=    2127 DoSepK=F KAlg= 0 I1Cent=           0 FoldK=F
 IRaf=         0 NMat=       1 IRICut=       1 DoRegI=T DoRafI=F ISym2E= 1 IDoP0=3 IntGTp=3.
 FoFCou: FMM=F IPFlag=           0 FMFlag=      100000 FMFlg1=         800
         NFxFlg=           0 DoJE=F BraDBF=F KetDBF=F FulRan=T
         wScrn=  0.000000 ICntrl=      2127 IOpCl=  1 I1Cent=           0 NGrid=           0
         NMat0=    1 NMatS0=      1 NMatT0=    0 NMatD0=    1 NMtDS0=    0 NMtDT0=    0
 Petite list used in FoFCou.
 Leave Link  703 at Wed Oct 21 14:29:39 2020, MaxMem=  2684354560 cpu:               3.4 elap:               1.0
 (Enter /udrive/faculty/rpeverati/g16/g16/l716.exe)
 Dipole        = 6.28627722D-01-9.12913432D-01 6.67868650D-16
 ***** Axes restored to original set *****
 -------------------------------------------------------------------
 Center     Atomic                   Forces (Hartrees/Bohr)
 Number     Number              X              Y              Z
 -------------------------------------------------------------------
      1        7           0.000650733   -0.006305041   -0.000000000
      2        7           0.004783326    0.002668830    0.000000000
      3        1          -0.005434059    0.003636211   -0.000000000
 -------------------------------------------------------------------
 Cartesian Forces:  Max     0.006305041 RMS     0.003542298
 Leave Link  716 at Wed Oct 21 14:29:40 2020, MaxMem=  2684354560 cpu:               1.9 elap:               0.8
 (Enter /udrive/faculty/rpeverati/g16/g16/l103.exe)

 GradGradGradGradGradGradGradGradGradGradGradGradGradGradGradGradGradGrad
 Berny optimization.
 Optmz: redundant internal coordinate code flag= 1
 Using GEDIIS/GDIIS optimizer.
 Red2BG:  D1=  8.12D-01 OD1=  6.72D-02 B2RMS=  0.00D+00 IAprox=0
 FormGI is forming the generalized inverse of G from B-inverse, IUseBI=4.
 Internal  Forces:  Max     0.006523790 RMS     0.005269776
 Search for a local minimum.
 Step number   3 out of a maximum of  100
 All quantities printed in internal units (Hartrees-Bohrs-Radians)
 RMS Force = .52698D-02 SwitMx=.10000D-02 MixMth= 1
 Mixed Optimization -- RFO/linear search
 Update second derivatives using D2CorX and points    1    2    3
 DE= -1.34D-03 DEPred=-1.02D-03 R= 1.31D+00
 TightC=F SS=  1.41D+00  RLast= 1.12D-01 DXNew= 8.4853D-01 3.3625D-01
 Trust test= 1.31D+00 RLast= 1.12D-01 DXMaxT set to 5.05D-01
 The second derivative matrix:
                          R1        R2        A1
           R1           1.30849
           R2          -0.00052   0.38832
           A1           0.13459   0.07871   0.13456
 ITU=  1  1  0
 Use linear search instead of GDIIS.
 Eigenvectors of the second derivative matrix:
                           1         2         3
     Eigenvalues --     0.09820   0.40936   1.32380
   1         R1        -0.10682   0.03804   0.99355
   2         R2        -0.26052  -0.96543   0.00896
   3         A1         0.95954  -0.25788   0.11303
 Iter=   1 RLamda= 0.00000000D+00 Sum=-6.11609112D-05.
 Iter=   2 RLamda=-6.11609112D-05 Sum=-6.11516537D-05.
 RFO step:  Lambda=-6.11609112D-05 EMin= 9.82044560D-02
 Quartic linear search produced a step of  0.29569.
 Iteration  1 RMS(Cart)=  0.01483458 RMS(Int)=  0.00017354
 Iteration  2 RMS(Cart)=  0.00019111 RMS(Int)=  0.00000001
 Iteration  3 RMS(Cart)=  0.00000001 RMS(Int)=  0.00000000
 ITry= 1 IFail=0 DXMaxC= 1.94D-02 DCOld= 1.00D+10 DXMaxT= 5.05D-01 DXLimC= 3.00D+00 Rises=F
 ClnCor:  largest displacement from symmetrization is 1.11D-15 for atom     3.
 Variable       Old X    -DE/DX   Delta X   Delta X   Delta X     New X
                                 (Linear)    (Quad)   (Total)
    R1        2.21023  -0.00633  -0.00868   0.00127  -0.00741   2.20282
    R2        1.94424  -0.00652  -0.01058  -0.01121  -0.02179   1.92245
    A1        2.39101   0.00085   0.03019  -0.00490   0.02528   2.41629
         Item               Value     Threshold  Converged?
 Maximum Force            0.006524     0.000450     NO 
 RMS     Force            0.005270     0.000300     NO 
 Maximum Displacement     0.019403     0.001800     NO 
 RMS     Displacement     0.014822     0.001200     NO 
 Predicted change in Energy=-1.080724D-04
 Lowest energy point so far.  Saving SCF results.
 Largest change from initial coordinates is atom    3       0.346 Angstoms.
 GradGradGradGradGradGradGradGradGradGradGradGradGradGradGradGradGradGrad

 Leave Link  103 at Wed Oct 21 14:29:41 2020, MaxMem=  2684354560 cpu:               5.4 elap:               1.2
 (Enter /udrive/faculty/rpeverati/g16/g16/l202.exe)
                          Input orientation:                          
 ---------------------------------------------------------------------
 Center     Atomic      Atomic             Coordinates (Angstroms)
 Number     Number       Type             X           Y           Z
 ---------------------------------------------------------------------
      1          7           0       -0.152159    0.694014    0.000000
      2          7           0        0.051892   -0.453668    0.000000
      3          1           0        0.849579   -1.085039    0.000000
 ---------------------------------------------------------------------
                    Distance matrix (angstroms):
                    1          2          3
     1  N    0.000000
     2  N    1.165680   0.000000
     3  H    2.041693   1.017318   0.000000
 Stoichiometry    HN2(2)
 Framework group  CS[SG(HN2)]
 Deg. of freedom     3
 Full point group                 CS      NOp   2
 RotChk:  IX=3 Diff= 1.75D-02
 Largest Abelian subgroup         CS      NOp   2
 Largest concise Abelian subgroup C1      NOp   1
                         Standard orientation:                         
 ---------------------------------------------------------------------
 Center     Atomic      Atomic             Coordinates (Angstroms)
 Number     Number       Type             X           Y           Z
 ---------------------------------------------------------------------
      1          7           0       -0.044990    0.672447    0.000000
      2          7           0       -0.044990   -0.493234    0.000000
      3          1           0        0.629860   -1.254491    0.000000
 ---------------------------------------------------------------------
 Rotational constants (GHZ):        1359.9878876          44.5555006          43.1420928
 Leave Link  202 at Wed Oct 21 14:29:42 2020, MaxMem=  2684354560 cpu:               2.1 elap:               0.8
 (Enter /udrive/faculty/rpeverati/g16/g16/l301.exe)
 Standard basis: VSTO-6G (5D, 7F)
 Ernie: Thresh=  0.10000D-02 Tol=  0.10000D-05 Strict=F.
  NNHCO=     0 NNPyr=     0 NCTC=     0               EPep=         0.000000000
    EC=        10.954133173  ECS=         0.774600737   EG=         0.000212779
   EHC=         0.000685322  EAt=       -13.272012673  AtH=         0.443183747
 EPDDG=         0.000000000  ECC=        11.729632011 EAtT=        13.715196420
 There are     7 symmetry adapted cartesian basis functions of A'  symmetry.
 There are     2 symmetry adapted cartesian basis functions of A"  symmetry.
 There are     7 symmetry adapted basis functions of A'  symmetry.
 There are     2 symmetry adapted basis functions of A"  symmetry.
     9 basis functions,    54 primitive gaussians,     9 cartesian basis functions
     6 alpha electrons        5 beta electrons
       nuclear repulsion energy        25.4448284306 Hartrees.
 IExCor=    0 DFT=F Ex=HF Corr=None ExCW=0 ScaHFX=  1.000000
 ScaDFX=  1.000000  1.000000  1.000000  1.000000 ScalE2=  1.000000  1.000000
 IRadAn=      5 IRanWt=     -1 IRanGd=            0 ICorTp=0 IEmpDi=  4
 Integral buffers will be    131072 words long.
 Regular integral format.
[...]
 Overlap will be assumed to be unity.
 NGot=  2684354560 LenX=  2684293973 LenY=  2684293091
 Requested convergence on RMS density matrix=1.00D-08 within 120 cycles.
 Requested convergence on MAX density matrix=1.00D-06.
 Requested convergence on             energy=1.00D-06.
 No special actions if energy rises.

 Cycle   1  Pass 1  IDiag  1:
 E= 0.924148506891420E-01
 DIIS: error= 8.04D-05 at cycle   1 NSaved=   1.
 NSaved= 1 IEnMin= 1 EnMin= 0.924148506891420E-01 IErMin= 1 ErrMin= 8.04D-05
 ErrMax= 8.04D-05  0.00D+00 EMaxC= 1.00D-01 BMatC= 3.97D-07 BMatP= 3.97D-07
 IDIUse=1 WtCom= 1.00D+00 WtEn= 0.00D+00
 Coeff-Com:  0.100D+01
 Coeff:      0.100D+01
 RMSDP=5.93D-05 MaxDP=2.01D-04              OVMax= 0.00D+00

 Cycle   2  Pass 1  IDiag  3:
 E= 0.924145426877878E-01 Delta-E=       -0.000000308001 Rises=F Damp=F
 DIIS: error= 2.99D-05 at cycle   2 NSaved=   2.
 NSaved= 2 IEnMin= 2 EnMin= 0.924145426877878E-01 IErMin= 2 ErrMin= 2.99D-05
 ErrMax= 2.99D-05  0.00D+00 EMaxC= 1.00D-01 BMatC= 5.34D-08 BMatP= 3.97D-07
 IDIUse=1 WtCom= 1.00D+00 WtEn= 0.00D+00
 Coeff-Com: -0.466D+00 0.147D+01
 Coeff:     -0.466D+00 0.147D+01
 Gap=     0.346 Goal=   None    Shift=    0.000
 Gap=     0.505 Goal=   None    Shift=    0.000
 RMSDP=3.92D-05 MaxDP=1.36D-04 DE=-3.08D-07 OVMax= 1.66D-04

 Cycle   3  Pass 1  IDiag  3:
 E= 0.924144743395665E-01 Delta-E=       -0.000000068348 Rises=F Damp=F
 DIIS: error= 1.05D-05 at cycle   3 NSaved=   3.
 NSaved= 3 IEnMin= 3 EnMin= 0.924144743395665E-01 IErMin= 3 ErrMin= 1.05D-05
 ErrMax= 1.05D-05  0.00D+00 EMaxC= 1.00D-01 BMatC= 4.17D-09 BMatP= 5.34D-08
 IDIUse=1 WtCom= 1.00D+00 WtEn= 0.00D+00
 Coeff-Com:  0.282D+00-0.101D+01 0.173D+01
 Coeff:      0.282D+00-0.101D+01 0.173D+01
 Gap=     0.346 Goal=   None    Shift=    0.000
 Gap=     0.505 Goal=   None    Shift=    0.000
 RMSDP=1.73D-05 MaxDP=8.71D-05 DE=-6.83D-08 OVMax= 8.73D-05

 Cycle   4  Pass 1  IDiag  3:
 E= 0.924144652442926E-01 Delta-E=       -0.000000009095 Rises=F Damp=F
 DIIS: error= 4.77D-06 at cycle   4 NSaved=   4.
 NSaved= 4 IEnMin= 4 EnMin= 0.924144652442926E-01 IErMin= 4 ErrMin= 4.77D-06
 ErrMax= 4.77D-06  0.00D+00 EMaxC= 1.00D-01 BMatC= 6.88D-10 BMatP= 4.17D-09
 IDIUse=1 WtCom= 1.00D+00 WtEn= 0.00D+00
 Coeff-Com: -0.159D+00 0.592D+00-0.123D+01 0.180D+01
 Coeff:     -0.159D+00 0.592D+00-0.123D+01 0.180D+01
 Gap=     0.346 Goal=   None    Shift=    0.000
 Gap=     0.505 Goal=   None    Shift=    0.000
 RMSDP=8.09D-06 MaxDP=3.98D-05 DE=-9.10D-09 OVMax= 4.44D-05

 Cycle   5  Pass 1  IDiag  3:
 E= 0.924144633589172E-01 Delta-E=       -0.000000001885 Rises=F Damp=F
 DIIS: error= 2.93D-06 at cycle   5 NSaved=   5.
 NSaved= 5 IEnMin= 5 EnMin= 0.924144633589172E-01 IErMin= 5 ErrMin= 2.93D-06
 ErrMax= 2.93D-06  0.00D+00 EMaxC= 1.00D-01 BMatC= 1.83D-10 BMatP= 6.88D-10
 IDIUse=1 WtCom= 1.00D+00 WtEn= 0.00D+00
 Coeff-Com:  0.178D-02-0.174D-01 0.135D+00-0.861D+00 0.174D+01
 Coeff:      0.178D-02-0.174D-01 0.135D+00-0.861D+00 0.174D+01
 Gap=     0.346 Goal=   None    Shift=    0.000
 Gap=     0.505 Goal=   None    Shift=    0.000
 RMSDP=5.36D-06 MaxDP=2.57D-05 DE=-1.89D-09 OVMax= 2.92D-05

 Cycle   6  Pass 1  IDiag  3:
 E= 0.924144627500390E-01 Delta-E=       -0.000000000609 Rises=F Damp=F
 DIIS: error= 1.69D-06 at cycle   6 NSaved=   6.
 NSaved= 6 IEnMin= 6 EnMin= 0.924144627500390E-01 IErMin= 6 ErrMin= 1.69D-06
 ErrMax= 1.69D-06  0.00D+00 EMaxC= 1.00D-01 BMatC= 5.19D-11 BMatP= 1.83D-10
 IDIUse=1 WtCom= 1.00D+00 WtEn= 0.00D+00
 Coeff-Com:  0.313D-01-0.100D+00 0.622D-01 0.889D+00-0.265D+01 0.276D+01
 Coeff:      0.313D-01-0.100D+00 0.622D-01 0.889D+00-0.265D+01 0.276D+01
 Gap=     0.346 Goal=   None    Shift=    0.000
 Gap=     0.505 Goal=   None    Shift=    0.000
 RMSDP=3.81D-06 MaxDP=2.29D-05 DE=-6.09D-10 OVMax= 2.30D-05

 Cycle   7  Pass 1  IDiag  3:
 E= 0.924144625458396E-01 Delta-E=       -0.000000000204 Rises=F Damp=F
 DIIS: error= 6.84D-07 at cycle   7 NSaved=   7.
 NSaved= 7 IEnMin= 7 EnMin= 0.924144625458396E-01 IErMin= 7 ErrMin= 6.84D-07
 ErrMax= 6.84D-07  0.00D+00 EMaxC= 1.00D-01 BMatC= 7.85D-12 BMatP= 5.19D-11
 IDIUse=1 WtCom= 1.00D+00 WtEn= 0.00D+00
 Coeff-Com: -0.377D-01 0.123D+00-0.907D-01-0.980D+00 0.305D+01-0.351D+01
 Coeff-Com:  0.245D+01
 Coeff:     -0.377D-01 0.123D+00-0.907D-01-0.980D+00 0.305D+01-0.351D+01
 Coeff:      0.245D+01
 Gap=     0.346 Goal=   None    Shift=    0.000
 Gap=     0.505 Goal=   None    Shift=    0.000
 RMSDP=1.43D-06 MaxDP=9.25D-06 DE=-2.04D-10 OVMax= 9.33D-06

 Cycle   8  Pass 1  IDiag  3:
 E= 0.924144625163699E-01 Delta-E=       -0.000000000029 Rises=F Damp=F
 DIIS: error= 1.33D-07 at cycle   8 NSaved=   8.
 NSaved= 8 IEnMin= 8 EnMin= 0.924144625163699E-01 IErMin= 8 ErrMin= 1.33D-07
 ErrMax= 1.33D-07  0.00D+00 EMaxC= 1.00D-01 BMatC= 9.67D-13 BMatP= 7.85D-12
 IDIUse=1 WtCom= 1.00D+00 WtEn= 0.00D+00
 Coeff-Com:  0.325D-01-0.106D+00 0.854D-01 0.792D+00-0.250D+01 0.292D+01
 Coeff-Com: -0.232D+01 0.209D+01
 Coeff:      0.325D-01-0.106D+00 0.854D-01 0.792D+00-0.250D+01 0.292D+01
 Coeff:     -0.232D+01 0.209D+01
 Gap=     0.346 Goal=   None    Shift=    0.000
 Gap=     0.505 Goal=   None    Shift=    0.000
 RMSDP=4.64D-07 MaxDP=2.22D-06 DE=-2.95D-11 OVMax= 2.50D-06

 Cycle   9  Pass 1  IDiag  3:
 E= 0.924144625131333E-01 Delta-E=       -0.000000000003 Rises=F Damp=F
 DIIS: error= 5.37D-08 at cycle   9 NSaved=   9.
 NSaved= 9 IEnMin= 9 EnMin= 0.924144625131333E-01 IErMin= 9 ErrMin= 5.37D-08
 ErrMax= 5.37D-08  0.00D+00 EMaxC= 1.00D-01 BMatC= 1.11D-13 BMatP= 9.67D-13
 IDIUse=1 WtCom= 1.00D+00 WtEn= 0.00D+00
 Coeff-Com: -0.290D-01 0.951D-01-0.776D-01-0.698D+00 0.221D+01-0.260D+01
 Coeff-Com:  0.212D+01-0.220D+01 0.217D+01
 Coeff:     -0.290D-01 0.951D-01-0.776D-01-0.698D+00 0.221D+01-0.260D+01
 Coeff:      0.212D+01-0.220D+01 0.217D+01
 Gap=     0.346 Goal=   None    Shift=    0.000
 Gap=     0.505 Goal=   None    Shift=    0.000
 RMSDP=1.43D-07 MaxDP=5.00D-07 DE=-3.24D-12 OVMax= 9.81D-07

 Cycle  10  Pass 1  IDiag  3:
 E= 0.924144625127958E-01 Delta-E=       -0.000000000000 Rises=F Damp=F
 DIIS: error= 1.11D-08 at cycle  10 NSaved=  10.
 NSaved=10 IEnMin=10 EnMin= 0.924144625127958E-01 IErMin=10 ErrMin= 1.11D-08
 ErrMax= 1.11D-08  0.00D+00 EMaxC= 1.00D-01 BMatC= 5.59D-15 BMatP= 1.11D-13
 IDIUse=1 WtCom= 1.00D+00 WtEn= 0.00D+00
 Coeff-Com:  0.243D-01-0.799D-01 0.658D-01 0.581D+00-0.185D+01 0.217D+01
 Coeff-Com: -0.178D+01 0.186D+01-0.197D+01 0.197D+01
 Coeff:      0.243D-01-0.799D-01 0.658D-01 0.581D+00-0.185D+01 0.217D+01
 Coeff:     -0.178D+01 0.186D+01-0.197D+01 0.197D+01
 Gap=     0.346 Goal=   None    Shift=    0.000
 Gap=     0.505 Goal=   None    Shift=    0.000
 RMSDP=2.88D-08 MaxDP=8.27D-08 DE=-3.38D-13 OVMax= 1.96D-07

 Cycle  11  Pass 1  IDiag  3:
 E= 0.924144625127958E-01 Delta-E=        0.000000000000 Rises=F Damp=F
 DIIS: error= 2.19D-09 at cycle  11 NSaved=  11.
 NSaved=11 IEnMin=10 EnMin= 0.924144625127958E-01 IErMin=11 ErrMin= 2.19D-09
 ErrMax= 2.19D-09  0.00D+00 EMaxC= 1.00D-01 BMatC= 2.62D-16 BMatP= 5.59D-15
 IDIUse=1 WtCom= 1.00D+00 WtEn= 0.00D+00
 Coeff-Com: -0.156D-01 0.511D-01-0.422D-01-0.371D+00 0.118D+01-0.139D+01
 Coeff-Com:  0.113D+01-0.119D+01 0.127D+01-0.140D+01 0.177D+01
 Coeff:     -0.156D-01 0.511D-01-0.422D-01-0.371D+00 0.118D+01-0.139D+01
 Coeff:      0.113D+01-0.119D+01 0.127D+01-0.140D+01 0.177D+01
 Gap=     0.346 Goal=   None    Shift=    0.000
 Gap=     0.505 Goal=   None    Shift=    0.000
 RMSDP=5.21D-09 MaxDP=1.85D-08 DE= 0.00D+00 OVMax= 2.24D-08

 Cycle  12  Pass 2  IDiag  1:
 SCF Done:  E(UPM6) =  0.924144625128E-01 A.U. after   12 cycles
            NFock= 11  Conv=0.52D-08     -V/T= 1.0043
 <Sx>= 0.0000 <Sy>= 0.0000 <Sz>= 0.5000 <S**2>= 0.7540 S= 0.5020
 <L.S>= 0.000000000000E+00
 KE=-2.167490162005D+01 PE=-2.104370649152D+01 EE= 1.736288931626D+01
 Annihilation of the first spin contaminant:
 S**2 before annihilation     0.7540,   after     0.7500
 Leave Link  502 at Wed Oct 21 14:30:21 2020, MaxMem=  2684354560 cpu:               8.6 elap:               1.4
 (Enter /udrive/faculty/rpeverati/g16/g16/l508.exe)
 QCSCF skips out because SCF is already converged.
 Leave Link  508 at Wed Oct 21 14:30:22 2020, MaxMem=  2684354560 cpu:               0.7 elap:               0.7
 (Enter /udrive/faculty/rpeverati/g16/g16/l701.exe)
 ... and contract with generalized density number  0.
 Compute integral first derivatives.
 Leave Link  701 at Wed Oct 21 14:30:23 2020, MaxMem=  2684354560 cpu:               3.9 elap:               1.0
 (Enter /udrive/faculty/rpeverati/g16/g16/l702.exe)
 L702 exits ... SP integral derivatives will be done elsewhere.
 Leave Link  702 at Wed Oct 21 14:30:24 2020, MaxMem=  2684354560 cpu:               2.3 elap:               0.9
 (Enter /udrive/faculty/rpeverati/g16/g16/l703.exe)
 Integral derivatives from FoFJK, PRISM(SPDF).
 Compute integral first derivatives, UseDBF=F ICtDFT=           0.
 Calling FoFJK, ICntrl=      2127 FMM=F ISym2X=1 I1Cent= 0 IOpClX= 1 NMat=1 NMatS=1 NMatT=0.
 FoFJK:  IHMeth=40 ICntrl=    2127 DoSepK=F KAlg= 0 I1Cent=           0 FoldK=F
 IRaf=         0 NMat=       1 IRICut=       1 DoRegI=T DoRafI=F ISym2E= 1 IDoP0=3 IntGTp=3.
 FoFCou: FMM=F IPFlag=           0 FMFlag=      100000 FMFlg1=         800
         NFxFlg=           0 DoJE=F BraDBF=F KetDBF=F FulRan=T
         wScrn=  0.000000 ICntrl=      2127 IOpCl=  1 I1Cent=           0 NGrid=           0
         NMat0=    1 NMatS0=      1 NMatT0=    0 NMatD0=    1 NMtDS0=    0 NMtDT0=    0
 Petite list used in FoFCou.
 Leave Link  703 at Wed Oct 21 14:30:25 2020, MaxMem=  2684354560 cpu:               3.2 elap:               0.9
 (Enter /udrive/faculty/rpeverati/g16/g16/l716.exe)
 Dipole        = 6.12152666D-01-9.25988057D-01-5.38965547D-16
 ***** Axes restored to original set *****
 -------------------------------------------------------------------
 Center     Atomic                   Forces (Hartrees/Bohr)
 Number     Number              X              Y              Z
 -------------------------------------------------------------------
      1        7           0.000005836    0.000018280   -0.000000000
      2        7          -0.000013779   -0.000025119    0.000000000
      3        1           0.000007943    0.000006839   -0.000000000
 -------------------------------------------------------------------
 Cartesian Forces:  Max     0.000025119 RMS     0.000012013
 Leave Link  716 at Wed Oct 21 14:30:27 2020, MaxMem=  2684354560 cpu:               2.0 elap:               0.8
 (Enter /udrive/faculty/rpeverati/g16/g16/l103.exe)

 GradGradGradGradGradGradGradGradGradGradGradGradGradGradGradGradGradGrad
 Berny optimization.
 Optmz: redundant internal coordinate code flag= 1
 Using GEDIIS/GDIIS optimizer.
 Red2BG:  D1=  8.22D-01 OD1=  4.38D-04 B2RMS=  0.00D+00 IAprox=0
 FormGI is forming the generalized inverse of G from B-inverse, IUseBI=4.
 Internal  Forces:  Max     0.000019709 RMS     0.000015063
 Search for a local minimum.
 Step number   6 out of a maximum of  100
 All quantities printed in internal units (Hartrees-Bohrs-Radians)
 RMS Force = .15063D-04 SwitMx=.10000D-02 MixMth= 2
 Mixed Optimization -- En-DIIS/RFO-DIIS
 Swapping is turned off.
 Update second derivatives using D2CorX and points    3    4    5    6
 DE= -5.53D-07 DEPred=-5.37D-07 R= 1.03D+00
 Trust test= 1.03D+00 RLast= 2.09D-03 DXMaxT set to 5.05D-01
 The second derivative matrix:
                          R1        R2        A1
           R1           1.33026
           R2           0.04406   0.25387
           A1           0.13363   0.03695   0.12007
 ITU=  0  1  1  1
 Eigenvectors of the second derivative matrix:
                           1         2         3
     Eigenvalues --     0.09883   0.25844   1.34693
   1         R1        -0.09839   0.06494   0.99303
   2         R2        -0.20414  -0.97796   0.04373
   3         A1         0.97398  -0.19841   0.10948
 DoSqrt=T IScMMF=    -3 MM Scaling Factor =       0.00000
 En-DIIS/RFO-DIIS/Sim-DIIS IScMMF=       -3 using points:     6    5
 Iter=   1 RLamda= 0.00000000D+00 Sum=-4.77826915D-09.
 RFO step:  Lambda= 0.00000000D+00.
 NNeg= 0 NGDIIS= 2 SimSw=  2.50D-01 Rises=F DC= -5.53D-07 SmlDif=  1.00D-05
 NRisDI= 0 DoIntr=F SqrtH=F CThrHd= 10.0 CDAdj=  3.0
 RMS Error=  0.1246352928D-03 NUsed= 2 OKEnD=F EnDIS=F
 Total RFO-DIIS matrix:
                 1             2             3 
      1   0.000000D+00 -0.100000D+01 -0.100000D+01
      2  -0.100000D+01  0.466019D-07  0.335317D-06
      3  -0.100000D+01  0.335317D-06  0.501122D-05
 InvSVX:  RCond= 1.10D-06 Info=           0 Equed=N FErr=  1.04D-15 BErr=  7.41D-17
 DidBck=F Rises=F RFO-DIIS coefs:    1.06581   -0.06581
 Iteration  1 RMS(Cart)=  0.00010739 RMS(Int)=  0.00000001
 Iteration  2 RMS(Cart)=  0.00000001 RMS(Int)=  0.00000000
 ITry= 1 IFail=0 DXMaxC= 1.21D-04 DCOld= 1.00D+10 DXMaxT= 5.05D-01 DXLimC= 3.00D+00 Rises=F
 ClnCor:  largest displacement from symmetrization is 4.97D-16 for atom     3.
 Variable       Old X    -DE/DX   Delta X   Delta X   Delta X     New X
                                 (Linear)    (Quad)   (Total)
    R1        2.20410   0.00002   0.00004  -0.00001   0.00003   2.20413
    R2        1.91544   0.00000  -0.00009   0.00012   0.00003   1.91547
    A1        2.41467  -0.00002  -0.00010  -0.00011  -0.00021   2.41446
         Item               Value     Threshold  Converged?
 Maximum Force            0.000020     0.000450     YES
 RMS     Force            0.000015     0.000300     YES
 Maximum Displacement     0.000121     0.001800     YES
 RMS     Displacement     0.000107     0.001200     YES
 Predicted change in Energy=-2.389135D-09
 Optimization completed.
    -- Stationary point found.
                           ----------------------------
                           !   Optimized Parameters   !
                           ! (Angstroms and Degrees)  !
 --------------------------                            --------------------------
 ! Name  Definition              Value          Derivative Info.                !
 --------------------------------------------------------------------------------
 ! R1    R(1,2)                  1.1664         -DE/DX =    0.0                 !
 ! R2    R(2,3)                  1.0136         -DE/DX =    0.0                 !
 ! A1    A(1,2,3)              138.3503         -DE/DX =    0.0                 !
 --------------------------------------------------------------------------------
 Lowest energy point so far.  Saving SCF results.
 Largest change from initial coordinates is atom    3       0.362 Angstoms.
 GradGradGradGradGradGradGradGradGradGradGradGradGradGradGradGradGradGrad

 Leave Link  103 at Wed Oct 21 14:30:28 2020, MaxMem=  2684354560 cpu:               5.0 elap:               1.2
 (Enter /udrive/faculty/rpeverati/g16/g16/l202.exe)
                          Input orientation:                          
 ---------------------------------------------------------------------
 Center     Atomic      Atomic             Coordinates (Angstroms)
 Number     Number       Type             X           Y           Z
 ---------------------------------------------------------------------
      1          7           0       -0.151393    0.693351    0.000000
      2          7           0        0.052524   -0.455045    0.000000
      3          1           0        0.848181   -1.082999    0.000000
 ---------------------------------------------------------------------
                    Distance matrix (angstroms):
                    1          2          3
     1  N    0.000000
     2  N    1.166359   0.000000
     3  H    2.038275   1.013606   0.000000
 Stoichiometry    HN2(2)
 Framework group  CS[SG(HN2)]
 Deg. of freedom     3
 Full point group                 CS      NOp   2
 RotChk:  IX=3 Diff= 0.00D+00
 Largest Abelian subgroup         CS      NOp   2
 Largest concise Abelian subgroup C1      NOp   1
                         Standard orientation:                         
 ---------------------------------------------------------------------
 Center     Atomic      Atomic             Coordinates (Angstroms)
 Number     Number       Type             X           Y           Z
 ---------------------------------------------------------------------
      1          7           0       -0.044908    0.672551    0.000000
      2          7           0       -0.044908   -0.493808    0.000000
      3          1           0        0.628709   -1.251197    0.000000
 ---------------------------------------------------------------------
 Rotational constants (GHZ):        1363.5308213          44.5507040          43.1411512
 Leave Link  202 at Wed Oct 21 14:30:29 2020, MaxMem=  2684354560 cpu:               2.2 elap:               0.9
 (Enter /udrive/faculty/rpeverati/g16/g16/l601.exe)
 Copying SCF densities to generalized density rwf, IOpCl= 1 IROHF=0.

 **********************************************************************

            Population analysis using the SCF density.

 **********************************************************************

 Orbital symmetries:
 Alpha Orbitals:
       Occupied  (A') (A') (A') (A") (A') (A')
       Virtual   (A") (A') (A')
 Beta  Orbitals:
       Occupied  (A') (A') (A") (A') (A')
       Virtual   (A") (A') (A') (A')
 The electronic state is 2-A'.
 Alpha  occ. eigenvalues --   -1.32420  -0.88114  -0.62281  -0.56920  -0.52279
 Alpha  occ. eigenvalues --   -0.34269
 Alpha virt. eigenvalues --    0.00317   0.08769   0.20130
  Beta  occ. eigenvalues --   -1.29928  -0.85181  -0.55178  -0.54688  -0.48024
  Beta virt. eigenvalues --    0.02508   0.02609   0.11159   0.23870
          Condensed to atoms (all electrons):
               1          2          3
     1  N    5.147358   0.000000   0.000000
     2  N    0.000000   5.094780   0.000000
     3  H    0.000000   0.000000   0.757863
          Atomic-Atomic Spin Densities.
               1          2          3
     1  N    0.662852   0.000000   0.000000
     2  N    0.000000   0.246059   0.000000
     3  H    0.000000   0.000000   0.091089
 Mulliken charges and spin densities:
               1          2
     1  N   -0.147358   0.662852
     2  N   -0.094780   0.246059
     3  H    0.242137   0.091089
 Sum of Mulliken charges =   0.00000   1.00000
 Mulliken charges and spin densities with hydrogens summed into heavy atoms:
               1          2
     1  N   -0.147358   0.662852
     2  N    0.147358   0.337148
 Charge=              0.0000 electrons
 Dipole moment (field-independent basis, Debye):
    X=              1.5559    Y=             -2.3536    Z=             -0.0000  Tot=              2.8214
 N-N= 2.544813325783D+01 E-N=-2.104370649261D+01  KE=-2.167490162005D+01
 Leave Link  601 at Wed Oct 21 14:30:30 2020, MaxMem=  2684354560 cpu:               2.7 elap:               0.9
 (Enter /udrive/faculty/rpeverati/g16/g16/l9999.exe)

 Test job not archived.
 1\1\GINC-NODE21\FOpt\UPM6\ZDO\H1N2(2)\RPEVERATI\21-Oct-2020\0\\#P Opt(
 MaxCyc=150) PM6 5D 7F Integral=UltraFineGrid SCF=(NoSymm,XQC,MaxCyc=12
 0) IOp(1/33=1)\\TS search on BH76.\\0,2\N,-0.1513930941,0.6933506664,0
 .\N,0.0525237037,-0.4550446499,0.\H,0.8481811459,-1.0829987891,0.\\Ver
 sion=ES64L-G16RevA.03\State=2-A'\HF=0.0924145\S2=0.754028\S2-1=0.\S2A=
 0.750011\RMSD=5.206e-09\RMSF=1.201e-05\Dipole=0.7646167,-0.8047025,0.\
 PG=CS [SG(H1N2)]\\@


 THERE IS AN OLD, OLD RECIPE IN MAINE FOR STEWING COOT. PLACE THE
 BIRD IN A KETTLE OF WATER WITH A RED BUILDING BRICK FREE OF MORTAR AND
 BLEMISHES. PARBOIL THE COOT AND BRICK TOGETHER FOR THREE HOURS.
 POUR OFF THE WATER, REFILL THE KETTLE, AND AGAIN PARBOIL FOR THREE HOURS.
 ONCE AGAIN POUR OFF THE WATER, FOR THE LAST TIME ADD FRESH WATER,
 AND LET THE COOT AND BRICK SIMMER TOGETHER OVERNIGHT. IN THE MORNING,
 THROW AWAY THE COOT AND EAT THE BRICK.
 Job cpu time:       0 days  0 hours  4 minutes 56.0 seconds.
 Elapsed time:       0 days  0 hours  1 minutes 15.9 seconds.
 File lengths (MBytes):  RWF=      5 Int=      0 D2E=      0 Chk=      2 Scr=      1
 Normal termination of Gaussian 16 at Wed Oct 21 14:30:33 2020.
