 Entering Gaussian System, Link 0=g16
 Input=MN_51_hcots_BH76_PM6_SE.in
 Output=MN_51_hcots_BH76_PM6_SE.log
 Initial command:
 /udrive/faculty/rpeverati/g16/g16/l1.exe "/udrive/scratch-directories/gaussian09/rpeverati/Gau-17910.inp" -scrdir="/udrive/scratch-directories/gaussian09/rpeverati/"
 Entering Link 1 = /udrive/faculty/rpeverati/g16/g16/l1.exe PID=     17911.
  
 Copyright (c) 1988,1990,1992,1993,1995,1998,2003,2009,2016,
            Gaussian, Inc.  All Rights Reserved.
  
 This is part of the Gaussian(R) 16 program.  It is based on
 the Gaussian(R) 09 system (copyright 2009, Gaussian, Inc.),
 the Gaussian(R) 03 system (copyright 2003, Gaussian, Inc.),
 the Gaussian(R) 98 system (copyright 1998, Gaussian, Inc.),
 the Gaussian(R) 94 system (copyright 1995, Gaussian, Inc.),
 the Gaussian 92(TM) system (copyright 1992, Gaussian, Inc.),
 the Gaussian 90(TM) system (copyright 1990, Gaussian, Inc.),
 the Gaussian 88(TM) system (copyright 1988, Gaussian, Inc.),
 the Gaussian 86(TM) system (copyright 1986, Carnegie Mellon
 University), and the Gaussian 82(TM) system (copyright 1983,
 Carnegie Mellon University). Gaussian is a federally registered
 trademark of Gaussian, Inc.
  
 This software contains proprietary and confidential information,
 including trade secrets, belonging to Gaussian, Inc.
  
 This software is provided under written license and may be
 used, copied, transmitted, or stored only in accord with that
 written license.
  
 The following legend is applicable only to US Government
 contracts under FAR:
  
                    RESTRICTED RIGHTS LEGEND
  
 Use, reproduction and disclosure by the US Government is
 subject to restrictions as set forth in subparagraphs (a)
 and (c) of the Commercial Computer Software - Restricted
 Rights clause in FAR 52.227-19.
  
 Gaussian, Inc.
 340 Quinnipiac St., Bldg. 40, Wallingford CT 06492
  
  
 ---------------------------------------------------------------
 Warning -- This program may not be used in any manner that
 competes with the business of Gaussian, Inc. or will provide
 assistance to any competitor of Gaussian, Inc.  The licensee
 of this program is prohibited from giving any competitor of
 Gaussian, Inc. access to this program.  By using this program,
 the user acknowledges that Gaussian, Inc. is engaged in the
 business of creating and licensing software in the field of
 computational chemistry and represents and warrants to the
 licensee that it is not a competitor of Gaussian, Inc. and that
 it will not use this program in any manner prohibited above.
 ---------------------------------------------------------------
  

 Cite this work as:
 Gaussian 16, Revision A.03,
 M. J. Frisch, G. W. Trucks, H. B. Schlegel, G. E. Scuseria, 
 M. A. Robb, J. R. Cheeseman, G. Scalmani, V. Barone, 
 G. A. Petersson, H. Nakatsuji, X. Li, M. Caricato, A. V. Marenich, 
 J. Bloino, B. G. Janesko, R. Gomperts, B. Mennucci, H. P. Hratchian, 
 J. V. Ortiz, A. F. Izmaylov, J. L. Sonnenberg, D. Williams-Young, 
 F. Ding, F. Lipparini, F. Egidi, J. Goings, B. Peng, A. Petrone, 
 T. Henderson, D. Ranasinghe, V. G. Zakrzewski, J. Gao, N. Rega, 
 G. Zheng, W. Liang, M. Hada, M. Ehara, K. Toyota, R. Fukuda, 
 J. Hasegawa, M. Ishida, T. Nakajima, Y. Honda, O. Kitao, H. Nakai, 
 T. Vreven, K. Throssell, J. A. Montgomery, Jr., J. E. Peralta, 
 F. Ogliaro, M. J. Bearpark, J. J. Heyd, E. N. Brothers, K. N. Kudin, 
 V. N. Staroverov, T. A. Keith, R. Kobayashi, J. Normand, 
 K. Raghavachari, A. P. Rendell, J. C. Burant, S. S. Iyengar, 
 J. Tomasi, M. Cossi, J. M. Millam, M. Klene, C. Adamo, R. Cammi, 
 J. W. Ochterski, R. L. Martin, K. Morokuma, O. Farkas, 
 J. B. Foresman, and D. J. Fox, Gaussian, Inc., Wallingford CT, 2016.
 
 ******************************************
 Gaussian 16:  ES64L-G16RevA.03 25-Dec-2016
                21-Oct-2020 
 ******************************************
 %NoSave
 %nproc=12
 Will use up to   12 processors via shared memory.
 %mem=20GB
 %chk=MN_51_hcots_BH76_PM6_SE
 ----------------------------------------------------------------------
 #P Opt(TS,MaxCyc=50,NoEigenTest,MaxStep=10,AddRedundant) PM6 5D 7F Int
 egral=UltraFineGrid SCF=(NoSymm,XQC,MaxCyc=120) IOp(1/33=1)
 ----------------------------------------------------------------------
 1/5=1,6=50,8=10,11=1,18=120,26=1,33=1,38=1/1,3;
 2/9=110,12=2,17=6,18=5,40=1/2;
 3/5=2,8=11,25=1,41=3900000,71=1,75=-5/1,2,3;
 4/9=2,35=1/1;
 5/5=2,7=120,8=3,13=1,35=1,38=5/2,8;
 6/7=2,8=2,9=2,10=2,28=1/1;
 7//1,2,3,16;
 1/5=1,6=50,8=10,11=1,18=20,26=1,33=1/3(2);
 2/9=110/2;
 99//99;
 2/9=110/2;
 3/5=2,8=11,25=1,41=3900000,71=1,75=-5,135=20/1,2,3;
 4/5=5,9=2,16=3,35=1/1;
 5/5=2,7=120,8=3,13=1,35=1,38=5/2,8;
 7//1,2,3,16;
 1/5=1,6=50,8=10,11=1,18=20,26=1,33=1/3(-5);
 2/9=110/2;
 6/7=2,8=2,9=2,10=2,19=2,28=1/1;
 99/9=1/99;
 Leave Link    1 at Wed Oct 21 14:28:08 2020, MaxMem=  2684354560 cpu:              13.7 elap:               1.4
 (Enter /udrive/faculty/rpeverati/g16/g16/l101.exe)
 ONIOM data not found on unit 2.
 ------------------
 TS search on BH76.
 ------------------
 TstMul:  ICh=     0
 TstMul:  Mul=     2
 TstMul:  ICh=     0
 TstMul:  Mul=     2
 Symbolic Z-matrix:
 Charge =  0 Multiplicity = 2
 H                    -1.52087   1.38883   0. 
 C                     0.10863   0.54933   0. 
 O                     0.10863  -0.5856    0. 
 
 RdStrC is calling ZToCFu for IStruc=1 NZ=     3.
 PrtBox:  NBox=     1 Levels=  1 BoxLen=    8.00 SMaxX=        3.73
          Shift=            2.874020            1.106630            0.000000
 Box      1 Number                   0 centers from      1 to      3:
 After GenITR:
 ITRead=  0  0  0
 MicOpt= -1 -1 -1
 Add virtual bond connecting atoms C2         and H1         Dist= 3.46D+00.
 The following ModRedundant input section has been read:
 
 ITRead=  0  0  0
 MicOpt= -1 -1 -1
 NAtoms=      3 NQM=        3 NQMF=       0 NMMI=      0 NMMIF=      0
                NMic=       0 NMicF=      0.
                    Isotopes and Nuclear Properties:
 (Nuclear quadrupole moments (NQMom) in fm**2, nuclear magnetic moments (NMagM)
  in nuclear magnetons)

  Atom         1           2           3
 IAtWgt=           1          12          16
 AtmWgt=   1.0078250  12.0000000  15.9949146
 NucSpn=           1           0           0
 AtZEff=   0.0000000   0.0000000   0.0000000
 NQMom=    0.0000000   0.0000000   0.0000000
 NMagM=    2.7928460   0.0000000   0.0000000
 AtZNuc=   1.0000000   6.0000000   8.0000000
 No MM parameters found.
 Leave Link  101 at Wed Oct 21 14:28:10 2020, MaxMem=  2684354560 cpu:               4.3 elap:               0.8
 (Enter /udrive/faculty/rpeverati/g16/g16/l103.exe)

 GradGradGradGradGradGradGradGradGradGradGradGradGradGradGradGradGradGrad
 Berny optimization.
 Optmz: redundant internal coordinate code flag= 1
 Initialization pass.
                           ----------------------------
                           !    Initial Parameters    !
                           ! (Angstroms and Degrees)  !
 --------------------------                            --------------------------
 ! Name  Definition              Value          Derivative Info.                !
 --------------------------------------------------------------------------------
 ! R1    R(1,2)                  1.833          estimate D2E/DX2                !
 ! R2    R(2,3)                  1.1349         estimate D2E/DX2                !
 ! A1    A(1,2,3)              117.2571         estimate D2E/DX2                !
 --------------------------------------------------------------------------------
 Maximum allowed force set to 1.00D+20.
 Trust Radius=1.00D-01 FncErr=1.00D-07 GrdErr=1.00D-07 EigMax=2.50D+02 EigMin=1.00D-04
 Number of steps in this run=     50 maximum allowed number of steps=    100.
 Search for a saddle point of order  1.
 GradGradGradGradGradGradGradGradGradGradGradGradGradGradGradGradGradGrad

 Leave Link  103 at Wed Oct 21 14:28:12 2020, MaxMem=  2684354560 cpu:               1.5 elap:               1.2
 (Enter /udrive/faculty/rpeverati/g16/g16/l202.exe)
                          Input orientation:                          
 ---------------------------------------------------------------------
 Center     Atomic      Atomic             Coordinates (Angstroms)
 Number     Number       Type             X           Y           Z
 ---------------------------------------------------------------------
      1          1           0       -1.520866    1.388831    0.000000
      2          6           0        0.108633    0.549328    0.000000
      3          8           0        0.108633   -0.585603    0.000000
 ---------------------------------------------------------------------
                    Distance matrix (angstroms):
                    1          2          3
     1  H    0.000000
     2  C    1.833039   0.000000
     3  O    2.560011   1.134932   0.000000
 Stoichiometry    CHO(2)
 Framework group  CS[SG(CHO)]
 Deg. of freedom     3
 Full point group                 CS      NOp   2
 Largest Abelian subgroup         CS      NOp   2
 Largest concise Abelian subgroup C1      NOp   1
                         Standard orientation:                         
 ---------------------------------------------------------------------
 Center     Atomic      Atomic             Coordinates (Angstroms)
 Number     Number       Type             X           Y           Z
 ---------------------------------------------------------------------
      1          1           0       -1.520866    1.388833    0.000000
      2          6           0        0.108633    0.549330    0.000000
      3          8           0        0.108633   -0.585602    0.000000
 ---------------------------------------------------------------------
 Rotational constants (GHZ):         257.0333471          43.5600102          37.2475803
 Leave Link  202 at Wed Oct 21 14:28:14 2020, MaxMem=  2684354560 cpu:               3.6 elap:               1.9
 (Enter /udrive/faculty/rpeverati/g16/g16/l301.exe)
 Standard basis: VSTO-6G (5D, 7F)
 Ernie: Thresh=  0.10000D-02 Tol=  0.10000D-05 Strict=F.
  NNHCO=     0 NNPyr=     0 NCTC=     0               EPep=         0.000000000
    EC=         9.906654001  ECS=         0.591967362   EG=         0.034828636
   EHC=         0.000769384  EAt=       -15.198629379  AtH=         0.450273680
 EPDDG=         0.000000000  ECC=        10.534219383 EAtT=        15.648903059
 There are     7 symmetry adapted cartesian basis functions of A'  symmetry.
 There are     2 symmetry adapted cartesian basis functions of A"  symmetry.
 There are     7 symmetry adapted basis functions of A'  symmetry.
 There are     2 symmetry adapted basis functions of A"  symmetry.
     9 basis functions,    54 primitive gaussians,     9 cartesian basis functions
     6 alpha electrons        5 beta electrons
       nuclear repulsion energy        26.1831224418 Hartrees.
 IExCor=    0 DFT=F Ex=HF Corr=None ExCW=0 ScaHFX=  1.000000
 ScaDFX=  1.000000  1.000000  1.000000  1.000000 ScalE2=  1.000000  1.000000
 IRadAn=      5 IRanWt=     -1 IRanGd=            0 ICorTp=0 IEmpDi=  4
 Integral buffers will be    131072 words long.
 Regular integral format.
 Two-electron integral symmetry is turned off.
 Leave Link  301 at Wed Oct 21 14:28:16 2020, MaxMem=  2684354560 cpu:               3.9 elap:               1.3
 (Enter /udrive/faculty/rpeverati/g16/g16/l302.exe)
 Do NDO integrals.
 NPDir=0 NMtPBC=     1 NCelOv=     1 NCel=       1 NClECP=     1 NCelD=      1
         NCelK=      1 NCelE2=     1 NClLst=     1 CellRange=     0.0.
 One-electron integrals computed using PRISM.
 NBasis=     9 RedAO= T EigKep=  1.00D+00  NBF=     7     2
 NBsUse=     9 1.00D-06 EigRej= -1.00D+00 NBFU=     7     2
 Leave Link  302 at Wed Oct 21 14:28:18 2020, MaxMem=  2684354560 cpu:               3.3 elap:               1.5
 (Enter /udrive/faculty/rpeverati/g16/g16/l303.exe)
 DipDrv:  MaxL=1.
 Leave Link  303 at Wed Oct 21 14:28:20 2020, MaxMem=  2684354560 cpu:               4.4 elap:               1.4
 (Enter /udrive/faculty/rpeverati/g16/g16/l401.exe)
 SCF N**3 symmetry information disabled.
 Simple Huckel Guess.
 JPrj=0 DoOrth=F DoCkMO=F.
 Initial guess orbital symmetries:
 Alpha Orbitals:
       Occupied  (A') (A') (A') (A") (A') (A')
       Virtual   (A") (A') (A')
 Beta  Orbitals:
       Occupied  (A') (A') (A') (A") (A')
       Virtual   (A') (A") (A') (A')
 The electronic state of the initial guess is 2-A'.
 Initial guess <Sx>= 0.0000 <Sy>= 0.0000 <Sz>= 0.5000 <S**2>= 0.7500 S= 0.5000
 Leave Link  401 at Wed Oct 21 14:28:21 2020, MaxMem=  2684354560 cpu:               2.8 elap:               1.3
 (Enter /udrive/faculty/rpeverati/g16/g16/l502.exe)
 Keep J ints in memory in canonical form, NReq=859290.
 FoFCou: FMM=F IPFlag=           0 FMFlag=           0 FMFlg1=           0
         NFxFlg=           0 DoJE=F BraDBF=F KetDBF=F FulRan=T
         wScrn=  0.000000 ICntrl=       600 IOpCl=  2 I1Cent=           0 NGrid=           0
         NMat0=    1 NMatS0=     21 NMatT0=    0 NMatD0=    1 NMtDS0=    0 NMtDT0=    0
 Symmetry not used in FoFCou.
 Two-electron integral symmetry not used.
 UHF open shell SCF:
 Using DIIS extrapolation, IDIIS=  1040.
 Overlap will be assumed to be unity.
 NGot=  2684354560 LenX=  2684293973 LenY=  2684293091
 Requested convergence on RMS density matrix=1.00D-08 within 120 cycles.
 Requested convergence on MAX density matrix=1.00D-06.
 Requested convergence on             energy=1.00D-06.
 No special actions if energy rises.

 Cycle   1  Pass 1  IDiag  1:
 E= 0.228875968119713    
 DIIS: error= 5.51D-02 at cycle   1 NSaved=   1.
 NSaved= 1 IEnMin= 1 EnMin= 0.228875968119713     IErMin= 1 ErrMin= 5.51D-02
 ErrMax= 5.51D-02  0.00D+00 EMaxC= 1.00D-01 BMatC= 1.38D-01 BMatP= 1.38D-01
 IDIUse=3 WtCom= 4.49D-01 WtEn= 5.51D-01
 Coeff-Com:  0.100D+01
 Coeff-En:   0.100D+01
 Coeff:      0.100D+01
 GapD=    2.000 DampG=2.000 DampE=0.500 DampFc=1.0000 IDamp=-1.
 RMSDP=4.13D-02 MaxDP=2.45D-01              OVMax= 0.00D+00

 Cycle   2  Pass 1  IDiag  1:
 E= 0.107741780214482     Delta-E=       -0.121134187905 Rises=F Damp=F
 DIIS: error= 2.08D-02 at cycle   2 NSaved=   2.
 NSaved= 2 IEnMin= 2 EnMin= 0.107741780214482     IErMin= 2 ErrMin= 2.08D-02
 ErrMax= 2.08D-02  0.00D+00 EMaxC= 1.00D-01 BMatC= 1.90D-02 BMatP= 1.38D-01
 IDIUse=3 WtCom= 7.92D-01 WtEn= 2.08D-01
 Coeff-Com: -0.341D+00 0.134D+01
 Coeff-En:   0.000D+00 0.100D+01
 Coeff:     -0.270D+00 0.127D+01
 RMSDP=2.18D-02 MaxDP=1.08D-01 DE=-1.21D-01 OVMax= 0.00D+00

 Cycle   3  Pass 1  IDiag  1:
 E= 0.799998718779023E-01 Delta-E=       -0.027741908337 Rises=F Damp=F
 DIIS: error= 1.53D-02 at cycle   3 NSaved=   3.
 NSaved= 3 IEnMin= 3 EnMin= 0.799998718779023E-01 IErMin= 3 ErrMin= 1.53D-02
 ErrMax= 1.53D-02  0.00D+00 EMaxC= 1.00D-01 BMatC= 5.36D-03 BMatP= 1.90D-02
 IDIUse=3 WtCom= 8.47D-01 WtEn= 1.53D-01
 Coeff-Com:  0.875D-01-0.656D+00 0.157D+01
 Coeff-En:   0.000D+00 0.000D+00 0.100D+01
 Coeff:      0.741D-01-0.556D+00 0.148D+01
 RMSDP=1.86D-02 MaxDP=9.43D-02 DE=-2.77D-02 OVMax= 0.00D+00

 Cycle   4  Pass 1  IDiag  3:
 E= 0.660784712894511E-01 Delta-E=       -0.013921400588 Rises=F Damp=F
 DIIS: error= 1.05D-02 at cycle   4 NSaved=   4.
 NSaved= 4 IEnMin= 4 EnMin= 0.660784712894511E-01 IErMin= 4 ErrMin= 1.05D-02
 ErrMax= 1.05D-02  0.00D+00 EMaxC= 1.00D-01 BMatC= 2.03D-03 BMatP= 5.36D-03
 IDIUse=3 WtCom= 8.95D-01 WtEn= 1.05D-01
 Coeff-Com: -0.534D-01 0.635D+00-0.223D+01 0.265D+01
 Coeff-En:   0.000D+00 0.000D+00 0.000D+00 0.100D+01
 Coeff:     -0.478D-01 0.569D+00-0.200D+01 0.248D+01
 Gap=     0.423 Goal=   None    Shift=    0.000
 Gap=     0.468 Goal=   None    Shift=    0.000
 RMSDP=2.09D-02 MaxDP=1.04D-01 DE=-1.39D-02 OVMax= 1.48D-01

 Cycle   5  Pass 1  IDiag  3:
 E= 0.590093796148921E-01 Delta-E=       -0.007069091675 Rises=F Damp=F
 DIIS: error= 2.35D-03 at cycle   5 NSaved=   5.
 NSaved= 5 IEnMin= 5 EnMin= 0.590093796148921E-01 IErMin= 5 ErrMin= 2.35D-03
 ErrMax= 2.35D-03  0.00D+00 EMaxC= 1.00D-01 BMatC= 2.10D-04 BMatP= 2.03D-03
 IDIUse=3 WtCom= 9.77D-01 WtEn= 2.35D-02
 Coeff-Com:  0.267D-01-0.316D+00 0.121D+01-0.142D+01 0.150D+01
 Coeff-En:   0.000D+00 0.000D+00 0.000D+00 0.000D+00 0.100D+01
 Coeff:      0.261D-01-0.309D+00 0.118D+01-0.139D+01 0.149D+01
 Gap=     0.417 Goal=   None    Shift=    0.000
 Gap=     0.465 Goal=   None    Shift=    0.000
 RMSDP=2.77D-03 MaxDP=1.08D-02 DE=-7.07D-03 OVMax= 1.49D-02

 Cycle   6  Pass 1  IDiag  3:
 E= 0.586519863218697E-01 Delta-E=       -0.000357393293 Rises=F Damp=F
 DIIS: error= 1.36D-03 at cycle   6 NSaved=   6.
 NSaved= 6 IEnMin= 6 EnMin= 0.586519863218697E-01 IErMin= 6 ErrMin= 1.36D-03
 ErrMax= 1.36D-03  0.00D+00 EMaxC= 1.00D-01 BMatC= 9.97D-05 BMatP= 2.10D-04
 IDIUse=3 WtCom= 9.86D-01 WtEn= 1.36D-02
 Coeff-Com: -0.266D-01 0.188D+00-0.671D+00 0.509D+00-0.145D+01 0.245D+01
 Coeff-En:   0.000D+00 0.000D+00 0.000D+00 0.000D+00 0.000D+00 0.100D+01
 Coeff:     -0.263D-01 0.185D+00-0.662D+00 0.502D+00-0.143D+01 0.243D+01
 Gap=     0.441 Goal=   None    Shift=    0.000
 Gap=     0.480 Goal=   None    Shift=    0.000
 RMSDP=7.00D-03 MaxDP=2.86D-02 DE=-3.57D-04 OVMax= 4.96D-02

 Cycle   7  Pass 1  IDiag  3:
 E= 0.582783266165308E-01 Delta-E=       -0.000373659705 Rises=F Damp=F
 DIIS: error= 9.24D-04 at cycle   7 NSaved=   7.
 NSaved= 7 IEnMin= 7 EnMin= 0.582783266165308E-01 IErMin= 7 ErrMin= 9.24D-04
 ErrMax= 9.24D-04  0.00D+00 EMaxC= 1.00D-01 BMatC= 2.84D-05 BMatP= 9.97D-05
 IDIUse=3 WtCom= 9.91D-01 WtEn= 9.24D-03
 Coeff-Com:  0.212D-02 0.460D-01-0.229D+00 0.427D+00-0.314D+00-0.169D+00
 Coeff-Com:  0.124D+01
 Coeff-En:   0.000D+00 0.000D+00 0.000D+00 0.000D+00 0.000D+00 0.000D+00
 Coeff-En:   0.100D+01
 Coeff:      0.210D-02 0.456D-01-0.227D+00 0.423D+00-0.311D+00-0.167D+00
 Coeff:      0.123D+01
 Gap=     0.429 Goal=   None    Shift=    0.000
 Gap=     0.472 Goal=   None    Shift=    0.000
 RMSDP=1.55D-03 MaxDP=8.34D-03 DE=-3.74D-04 OVMax= 7.41D-03

 Cycle   8  Pass 1  IDiag  3:
 E= 0.582272503874819E-01 Delta-E=       -0.000051076229 Rises=F Damp=F
 DIIS: error= 1.37D-04 at cycle   8 NSaved=   8.
 NSaved= 8 IEnMin= 8 EnMin= 0.582272503874819E-01 IErMin= 8 ErrMin= 1.37D-04
 ErrMax= 1.37D-04  0.00D+00 EMaxC= 1.00D-01 BMatC= 1.46D-06 BMatP= 2.84D-05
 IDIUse=3 WtCom= 9.99D-01 WtEn= 1.37D-03
 Coeff-Com: -0.322D-02-0.336D-02 0.464D-01-0.155D+00 0.132D+00 0.672D-01
 Coeff-Com: -0.744D+00 0.166D+01
 Coeff-En:   0.000D+00 0.000D+00 0.000D+00 0.000D+00 0.000D+00 0.000D+00
 Coeff-En:   0.000D+00 0.100D+01
 Coeff:     -0.322D-02-0.335D-02 0.464D-01-0.155D+00 0.132D+00 0.671D-01
 Coeff:     -0.743D+00 0.166D+01
 Gap=     0.431 Goal=   None    Shift=    0.000
 Gap=     0.473 Goal=   None    Shift=    0.000
 RMSDP=5.54D-04 MaxDP=1.55D-03 DE=-5.11D-05 OVMax= 3.49D-03

 Cycle   9  Pass 1  IDiag  3:
 E= 0.582237132067363E-01 Delta-E=       -0.000003537181 Rises=F Damp=F
 DIIS: error= 1.07D-04 at cycle   9 NSaved=   9.
 NSaved= 9 IEnMin= 9 EnMin= 0.582237132067363E-01 IErMin= 9 ErrMin= 1.07D-04
 ErrMax= 1.07D-04  0.00D+00 EMaxC= 1.00D-01 BMatC= 3.50D-07 BMatP= 1.46D-06
 IDIUse=3 WtCom= 9.99D-01 WtEn= 1.07D-03
 Coeff-Com:  0.828D-03-0.258D-02 0.300D-02 0.157D-01-0.332D-01 0.347D-01
 Coeff-Com:  0.373D-01-0.590D+00 0.153D+01
 Coeff-En:   0.000D+00 0.000D+00 0.000D+00 0.000D+00 0.000D+00 0.000D+00
 Coeff-En:   0.000D+00 0.000D+00 0.100D+01
 Coeff:      0.827D-03-0.258D-02 0.299D-02 0.157D-01-0.331D-01 0.347D-01
 Coeff:      0.373D-01-0.589D+00 0.153D+01
 Gap=     0.429 Goal=   None    Shift=    0.000
 Gap=     0.472 Goal=   None    Shift=    0.000
 RMSDP=2.20D-04 MaxDP=1.19D-03 DE=-3.54D-06 OVMax= 1.22D-03

 Cycle  10  Pass 1  IDiag  3:
 E= 0.582229974851174E-01 Delta-E=       -0.000000715722 Rises=F Damp=F
 DIIS: error= 3.07D-05 at cycle  10 NSaved=  10.
 NSaved=10 IEnMin=10 EnMin= 0.582229974851174E-01 IErMin=10 ErrMin= 3.07D-05
 ErrMax= 3.07D-05  0.00D+00 EMaxC= 1.00D-01 BMatC= 2.83D-08 BMatP= 3.50D-07
 IDIUse=1 WtCom= 1.00D+00 WtEn= 0.00D+00
 Coeff-Com: -0.113D-03-0.122D-04 0.180D-02-0.523D-02 0.198D-01-0.410D-01
 Coeff-Com:  0.609D-01 0.188D+00-0.863D+00 0.164D+01
 Coeff:     -0.113D-03-0.122D-04 0.180D-02-0.523D-02 0.198D-01-0.410D-01
 Coeff:      0.609D-01 0.188D+00-0.863D+00 0.164D+01
 Gap=     0.429 Goal=   None    Shift=    0.000
 Gap=     0.472 Goal=   None    Shift=    0.000
 RMSDP=5.70D-05 MaxDP=2.10D-04 DE=-7.16D-07 OVMax= 4.15D-04

 Cycle  11  Pass 1  IDiag  3:
 E= 0.582229410617217E-01 Delta-E=       -0.000000056423 Rises=F Damp=F
 DIIS: error= 5.81D-06 at cycle  11 NSaved=  11.
 NSaved=11 IEnMin=11 EnMin= 0.582229410617217E-01 IErMin=11 ErrMin= 5.81D-06
 ErrMax= 5.81D-06  0.00D+00 EMaxC= 1.00D-01 BMatC= 1.94D-09 BMatP= 2.83D-08
 IDIUse=1 WtCom= 1.00D+00 WtEn= 0.00D+00
 Coeff-Com:  0.338D-04 0.210D-03-0.215D-02 0.312D-02-0.212D-01 0.508D-01
 Coeff-Com: -0.874D-01-0.163D+00 0.886D+00-0.190D+01 0.223D+01
 Coeff:      0.338D-04 0.210D-03-0.215D-02 0.312D-02-0.212D-01 0.508D-01
 Coeff:     -0.874D-01-0.163D+00 0.886D+00-0.190D+01 0.223D+01
 Gap=     0.429 Goal=   None    Shift=    0.000
 Gap=     0.472 Goal=   None    Shift=    0.000
 RMSDP=1.43D-05 MaxDP=5.81D-05 DE=-5.64D-08 OVMax= 8.42D-05

 Cycle  12  Pass 1  IDiag  3:
 E= 0.582229369120526E-01 Delta-E=       -0.000000004150 Rises=F Damp=F
 DIIS: error= 2.24D-06 at cycle  12 NSaved=  12.
 NSaved=12 IEnMin=12 EnMin= 0.582229369120526E-01 IErMin=12 ErrMin= 2.24D-06
 ErrMax= 2.24D-06  0.00D+00 EMaxC= 1.00D-01 BMatC= 2.18D-10 BMatP= 1.94D-09
 IDIUse=1 WtCom= 1.00D+00 WtEn= 0.00D+00
 Coeff-Com: -0.275D-04 0.257D-03-0.464D-03 0.849D-03 0.858D-02-0.252D-01
 Coeff-Com:  0.500D-01 0.769D-01-0.461D+00 0.103D+01-0.138D+01 0.170D+01
 Coeff:     -0.275D-04 0.257D-03-0.464D-03 0.849D-03 0.858D-02-0.252D-01
 Coeff:      0.500D-01 0.769D-01-0.461D+00 0.103D+01-0.138D+01 0.170D+01
 Gap=     0.429 Goal=   None    Shift=    0.000
 Gap=     0.472 Goal=   None    Shift=    0.000
 RMSDP=6.47D-06 MaxDP=2.82D-05 DE=-4.15D-09 OVMax= 4.34D-05

 Cycle  13  Pass 1  IDiag  3:
 E= 0.582229364739959E-01 Delta-E=       -0.000000000438 Rises=F Damp=F
 DIIS: error= 7.73D-07 at cycle  13 NSaved=  13.
 NSaved=13 IEnMin=13 EnMin= 0.582229364739959E-01 IErMin=13 ErrMin= 7.73D-07
 ErrMax= 7.73D-07  0.00D+00 EMaxC= 1.00D-01 BMatC= 2.80D-11 BMatP= 2.18D-10
 IDIUse=1 WtCom= 1.00D+00 WtEn= 0.00D+00
 Coeff-Com:  0.955D-05-0.175D-03 0.413D-03-0.102D-02-0.459D-02 0.146D-01
 Coeff-Com: -0.295D-01-0.412D-01 0.259D+00-0.595D+00 0.837D+00-0.123D+01
 Coeff-Com:  0.179D+01
 Coeff:      0.955D-05-0.175D-03 0.413D-03-0.102D-02-0.459D-02 0.146D-01
 Coeff:     -0.295D-01-0.412D-01 0.259D+00-0.595D+00 0.837D+00-0.123D+01
 Coeff:      0.179D+01
 Gap=     0.429 Goal=   None    Shift=    0.000
 Gap=     0.472 Goal=   None    Shift=    0.000
 RMSDP=3.22D-06 MaxDP=1.63D-05 DE=-4.38D-10 OVMax= 2.18D-05

 Cycle  14  Pass 1  IDiag  3:
 E= 0.582229364450235E-01 Delta-E=       -0.000000000029 Rises=F Damp=F
 DIIS: error= 9.12D-07 at cycle  14 NSaved=  14.
 NSaved=14 IEnMin=14 EnMin= 0.582229364450235E-01 IErMin=13 ErrMin= 7.73D-07
 ErrMax= 9.12D-07  0.00D+00 EMaxC= 1.00D-01 BMatC= 1.89D-11 BMatP= 2.80D-11
 IDIUse=1 WtCom= 1.00D+00 WtEn= 0.00D+00
 Coeff-Com: -0.564D-05 0.415D-04-0.101D-03 0.187D-03 0.338D-03-0.113D-02
 Coeff-Com:  0.154D-02 0.683D-02-0.287D-01 0.639D-01-0.107D+00 0.246D+00
 Coeff-Com: -0.102D+01 0.184D+01
 Coeff:     -0.564D-05 0.415D-04-0.101D-03 0.187D-03 0.338D-03-0.113D-02
 Coeff:      0.154D-02 0.683D-02-0.287D-01 0.639D-01-0.107D+00 0.246D+00
 Coeff:     -0.102D+01 0.184D+01
 Gap=     0.429 Goal=   None    Shift=    0.000
 Gap=     0.472 Goal=   None    Shift=    0.000
 RMSDP=1.81D-06 MaxDP=1.02D-05 DE=-2.90D-11 OVMax= 1.17D-05

 Cycle  15  Pass 1  IDiag  3:
 E= 0.582229364036202E-01 Delta-E=       -0.000000000041 Rises=F Damp=F
 DIIS: error= 1.35D-07 at cycle  15 NSaved=  15.
 NSaved=15 IEnMin=15 EnMin= 0.582229364036202E-01 IErMin=15 ErrMin= 1.35D-07
 ErrMax= 1.35D-07  0.00D+00 EMaxC= 1.00D-01 BMatC= 4.63D-13 BMatP= 1.89D-11
 IDIUse=1 WtCom= 1.00D+00 WtEn= 0.00D+00
 Coeff-Com:  0.243D-05-0.151D-04 0.486D-04-0.685D-04 0.229D-03-0.578D-03
 Coeff-Com:  0.156D-02-0.506D-03-0.452D-02 0.914D-02-0.106D-02-0.526D-01
 Coeff-Com:  0.488D+00-0.110D+01 0.166D+01
 Coeff:      0.243D-05-0.151D-04 0.486D-04-0.685D-04 0.229D-03-0.578D-03
 Coeff:      0.156D-02-0.506D-03-0.452D-02 0.914D-02-0.106D-02-0.526D-01
 Coeff:      0.488D+00-0.110D+01 0.166D+01
 Gap=     0.429 Goal=   None    Shift=    0.000
 Gap=     0.472 Goal=   None    Shift=    0.000
 RMSDP=1.91D-07 MaxDP=7.76D-07 DE=-4.14D-11 OVMax= 8.94D-07

 Cycle  16  Pass 1  IDiag  3:
 E= 0.582229364027924E-01 Delta-E=       -0.000000000001 Rises=F Damp=F
 DIIS: error= 1.83D-08 at cycle  16 NSaved=  16.
 NSaved=16 IEnMin=16 EnMin= 0.582229364027924E-01 IErMin=16 ErrMin= 1.83D-08
 ErrMax= 1.83D-08  0.00D+00 EMaxC= 1.00D-01 BMatC= 1.04D-14 BMatP= 4.63D-13
 IDIUse=1 WtCom= 1.00D+00 WtEn= 0.00D+00
 Large coefficients: NSaved= 16 BigCof=    0.00 CofMax=   10.00 Det=-3.14D-15
 Inversion failed.  Reducing to 15 matrices.
 Coeff-Com:  0.104D-06-0.666D-05 0.617D-05-0.133D-03 0.365D-03-0.829D-03
 Coeff-Com: -0.532D-03 0.503D-02-0.108D-01 0.119D-01-0.199D-02-0.109D+00
 Coeff-Com:  0.279D+00-0.525D+00 0.135D+01
 Coeff:      0.104D-06-0.666D-05 0.617D-05-0.133D-03 0.365D-03-0.829D-03
 Coeff:     -0.532D-03 0.503D-02-0.108D-01 0.119D-01-0.199D-02-0.109D+00
 Coeff:      0.279D+00-0.525D+00 0.135D+01
 Gap=     0.429 Goal=   None    Shift=    0.000
 Gap=     0.472 Goal=   None    Shift=    0.000
 RMSDP=6.75D-08 MaxDP=3.01D-07 DE=-8.28D-13 OVMax= 5.07D-07

 Cycle  17  Pass 1  IDiag  3:
 E= 0.582229364027675E-01 Delta-E=       -0.000000000000 Rises=F Damp=F
 DIIS: error= 1.61D-08 at cycle  17 NSaved=  16.
 NSaved=16 IEnMin=16 EnMin= 0.582229364027675E-01 IErMin=16 ErrMin= 1.61D-08
 ErrMax= 1.61D-08  0.00D+00 EMaxC= 1.00D-01 BMatC= 6.37D-15 BMatP= 1.04D-14
 IDIUse=1 WtCom= 1.00D+00 WtEn= 0.00D+00
 Large coefficients: NSaved= 16 BigCof=    0.00 CofMax=   10.00 Det=-6.93D-16
 Inversion failed.  Reducing to 15 matrices.
 Coeff-Com: -0.389D-06 0.415D-06-0.143D-04 0.345D-04-0.142D-05-0.350D-03
 Coeff-Com:  0.123D-02-0.293D-02 0.496D-02-0.118D-01 0.613D-01-0.127D+00
 Coeff-Com:  0.216D+00-0.925D+00 0.178D+01
 Coeff:     -0.389D-06 0.415D-06-0.143D-04 0.345D-04-0.142D-05-0.350D-03
 Coeff:      0.123D-02-0.293D-02 0.496D-02-0.118D-01 0.613D-01-0.127D+00
 Coeff:      0.216D+00-0.925D+00 0.178D+01
 Gap=     0.429 Goal=   None    Shift=    0.000
 Gap=     0.472 Goal=   None    Shift=    0.000
 RMSDP=3.08D-08 MaxDP=1.48D-07 DE=-2.49D-14 OVMax= 1.81D-07

 Cycle  18  Pass 1  IDiag  3:
 E= 0.582229364027498E-01 Delta-E=       -0.000000000000 Rises=F Damp=F
 DIIS: error= 1.20D-09 at cycle  18 NSaved=  16.
 NSaved=16 IEnMin=16 EnMin= 0.582229364027498E-01 IErMin=16 ErrMin= 1.20D-09
 ErrMax= 1.20D-09  0.00D+00 EMaxC= 1.00D-01 BMatC= 4.44D-17 BMatP= 6.37D-15
 IDIUse=1 WtCom= 1.00D+00 WtEn= 0.00D+00
 Large coefficients: NSaved= 16 BigCof=    0.00 CofMax=   10.00 Det=-1.98D-17
 Inversion failed.  Reducing to 15 matrices.
 Coeff-Com:  0.253D-06 0.248D-05-0.403D-05-0.289D-04 0.153D-03-0.417D-03
 Coeff-Com:  0.101D-02-0.195D-02 0.593D-02-0.343D-01 0.713D-01-0.121D+00
 Coeff-Com:  0.413D+00-0.812D+00 0.148D+01
 Coeff:      0.253D-06 0.248D-05-0.403D-05-0.289D-04 0.153D-03-0.417D-03
 Coeff:      0.101D-02-0.195D-02 0.593D-02-0.343D-01 0.713D-01-0.121D+00
 Coeff:      0.413D+00-0.812D+00 0.148D+01
 Gap=     0.429 Goal=   None    Shift=    0.000
 Gap=     0.472 Goal=   None    Shift=    0.000
 RMSDP=1.52D-09 MaxDP=7.45D-09 DE=-1.78D-14 OVMax= 8.77D-09

 Cycle  19  Pass 2  IDiag  1:
 SCF Done:  E(UPM6) =  0.582229364027E-01 A.U. after   19 cycles
            NFock= 18  Conv=0.15D-08     -V/T= 1.0023
 <Sx>= 0.0000 <Sy>= 0.0000 <Sz>= 0.5000 <S**2>= 0.7614 S= 0.5057
 <L.S>= 0.000000000000E+00
 KE=-2.553495087069D+01 PE=-1.910422210861D+01 EE= 1.851427347389D+01
 Annihilation of the first spin contaminant:
 S**2 before annihilation     0.7614,   after     0.7500
 Leave Link  502 at Wed Oct 21 14:28:25 2020, MaxMem=  2684354560 cpu:              20.6 elap:               2.9
 (Enter /udrive/faculty/rpeverati/g16/g16/l508.exe)
 QCSCF skips out because SCF is already converged.
 Leave Link  508 at Wed Oct 21 14:28:27 2020, MaxMem=  2684354560 cpu:               2.4 elap:               1.3
 (Enter /udrive/faculty/rpeverati/g16/g16/l601.exe)
 Copying SCF densities to generalized density rwf, IOpCl= 1 IROHF=0.

 **********************************************************************

            Population analysis using the SCF density.

 **********************************************************************

 Orbital symmetries:
 Alpha Orbitals:
       Occupied  (A') (A') (A') (A") (A') (A')
       Virtual   (A") (A') (A')
 Beta  Orbitals:
       Occupied  (A') (A') (A") (A') (A')
       Virtual   (A') (A") (A') (A')
 The electronic state is 2-A'.
 Alpha  occ. eigenvalues --   -1.25492  -0.74647  -0.59310  -0.58204  -0.47199
 Alpha  occ. eigenvalues --   -0.37934
 Alpha virt. eigenvalues --    0.04281   0.04940   0.18927
  Beta  occ. eigenvalues --   -1.24654  -0.73731  -0.57798  -0.57670  -0.44424
  Beta virt. eigenvalues --    0.02181   0.04407   0.12959   0.19395
          Condensed to atoms (all electrons):
               1          2          3
     1  H    0.992762   0.000000   0.000000
     2  C    0.000000   3.686471   0.000000
     3  O    0.000000   0.000000   6.320767
          Atomic-Atomic Spin Densities.
               1          2          3
     1  H    0.919478   0.000000   0.000000
     2  C    0.000000   0.007760   0.000000
     3  O    0.000000   0.000000   0.072762
 Mulliken charges and spin densities:
               1          2
     1  H    0.007238   0.919478
     2  C    0.313529   0.007760
     3  O   -0.320767   0.072762
 Sum of Mulliken charges =  -0.00000   1.00000
 Mulliken charges and spin densities with hydrogens summed into heavy atoms:
               1          2
     2  C    0.320767   0.927238
     3  O   -0.320767   0.072762
 Charge=              0.0000 electrons
 Dipole moment (field-independent basis, Debye):
    X=             -0.1457    Y=              0.2307    Z=              0.0000  Tot=              0.2729
 N-N= 2.618312244181D+01 E-N=-1.910422210860D+01  KE=-2.553495087069D+01
 Leave Link  601 at Wed Oct 21 14:28:28 2020, MaxMem=  2684354560 cpu:               2.8 elap:               1.2
 (Enter /udrive/faculty/rpeverati/g16/g16/l701.exe)
 ... and contract with generalized density number  0.
 Compute integral first derivatives.
 Leave Link  701 at Wed Oct 21 14:28:31 2020, MaxMem=  2684354560 cpu:               4.2 elap:               1.1
 (Enter /udrive/faculty/rpeverati/g16/g16/l702.exe)
 L702 exits ... SP integral derivatives will be done elsewhere.
 Leave Link  702 at Wed Oct 21 14:28:33 2020, MaxMem=  2684354560 cpu:               3.6 elap:               1.0
 (Enter /udrive/faculty/rpeverati/g16/g16/l703.exe)
 Integral derivatives from FoFJK, PRISM(SPDF).
 Compute integral first derivatives, UseDBF=F ICtDFT=           0.
 Calling FoFJK, ICntrl=      2127 FMM=F ISym2X=1 I1Cent= 0 IOpClX= 1 NMat=1 NMatS=1 NMatT=0.
 FoFJK:  IHMeth=40 ICntrl=    2127 DoSepK=F KAlg= 0 I1Cent=           0 FoldK=F
 IRaf=         0 NMat=       1 IRICut=       1 DoRegI=T DoRafI=F ISym2E= 1 IDoP0=3 IntGTp=3.
 FoFCou: FMM=F IPFlag=           0 FMFlag=      100000 FMFlg1=         800
         NFxFlg=           0 DoJE=F BraDBF=F KetDBF=F FulRan=T
         wScrn=  0.000000 ICntrl=      2127 IOpCl=  1 I1Cent=           0 NGrid=           0
         NMat0=    1 NMatS0=      1 NMatT0=    0 NMatD0=    1 NMtDS0=    0 NMtDT0=    0
 Petite list used in FoFCou.
 Leave Link  703 at Wed Oct 21 14:28:34 2020, MaxMem=  2684354560 cpu:               1.8 elap:               0.8
 (Enter /udrive/faculty/rpeverati/g16/g16/l716.exe)
 Dipole        =-5.73398654D-02 9.07518284D-02 1.12333706D-15
 ***** Axes restored to original set *****
 -------------------------------------------------------------------
 Center     Atomic                   Forces (Hartrees/Bohr)
 Number     Number              X              Y              Z
 -------------------------------------------------------------------
      1        1           0.006455803   -0.002789072   -0.000000000
      2        6          -0.007226662    0.018302726   -0.000000000
      3        8           0.000770859   -0.015513654    0.000000000
 -------------------------------------------------------------------
 Cartesian Forces:  Max     0.018302726 RMS     0.008679084
 Leave Link  716 at Wed Oct 21 14:28:36 2020, MaxMem=  2684354560 cpu:               2.1 elap:               1.1
 (Enter /udrive/faculty/rpeverati/g16/g16/l103.exe)

 GradGradGradGradGradGradGradGradGradGradGradGradGradGradGradGradGradGrad
 Berny optimization.
 Optmz: redundant internal coordinate code flag= 1
 FormGI is forming the generalized inverse of G from B-inverse, IUseBI=4.
 Internal  Forces:  Max     0.015513654 RMS     0.009876492
 Search for a saddle point.
 Step number   1 out of a maximum of   50
 All quantities printed in internal units (Hartrees-Bohrs-Radians)
 Swapping is turned off.
 Second derivative matrix not updated -- first step.
 The second derivative matrix:
                          R1        R2        A1
           R1           0.05754
           R2           0.00000   1.45710
           A1           0.00000   0.00000   0.16000
 ITU=  0
 Eigenvectors of the second derivative matrix:
                           1         2         3
     Eigenvalues --     0.05754   0.16000   1.45710
   1         R1         1.00000  -0.00000  -0.00000
   2         R2         0.00000   0.00000   1.00000
   3         A1        -0.00000  -1.00000   0.00000
 Eigenvalue     1 is   5.75D-02 should be less than     0.000000 Eigenvector:
                          R1        A1        R2
   1                    1.00000  -0.00000   0.00000
 RLam0= 5.84D-02.
 Iter=   1 RLamda= 0.00000000D+00 Sum=-1.82256556D-04.
 Iter=   2 RLamda=-1.82256556D-04 Sum=-1.82216461D-04.
 Iter=   3 RLamda=-1.82216461D-04 Sum=-1.82216470D-04.
 RFO step:  Lambda0=5.838122472D-02 Lambda=-1.82216461D-04.
 Linear search not attempted -- option 19 set.
 Iteration  1 RMS(Cart)=  0.01482259 RMS(Int)=  0.00004262
 Iteration  2 RMS(Cart)=  0.00004111 RMS(Int)=  0.00000000
 Iteration  3 RMS(Cart)=  0.00000000 RMS(Int)=  0.00000000
 ITry= 1 IFail=0 DXMaxC= 1.45D-02 DCOld= 1.00D+10 DXMaxT= 1.00D-01 DXLimC= 3.00D+00 Rises=F
 ClnCor:  largest displacement from symmetrization is 0.00D+00 for atom     0.
 Variable       Old X    -DE/DX   Delta X   Delta X   Delta X     New X
                                 (Linear)    (Quad)   (Total)
    R1        3.46394  -0.00702   0.00000   0.01483   0.01483   3.47877
    R2        2.14471   0.01551   0.00000   0.01065   0.01065   2.15536
    A1        2.04652   0.00165   0.00000   0.01032   0.01032   2.05684
         Item               Value     Threshold  Converged?
 Maximum Force            0.015514     0.000450     NO 
 RMS     Force            0.009876     0.000300     NO 
 Maximum Displacement     0.014534     0.001800     NO 
 RMS     Displacement     0.014843     0.001200     NO 
 Predicted change in Energy= 1.923141D-05
 Lowest energy point so far.  Saving SCF results.
 Largest change from initial coordinates is atom    3       0.010 Angstoms.
 GradGradGradGradGradGradGradGradGradGradGradGradGradGradGradGradGradGrad

 Leave Link  103 at Wed Oct 21 14:28:37 2020, MaxMem=  2684354560 cpu:               6.9 elap:               1.2
 (Enter /udrive/faculty/rpeverati/g16/g16/l202.exe)
                          Input orientation:                          
 ---------------------------------------------------------------------
 Center     Atomic      Atomic             Coordinates (Angstroms)
 Number     Number       Type             X           Y           Z
 ---------------------------------------------------------------------
      1          1           0       -1.526472    1.396522    0.000000
      2          6           0        0.107343    0.548285    0.000000
      3          8           0        0.115529   -0.592251    0.000000
 ---------------------------------------------------------------------
                    Distance matrix (angstroms):
                    1          2          3
     1  H    0.000000
     2  C    1.840885   0.000000
     3  O    2.579028   1.140565   0.000000
 Stoichiometry    CHO(2)
 Framework group  CS[SG(CHO)]
 Deg. of freedom     3
 Full point group                 CS      NOp   2
 RotChk:  IX=0 Diff= 1.01D-02
 Largest Abelian subgroup         CS      NOp   2
 Largest concise Abelian subgroup C1      NOp   1
                         Standard orientation:                         
 ---------------------------------------------------------------------
 Center     Atomic      Atomic             Coordinates (Angstroms)
 Number     Number       Type             X           Y           Z
 ---------------------------------------------------------------------
      1          1           0       -1.519173    1.410913    0.000000
      2          6           0        0.108512    0.550972    0.000000
      3          8           0        0.108512   -0.589593    0.000000
 ---------------------------------------------------------------------
 Rotational constants (GHZ):         258.6640991          42.9544169          36.8371468
 Leave Link  202 at Wed Oct 21 14:28:39 2020, MaxMem=  2684354560 cpu:               3.6 elap:               0.9
 (Enter /udrive/faculty/rpeverati/g16/g16/l301.exe)
 Standard basis: VSTO-6G (5D, 7F)
 Ernie: Thresh=  0.10000D-02 Tol=  0.10000D-05 Strict=F.
  NNHCO=     0 NNPyr=     0 NCTC=     0               EPep=         0.000000000
    EC=         9.877847482  ECS=         0.580783880   EG=         0.034711303
   EHC=         0.000725002  EAt=       -15.198629379  AtH=         0.450273680
 EPDDG=         0.000000000  ECC=        10.494067666 EAtT=        15.648903059
 There are     7 symmetry adapted cartesian basis functions of A'  symmetry.
 There are     2 symmetry adapted cartesian basis functions of A"  symmetry.
 There are     7 symmetry adapted basis functions of A'  symmetry.
 There are     2 symmetry adapted basis functions of A"  symmetry.
     9 basis functions,    54 primitive gaussians,     9 cartesian basis functions
     6 alpha electrons        5 beta electrons
       nuclear repulsion energy        26.1429707249 Hartrees.
 IExCor=    0 DFT=F Ex=HF Corr=None ExCW=0 ScaHFX=  1.000000
 ScaDFX=  1.000000  1.000000  1.000000  1.000000 ScalE2=  1.000000  1.000000
 IRadAn=      5 IRanWt=     -1 IRanGd=            0 ICorTp=0 IEmpDi=  4
 Integral buffers will be    131072 words long.
 Regular integral format.
 Two-electron integral symmetry is turned off.
 Leave Link  301 at Wed Oct 21 14:28:41 2020, MaxMem=  2684354560 cpu:               6.8 elap:               1.3
 (Enter /udrive/faculty/rpeverati/g16/g16/l302.exe)
 Do NDO integrals.
 NPDir=0 NMtPBC=     1 NCelOv=     1 NCel=       1 NClECP=     1 NCelD=      1
         NCelK=      1 NCelE2=     1 NClLst=     1 CellRange=     0.0.
 One-electron integrals computed using PRISM.
 NBasis=     9 RedAO= T EigKep=  1.00D+00  NBF=     7     2
 NBsUse=     9 1.00D-06 EigRej= -1.00D+00 NBFU=     7     2
 Leave Link  302 at Wed Oct 21 14:28:43 2020, MaxMem=  2684354560 cpu:               2.6 elap:               1.0
 (Enter /udrive/faculty/rpeverati/g16/g16/l303.exe)
 DipDrv:  MaxL=1.
 Leave Link  303 at Wed Oct 21 14:28:45 2020, MaxMem=  2684354560 cpu:               2.9 elap:               1.3
 (Enter /udrive/faculty/rpeverati/g16/g16/l401.exe)
 Initial guess from the checkpoint file:  "MN_51_hcots_BH76_PM6_SE.chk"
 SCF N**3 symmetry information disabled.
 B after Tr=     0.000000    0.000000    0.000000
         Rot=    0.999998    0.000000    0.000000    0.002136 Ang=   0.24 deg.
 Guess basis will be translated and rotated to current coordinates.
 JPrj=0 DoOrth=T DoCkMO=T.
 Initial guess orbital symmetries:
 Alpha Orbitals:
       Occupied  (A') (A') (A') (A") (A') (A')
       Virtual   (A") (A') (A')
 Beta  Orbitals:
       Occupied  (A') (A') (A") (A') (A')
       Virtual   (A') (A") (A') (A')
 The electronic state of the initial guess is 2-A'.
 Initial guess <Sx>= 0.0000 <Sy>= 0.0000 <Sz>= 0.5000 <S**2>= 0.7614 S= 0.5057
 Leave Link  401 at Wed Oct 21 14:28:47 2020, MaxMem=  2684354560 cpu:               2.4 elap:               1.3
 (Enter /udrive/faculty/rpeverati/g16/g16/l502.exe)
 Keep J ints in memory in canonical form, NReq=859290.
 FoFCou: FMM=F IPFlag=           0 FMFlag=           0 FMFlg1=           0
         NFxFlg=           0 DoJE=F BraDBF=F KetDBF=F FulRan=T
         wScrn=  0.000000 ICntrl=       600 IOpCl=  2 I1Cent=           0 NGrid=           0
         NMat0=    1 NMatS0=     21 NMatT0=    0 NMatD0=    1 NMtDS0=    0 NMtDT0=    0
 Symmetry not used in FoFCou.
 Two-electron integral symmetry not used.
 UHF open shell SCF:
 Using DIIS extrapolation, IDIIS=  1040.
 Overlap will be assumed to be unity.
 NGot=  2684354560 LenX=  2684293973 LenY=  2684293091
 Requested convergence on RMS density matrix=1.00D-08 within 120 cycles.
 Requested convergence on MAX density matrix=1.00D-06.
 Requested convergence on             energy=1.00D-06.
 No special actions if energy rises.

 Cycle   1  Pass 1  IDiag  1:
 E= 0.582667004198427E-01
 DIIS: error= 1.11D-03 at cycle   1 NSaved=   1.
 NSaved= 1 IEnMin= 1 EnMin= 0.582667004198427E-01 IErMin= 1 ErrMin= 1.11D-03
 ErrMax= 1.11D-03  0.00D+00 EMaxC= 1.00D-01 BMatC= 7.07D-05 BMatP= 7.07D-05
 IDIUse=3 WtCom= 9.89D-01 WtEn= 1.11D-02
 Coeff-Com:  0.100D+01
 Coeff-En:   0.100D+01
 Coeff:      0.100D+01
 GapD=    2.000 DampG=2.000 DampE=1.000 DampFc=2.0000 IDamp=-1.
 RMSDP=7.25D-04 MaxDP=1.95D-03              OVMax= 0.00D+00

 Cycle   2  Pass 1  IDiag  3:
 E= 0.582184247877535E-01 Delta-E=       -0.000048275632 Rises=F Damp=F
 DIIS: error= 2.74D-04 at cycle   2 NSaved=   2.
 NSaved= 2 IEnMin= 2 EnMin= 0.582184247877535E-01 IErMin= 2 ErrMin= 2.74D-04
 ErrMax= 2.74D-04  0.00D+00 EMaxC= 1.00D-01 BMatC= 7.19D-06 BMatP= 7.07D-05
 IDIUse=3 WtCom= 9.97D-01 WtEn= 2.74D-03
 Coeff-Com: -0.347D+00 0.135D+01
 Coeff-En:   0.000D+00 0.100D+01
 Coeff:     -0.346D+00 0.135D+01
 Gap=     0.422 Goal=   None    Shift=    0.000
 Gap=     0.467 Goal=   None    Shift=    0.000
 RMSDP=3.64D-04 MaxDP=1.14D-03 DE=-4.83D-05 OVMax= 1.54D-03

 Cycle   3  Pass 1  IDiag  3:
 E= 0.582111016113487E-01 Delta-E=       -0.000007323176 Rises=F Damp=F
 DIIS: error= 8.05D-05 at cycle   3 NSaved=   3.
 NSaved= 3 IEnMin= 3 EnMin= 0.582111016113487E-01 IErMin= 3 ErrMin= 8.05D-05
 ErrMax= 8.05D-05  0.00D+00 EMaxC= 1.00D-01 BMatC= 4.22D-07 BMatP= 7.19D-06
 IDIUse=1 WtCom= 1.00D+00 WtEn= 0.00D+00
 Coeff-Com:  0.730D-01-0.453D+00 0.138D+01
 Coeff:      0.730D-01-0.453D+00 0.138D+01
 Gap=     0.422 Goal=   None    Shift=    0.000
 Gap=     0.467 Goal=   None    Shift=    0.000
 RMSDP=1.44D-04 MaxDP=5.47D-04 DE=-7.32D-06 OVMax= 1.04D-03

 Cycle   4  Pass 1  IDiag  3:
 E= 0.582103328390673E-01 Delta-E=       -0.000000768772 Rises=F Damp=F
 DIIS: error= 5.09D-05 at cycle   4 NSaved=   4.
 NSaved= 4 IEnMin= 4 EnMin= 0.582103328390673E-01 IErMin= 4 ErrMin= 5.09D-05
 ErrMax= 5.09D-05  0.00D+00 EMaxC= 1.00D-01 BMatC= 6.49D-08 BMatP= 4.22D-07
 IDIUse=1 WtCom= 1.00D+00 WtEn= 0.00D+00
 Coeff-Com: -0.631D-01 0.420D+00-0.148D+01 0.213D+01
 Coeff:     -0.631D-01 0.420D+00-0.148D+01 0.213D+01
 Gap=     0.422 Goal=   None    Shift=    0.000
 Gap=     0.467 Goal=   None    Shift=    0.000
 RMSDP=9.96D-05 MaxDP=4.32D-04 DE=-7.69D-07 OVMax= 8.31D-04

 Cycle   5  Pass 1  IDiag  3:
 E= 0.582101281105096E-01 Delta-E=       -0.000000204729 Rises=F Damp=F
 DIIS: error= 1.53D-05 at cycle   5 NSaved=   5.
 NSaved= 5 IEnMin= 5 EnMin= 0.582101281105096E-01 IErMin= 5 ErrMin= 1.53D-05
 ErrMax= 1.53D-05  0.00D+00 EMaxC= 1.00D-01 BMatC= 9.57D-09 BMatP= 6.49D-08
 IDIUse=1 WtCom= 1.00D+00 WtEn= 0.00D+00
 Coeff-Com:  0.476D-01-0.317D+00 0.114D+01-0.190D+01 0.203D+01
 Coeff:      0.476D-01-0.317D+00 0.114D+01-0.190D+01 0.203D+01
 Gap=     0.422 Goal=   None    Shift=    0.000
 Gap=     0.467 Goal=   None    Shift=    0.000
 RMSDP=4.32D-05 MaxDP=1.80D-04 DE=-2.05D-07 OVMax= 3.18D-04

 Cycle   6  Pass 1  IDiag  3:
 E= 0.582100957504892E-01 Delta-E=       -0.000000032360 Rises=F Damp=F
 DIIS: error= 7.12D-06 at cycle   6 NSaved=   6.
 NSaved= 6 IEnMin= 6 EnMin= 0.582100957504892E-01 IErMin= 6 ErrMin= 7.12D-06
 ErrMax= 7.12D-06  0.00D+00 EMaxC= 1.00D-01 BMatC= 1.59D-09 BMatP= 9.57D-09
 IDIUse=1 WtCom= 1.00D+00 WtEn= 0.00D+00
 Coeff-Com: -0.535D-01 0.355D+00-0.129D+01 0.223D+01-0.277D+01 0.253D+01
 Coeff:     -0.535D-01 0.355D+00-0.129D+01 0.223D+01-0.277D+01 0.253D+01
 Gap=     0.422 Goal=   None    Shift=    0.000
 Gap=     0.467 Goal=   None    Shift=    0.000
 RMSDP=2.06D-05 MaxDP=7.23D-05 DE=-3.24D-08 OVMax= 1.34D-04

 Cycle   7  Pass 1  IDiag  3:
 E= 0.582100900666234E-01 Delta-E=       -0.000000005684 Rises=F Damp=F
 DIIS: error= 1.23D-06 at cycle   7 NSaved=   7.
 NSaved= 7 IEnMin= 7 EnMin= 0.582100900666234E-01 IErMin= 7 ErrMin= 1.23D-06
 ErrMax= 1.23D-06  0.00D+00 EMaxC= 1.00D-01 BMatC= 6.98D-11 BMatP= 1.59D-09
 IDIUse=1 WtCom= 1.00D+00 WtEn= 0.00D+00
 Coeff-Com:  0.385D-01-0.258D+00 0.937D+00-0.163D+01 0.206D+01-0.202D+01
 Coeff-Com:  0.187D+01
 Coeff:      0.385D-01-0.258D+00 0.937D+00-0.163D+01 0.206D+01-0.202D+01
 Coeff:      0.187D+01
 Gap=     0.422 Goal=   None    Shift=    0.000
 Gap=     0.467 Goal=   None    Shift=    0.000
 RMSDP=3.70D-06 MaxDP=1.44D-05 DE=-5.68D-09 OVMax= 2.78D-05

 Cycle   8  Pass 1  IDiag  3:
 E= 0.582100898705171E-01 Delta-E=       -0.000000000196 Rises=F Damp=F
 DIIS: error= 2.93D-07 at cycle   8 NSaved=   8.
 NSaved= 8 IEnMin= 8 EnMin= 0.582100898705171E-01 IErMin= 8 ErrMin= 2.93D-07
 ErrMax= 2.93D-07  0.00D+00 EMaxC= 1.00D-01 BMatC= 2.93D-12 BMatP= 6.98D-11
 IDIUse=1 WtCom= 1.00D+00 WtEn= 0.00D+00
 Coeff-Com: -0.272D-01 0.182D+00-0.663D+00 0.115D+01-0.146D+01 0.143D+01
 Coeff-Com: -0.143D+01 0.181D+01
 Coeff:     -0.272D-01 0.182D+00-0.663D+00 0.115D+01-0.146D+01 0.143D+01
 Coeff:     -0.143D+01 0.181D+01
 Gap=     0.422 Goal=   None    Shift=    0.000
 Gap=     0.467 Goal=   None    Shift=    0.000
 RMSDP=5.49D-07 MaxDP=1.76D-06 DE=-1.96D-10 OVMax= 3.47D-06

 Cycle   9  Pass 1  IDiag  3:
 E= 0.582100898643603E-01 Delta-E=       -0.000000000006 Rises=F Damp=F
 DIIS: error= 9.21D-08 at cycle   9 NSaved=   9.
 NSaved= 9 IEnMin= 9 EnMin= 0.582100898643603E-01 IErMin= 9 ErrMin= 9.21D-08
 ErrMax= 9.21D-08  0.00D+00 EMaxC= 1.00D-01 BMatC= 2.30D-13 BMatP= 2.93D-12
 IDIUse=1 WtCom= 1.00D+00 WtEn= 0.00D+00
 Coeff-Com:  0.150D-01-0.101D+00 0.367D+00-0.640D+00 0.808D+00-0.795D+00
 Coeff-Com:  0.811D+00-0.118D+01 0.172D+01
 Coeff:      0.150D-01-0.101D+00 0.367D+00-0.640D+00 0.808D+00-0.795D+00
 Coeff:      0.811D+00-0.118D+01 0.172D+01
 Gap=     0.422 Goal=   None    Shift=    0.000
 Gap=     0.467 Goal=   None    Shift=    0.000
 RMSDP=1.19D-07 MaxDP=5.46D-07 DE=-6.16D-12 OVMax= 5.92D-07

 Cycle  10  Pass 1  IDiag  3:
 E= 0.582100898639055E-01 Delta-E=       -0.000000000000 Rises=F Damp=F
 DIIS: error= 3.58D-08 at cycle  10 NSaved=  10.
 NSaved=10 IEnMin=10 EnMin= 0.582100898639055E-01 IErMin=10 ErrMin= 3.58D-08
 ErrMax= 3.58D-08  0.00D+00 EMaxC= 1.00D-01 BMatC= 4.47D-14 BMatP= 2.30D-13
 IDIUse=1 WtCom= 1.00D+00 WtEn= 0.00D+00
 Coeff-Com: -0.446D-02 0.301D-01-0.110D+00 0.193D+00-0.244D+00 0.242D+00
 Coeff-Com: -0.259D+00 0.437D+00-0.107D+01 0.178D+01
 Coeff:     -0.446D-02 0.301D-01-0.110D+00 0.193D+00-0.244D+00 0.242D+00
 Coeff:     -0.259D+00 0.437D+00-0.107D+01 0.178D+01
 Gap=     0.422 Goal=   None    Shift=    0.000
 Gap=     0.467 Goal=   None    Shift=    0.000
 RMSDP=6.44D-08 MaxDP=2.82D-07 DE=-4.55D-13 OVMax= 2.99D-07

 Cycle  11  Pass 1  IDiag  3:
 E= 0.582100898637883E-01 Delta-E=       -0.000000000000 Rises=F Damp=F
 DIIS: error= 1.63D-08 at cycle  11 NSaved=  11.
 NSaved=11 IEnMin=11 EnMin= 0.582100898637883E-01 IErMin=11 ErrMin= 1.63D-08
 ErrMax= 1.63D-08  0.00D+00 EMaxC= 1.00D-01 BMatC= 6.47D-15 BMatP= 4.47D-14
 IDIUse=1 WtCom= 1.00D+00 WtEn= 0.00D+00
 Coeff-Com:  0.595D-04-0.535D-03 0.232D-02-0.439D-02 0.615D-02-0.738D-02
 Coeff-Com:  0.185D-01-0.713D-01 0.400D+00-0.121D+01 0.187D+01
 Coeff:      0.595D-04-0.535D-03 0.232D-02-0.439D-02 0.615D-02-0.738D-02
 Coeff:      0.185D-01-0.713D-01 0.400D+00-0.121D+01 0.187D+01
 Gap=     0.422 Goal=   None    Shift=    0.000
 Gap=     0.467 Goal=   None    Shift=    0.000
 RMSDP=2.83D-08 MaxDP=1.11D-07 DE=-1.17D-13 OVMax= 1.30D-07

 Cycle  12  Pass 1  IDiag  3:
 E= 0.582100898637705E-01 Delta-E=       -0.000000000000 Rises=F Damp=F
 DIIS: error= 3.99D-09 at cycle  12 NSaved=  12.
 NSaved=12 IEnMin=12 EnMin= 0.582100898637705E-01 IErMin=12 ErrMin= 3.99D-09
 ErrMax= 3.99D-09  0.00D+00 EMaxC= 1.00D-01 BMatC= 3.43D-16 BMatP= 6.47D-15
 IDIUse=1 WtCom= 1.00D+00 WtEn= 0.00D+00
 Coeff-Com:  0.703D-04-0.378D-03 0.113D-02-0.174D-02 0.177D-02-0.856D-03
 Coeff-Com: -0.647D-02 0.385D-01-0.253D+00 0.817D+00-0.142D+01 0.182D+01
 Coeff:      0.703D-04-0.378D-03 0.113D-02-0.174D-02 0.177D-02-0.856D-03
 Coeff:     -0.647D-02 0.385D-01-0.253D+00 0.817D+00-0.142D+01 0.182D+01
 Gap=     0.422 Goal=   None    Shift=    0.000
 Gap=     0.467 Goal=   None    Shift=    0.000
 RMSDP=5.66D-09 MaxDP=2.71D-08 DE=-1.78D-14 OVMax= 3.15D-08

 Cycle  13  Pass 2  IDiag  1:
 SCF Done:  E(UPM6) =  0.582100898638E-01 A.U. after   13 cycles
            NFock= 12  Conv=0.57D-08     -V/T= 1.0023
 <Sx>= 0.0000 <Sy>= 0.0000 <Sz>= 0.5000 <S**2>= 0.7611 S= 0.5055
 <L.S>= 0.000000000000E+00
 KE=-2.553019675358D+01 PE=-1.904967596125D+01 EE= 1.849511207979D+01
 Annihilation of the first spin contaminant:
 S**2 before annihilation     0.7611,   after     0.7500
 Leave Link  502 at Wed Oct 21 14:28:50 2020, MaxMem=  2684354560 cpu:              15.1 elap:               2.2
 (Enter /udrive/faculty/rpeverati/g16/g16/l508.exe)
 QCSCF skips out because SCF is already converged.
 Leave Link  508 at Wed Oct 21 14:28:52 2020, MaxMem=  2684354560 cpu:               1.9 elap:               0.8
 (Enter /udrive/faculty/rpeverati/g16/g16/l701.exe)
 ... and contract with generalized density number  0.
 Compute integral first derivatives.
 Leave Link  701 at Wed Oct 21 14:28:54 2020, MaxMem=  2684354560 cpu:               5.3 elap:               1.3
 (Enter /udrive/faculty/rpeverati/g16/g16/l702.exe)
 L702 exits ... SP integral derivatives will be done elsewhere.
 Leave Link  702 at Wed Oct 21 14:28:56 2020, MaxMem=  2684354560 cpu:               2.3 elap:               1.2
 (Enter /udrive/faculty/rpeverati/g16/g16/l703.exe)
 Integral derivatives from FoFJK, PRISM(SPDF).
 Compute integral first derivatives, UseDBF=F ICtDFT=           0.
 Calling FoFJK, ICntrl=      2127 FMM=F ISym2X=1 I1Cent= 0 IOpClX= 1 NMat=1 NMatS=1 NMatT=0.
 FoFJK:  IHMeth=40 ICntrl=    2127 DoSepK=F KAlg= 0 I1Cent=           0 FoldK=F
 IRaf=         0 NMat=       1 IRICut=       1 DoRegI=T DoRafI=F ISym2E= 1 IDoP0=3 IntGTp=3.
 FoFCou: FMM=F IPFlag=           0 FMFlag=      100000 FMFlg1=         800
         NFxFlg=           0 DoJE=F BraDBF=F KetDBF=F FulRan=T
         wScrn=  0.000000 ICntrl=      2127 IOpCl=  1 I1Cent=           0 NGrid=           0
         NMat0=    1 NMatS0=      1 NMatT0=    0 NMatD0=    1 NMtDS0=    0 NMtDT0=    0
 Petite list used in FoFCou.
 Leave Link  703 at Wed Oct 21 14:28:58 2020, MaxMem=  2684354560 cpu:               3.2 elap:               1.0
 (Enter /udrive/faculty/rpeverati/g16/g16/l716.exe)
 Dipole        =-5.60041048D-02 1.04422668D-01 9.93276725D-16
 ***** Axes restored to original set *****
 -------------------------------------------------------------------
 Center     Atomic                   Forces (Hartrees/Bohr)
 Number     Number              X              Y              Z
 -------------------------------------------------------------------
      1        1           0.006280362   -0.002833831   -0.000000000
      2        6          -0.006916415    0.006273839   -0.000000000
      3        8           0.000636053   -0.003440008    0.000000000
 -------------------------------------------------------------------
 Cartesian Forces:  Max     0.006916415 RMS     0.004040209
 Leave Link  716 at Wed Oct 21 14:28:59 2020, MaxMem=  2684354560 cpu:               2.7 elap:               1.0
 (Enter /udrive/faculty/rpeverati/g16/g16/l103.exe)

 GradGradGradGradGradGradGradGradGradGradGradGradGradGradGradGradGradGrad
 Berny optimization.
 Optmz: redundant internal coordinate code flag= 1
 Red2BG:  D1=  5.00D-01 OD1=  1.96D-03 B2RMS=  0.00D+00 IAprox=0
 FormGI is forming the generalized inverse of G from B-inverse, IUseBI=4.
 Internal  Forces:  Max     0.006879685 RMS     0.004506691
 Search for a saddle point.
 Step number   2 out of a maximum of   50
 All quantities printed in internal units (Hartrees-Bohrs-Radians)
 Swapping is turned off.
 Update second derivatives using D2CorX and points    1    2
 The second derivative matrix:
                          R1        R2        A1
           R1           0.05002
           R2          -0.06432   1.29296
           A1          -0.01875  -0.07184   0.13355
 ITU=  0  0
 Eigenvectors of the second derivative matrix:
                           1         2         3
     Eigenvalues --     0.04102   0.13494   1.30057
   1         R1         0.96728   0.24865   0.05037
   2         R2         0.06379  -0.04621  -0.99689
   3         A1         0.24555  -0.96749   0.06056
 Eigenvalue     1 is   4.10D-02 should be less than     0.000000 Eigenvector:
                          R1        A1        R2
   1                    0.96728   0.24555   0.06379
 RLam0= 4.19D-02.
 Iter=   1 RLamda= 0.00000000D+00 Sum=-8.38101445D-05.
 Iter=   2 RLamda=-8.38101445D-05 Sum=-8.37639804D-05.
 Iter=   3 RLamda=-8.37639804D-05 Sum=-8.37640058D-05.
 RFO step:  Lambda0=4.190936609D-02 Lambda=-8.37639804D-05.
 Linear search not attempted -- option 19 set.
 Iteration  1 RMS(Cart)=  0.02656463 RMS(Int)=  0.00023978
 Iteration  2 RMS(Cart)=  0.00017873 RMS(Int)=  0.00000001
 Iteration  3 RMS(Cart)=  0.00000002 RMS(Int)=  0.00000000
 ITry= 1 IFail=0 DXMaxC= 2.71D-02 DCOld= 1.00D+10 DXMaxT= 1.00D-01 DXLimC= 3.00D+00 Rises=F
 ClnCor:  largest displacement from symmetrization is 2.24D-16 for atom     3.
 Variable       Old X    -DE/DX   Delta X   Delta X   Delta X     New X
                                 (Linear)    (Quad)   (Total)
    R1        3.47877  -0.00688   0.00000   0.01676   0.01676   3.49553
    R2        2.15536   0.00344   0.00000   0.00541   0.00541   2.16076
    A1        2.05684   0.00132   0.00000   0.02812   0.02812   2.08496
         Item               Value     Threshold  Converged?
 Maximum Force            0.006880     0.000450     NO 
 RMS     Force            0.004507     0.000300     NO 
 Maximum Displacement     0.027118     0.001800     NO 
 RMS     Displacement     0.026561     0.001200     NO 
 Predicted change in Energy= 1.127711D-04
 Lowest energy point so far.  Saving SCF results.
 Largest change from initial coordinates is atom    1       0.019 Angstoms.
 GradGradGradGradGradGradGradGradGradGradGradGradGradGradGradGradGradGrad

 Leave Link  103 at Wed Oct 21 14:29:02 2020, MaxMem=  2684354560 cpu:               5.8 elap:               1.6
 (Enter /udrive/faculty/rpeverati/g16/g16/l202.exe)
                          Input orientation:                          
 ---------------------------------------------------------------------
 Center     Atomic      Atomic             Coordinates (Angstroms)
 Number     Number       Type             X           Y           Z
 ---------------------------------------------------------------------
      1          1           0       -1.533598    1.410200    0.000000
      2          6           0        0.100119    0.542698    0.000000
      3          8           0        0.129880   -0.600342    0.000000
 ---------------------------------------------------------------------
                    Distance matrix (angstroms):
                    1          2          3
     1  H    0.000000
     2  C    1.849755   0.000000
     3  O    2.609490   1.143427   0.000000
 Stoichiometry    CHO(2)
 Framework group  CS[SG(CHO)]
 Deg. of freedom     3
 Full point group                 CS      NOp   2
 RotChk:  IX=0 Diff= 2.67D-02
 Largest Abelian subgroup         CS      NOp   2
 Largest concise Abelian subgroup C1      NOp   1
                         Standard orientation:                         
 ---------------------------------------------------------------------
 Center     Atomic      Atomic             Coordinates (Angstroms)
 Number     Number       Type             X           Y           Z
 ---------------------------------------------------------------------
      1          1           0       -1.503213    1.458909    0.000000
      2          6           0        0.107372    0.549179    0.000000
      3          8           0        0.107372   -0.594248    0.000000
 ---------------------------------------------------------------------
 Rotational constants (GHZ):         267.5487684          42.2024332          36.4525108
 Leave Link  202 at Wed Oct 21 14:29:03 2020, MaxMem=  2684354560 cpu:               4.3 elap:               1.5
 (Enter /udrive/faculty/rpeverati/g16/g16/l301.exe)
 Standard basis: VSTO-6G (5D, 7F)
 Ernie: Thresh=  0.10000D-02 Tol=  0.10000D-05 Strict=F.
  NNHCO=     0 NNPyr=     0 NCTC=     0               EPep=         0.000000000
    EC=         9.853733532  ECS=         0.574904524   EG=         0.034615865
   EHC=         0.000703519  EAt=       -15.198629379  AtH=         0.450273680
 EPDDG=         0.000000000  ECC=        10.463957439 EAtT=        15.648903059
 There are     7 symmetry adapted cartesian basis functions of A'  symmetry.
 There are     2 symmetry adapted cartesian basis functions of A"  symmetry.
 There are     7 symmetry adapted basis functions of A'  symmetry.
 There are     2 symmetry adapted basis functions of A"  symmetry.
     9 basis functions,    54 primitive gaussians,     9 cartesian basis functions
     6 alpha electrons        5 beta electrons
       nuclear repulsion energy        26.1128604978 Hartrees.
 IExCor=    0 DFT=F Ex=HF Corr=None ExCW=0 ScaHFX=  1.000000
 ScaDFX=  1.000000  1.000000  1.000000  1.000000 ScalE2=  1.000000  1.000000
 IRadAn=      5 IRanWt=     -1 IRanGd=            0 ICorTp=0 IEmpDi=  4
 Integral buffers will be    131072 words long.
 Regular integral format.
 Two-electron integral symmetry is turned off.
 Leave Link  301 at Wed Oct 21 14:29:05 2020, MaxMem=  2684354560 cpu:               4.9 elap:               1.4
 (Enter /udrive/faculty/rpeverati/g16/g16/l302.exe)
 Do NDO integrals.
 NPDir=0 NMtPBC=     1 NCelOv=     1 NCel=       1 NClECP=     1 NCelD=      1
         NCelK=      1 NCelE2=     1 NClLst=     1 CellRange=     0.0.
 One-electron integrals computed using PRISM.
 NBasis=     9 RedAO= T EigKep=  1.00D+00  NBF=     7     2
 NBsUse=     9 1.00D-06 EigRej= -1.00D+00 NBFU=     7     2
 Leave Link  302 at Wed Oct 21 14:29:07 2020, MaxMem=  2684354560 cpu:               4.6 elap:               1.4
 (Enter /udrive/faculty/rpeverati/g16/g16/l303.exe)
 DipDrv:  MaxL=1.
 Leave Link  303 at Wed Oct 21 14:29:09 2020, MaxMem=  2684354560 cpu:               2.9 elap:               1.3
 (Enter /udrive/faculty/rpeverati/g16/g16/l401.exe)
 Initial guess from the checkpoint file:  "MN_51_hcots_BH76_PM6_SE.chk"
 SCF N**3 symmetry information disabled.
 B after Tr=    -0.000000   -0.000000    0.000000
         Rot=    0.999984    0.000000   -0.000000    0.005603 Ang=   0.64 deg.
 Guess basis will be translated and rotated to current coordinates.
 JPrj=0 DoOrth=T DoCkMO=T.
 Initial guess orbital symmetries:
 Alpha Orbitals:
       Occupied  (A') (A') (A') (A") (A') (A')
       Virtual   (A") (A') (A')
 Beta  Orbitals:
       Occupied  (A') (A') (A") (A') (A')
       Virtual   (A') (A") (A') (A')
 The electronic state of the initial guess is 2-A'.
 Initial guess <Sx>= 0.0000 <Sy>= 0.0000 <Sz>= 0.5000 <S**2>= 0.7611 S= 0.5055
 Leave Link  401 at Wed Oct 21 14:29:11 2020, MaxMem=  2684354560 cpu:               1.9 elap:               1.2
 (Enter /udrive/faculty/rpeverati/g16/g16/l502.exe)
 Keep J ints in memory in canonical form, NReq=859290.
 FoFCou: FMM=F IPFlag=           0 FMFlag=           0 FMFlg1=           0
         NFxFlg=           0 DoJE=F BraDBF=F KetDBF=F FulRan=T
         wScrn=  0.000000 ICntrl=       600 IOpCl=  2 I1Cent=           0 NGrid=           0
         NMat0=    1 NMatS0=     21 NMatT0=    0 NMatD0=    1 NMtDS0=    0 NMtDT0=    0
 Symmetry not used in FoFCou.
 Two-electron integral symmetry not used.
 UHF open shell SCF:
 Using DIIS extrapolation, IDIIS=  1040.
 Overlap will be assumed to be unity.
 NGot=  2684354560 LenX=  2684293973 LenY=  2684293091
 Requested convergence on RMS density matrix=1.00D-08 within 120 cycles.
 Requested convergence on MAX density matrix=1.00D-06.
 Requested convergence on             energy=1.00D-06.
 No special actions if energy rises.

 Cycle   1  Pass 1  IDiag  1:
 E= 0.584659596865009E-01
 DIIS: error= 1.85D-03 at cycle   1 NSaved=   1.
 NSaved= 1 IEnMin= 1 EnMin= 0.584659596865009E-01 IErMin= 1 ErrMin= 1.85D-03
 ErrMax= 1.85D-03  0.00D+00 EMaxC= 1.00D-01 BMatC= 1.97D-04 BMatP= 1.97D-04
 IDIUse=3 WtCom= 9.81D-01 WtEn= 1.85D-02
 Coeff-Com:  0.100D+01
 Coeff-En:   0.100D+01
 Coeff:      0.100D+01
 GapD=    2.000 DampG=2.000 DampE=1.000 DampFc=2.0000 IDamp=-1.
 RMSDP=1.25D-03 MaxDP=4.87D-03              OVMax= 0.00D+00

 Cycle   2  Pass 1  IDiag  3:
 E= 0.583221906013804E-01 Delta-E=       -0.000143769085 Rises=F Damp=F
 DIIS: error= 7.08D-04 at cycle   2 NSaved=   2.
 NSaved= 2 IEnMin= 2 EnMin= 0.583221906013804E-01 IErMin= 2 ErrMin= 7.08D-04
 ErrMax= 7.08D-04  0.00D+00 EMaxC= 1.00D-01 BMatC= 2.38D-05 BMatP= 1.97D-04
 IDIUse=3 WtCom= 9.93D-01 WtEn= 7.08D-03
 Coeff-Com: -0.463D+00 0.146D+01
 Coeff-En:   0.000D+00 0.100D+01
 Coeff:     -0.459D+00 0.146D+01
 Gap=     0.421 Goal=   None    Shift=    0.000
 Gap=     0.468 Goal=   None    Shift=    0.000
 RMSDP=7.69D-04 MaxDP=3.04D-03 DE=-1.44D-04 OVMax= 3.07D-03

 Cycle   3  Pass 1  IDiag  3:
 E= 0.582956412745368E-01 Delta-E=       -0.000026549327 Rises=F Damp=F
 DIIS: error= 1.37D-04 at cycle   3 NSaved=   3.
 NSaved= 3 IEnMin= 3 EnMin= 0.582956412745368E-01 IErMin= 3 ErrMin= 1.37D-04
 ErrMax= 1.37D-04  0.00D+00 EMaxC= 1.00D-01 BMatC= 1.04D-06 BMatP= 2.38D-05
 IDIUse=3 WtCom= 9.99D-01 WtEn= 1.37D-03
 Coeff-Com:  0.218D+00-0.770D+00 0.155D+01
 Coeff-En:   0.000D+00 0.000D+00 0.100D+01
 Coeff:      0.217D+00-0.769D+00 0.155D+01
 Gap=     0.421 Goal=   None    Shift=    0.000
 Gap=     0.468 Goal=   None    Shift=    0.000
 RMSDP=2.65D-04 MaxDP=1.01D-03 DE=-2.65D-05 OVMax= 1.75D-03

 Cycle   4  Pass 1  IDiag  3:
 E= 0.582934084165032E-01 Delta-E=       -0.000002232858 Rises=F Damp=F
 DIIS: error= 7.58D-05 at cycle   4 NSaved=   4.
 NSaved= 4 IEnMin= 4 EnMin= 0.582934084165032E-01 IErMin= 4 ErrMin= 7.58D-05
 ErrMax= 7.58D-05  0.00D+00 EMaxC= 1.00D-01 BMatC= 1.51D-07 BMatP= 1.04D-06
 IDIUse=1 WtCom= 1.00D+00 WtEn= 0.00D+00
 Coeff-Com: -0.128D+00 0.472D+00-0.123D+01 0.189D+01
 Coeff:     -0.128D+00 0.472D+00-0.123D+01 0.189D+01
 Gap=     0.421 Goal=   None    Shift=    0.000
 Gap=     0.468 Goal=   None    Shift=    0.000
 RMSDP=1.43D-04 MaxDP=6.16D-04 DE=-2.23D-06 OVMax= 1.05D-03

 Cycle   5  Pass 1  IDiag  3:
 E= 0.582929879890699E-01 Delta-E=       -0.000000420427 Rises=F Damp=F
 DIIS: error= 1.84D-05 at cycle   5 NSaved=   5.
 NSaved= 5 IEnMin= 5 EnMin= 0.582929879890699E-01 IErMin= 5 ErrMin= 1.84D-05
 ErrMax= 1.84D-05  0.00D+00 EMaxC= 1.00D-01 BMatC= 1.47D-08 BMatP= 1.51D-07
 IDIUse=1 WtCom= 1.00D+00 WtEn= 0.00D+00
 Coeff-Com:  0.372D-01-0.140D+00 0.412D+00-0.880D+00 0.157D+01
 Coeff:      0.372D-01-0.140D+00 0.412D+00-0.880D+00 0.157D+01
 Gap=     0.421 Goal=   None    Shift=    0.000
 Gap=     0.468 Goal=   None    Shift=    0.000
 RMSDP=4.14D-05 MaxDP=1.70D-04 DE=-4.20D-07 OVMax= 3.08D-04

 Cycle   6  Pass 1  IDiag  3:
 E= 0.582929480397993E-01 Delta-E=       -0.000000039949 Rises=F Damp=F
 DIIS: error= 9.29D-06 at cycle   6 NSaved=   6.
 NSaved= 6 IEnMin= 6 EnMin= 0.582929480397993E-01 IErMin= 6 ErrMin= 9.29D-06
 ErrMax= 9.29D-06  0.00D+00 EMaxC= 1.00D-01 BMatC= 3.66D-09 BMatP= 1.47D-08
 IDIUse=1 WtCom= 1.00D+00 WtEn= 0.00D+00
 Coeff-Com: -0.488D-01 0.184D+00-0.570D+00 0.134D+01-0.293D+01 0.302D+01
 Coeff:     -0.488D-01 0.184D+00-0.570D+00 0.134D+01-0.293D+01 0.302D+01
 Gap=     0.421 Goal=   None    Shift=    0.000
 Gap=     0.468 Goal=   None    Shift=    0.000
 RMSDP=3.23D-05 MaxDP=9.54D-05 DE=-3.99D-08 OVMax= 1.77D-04

 Cycle   7  Pass 1  IDiag  3:
 E= 0.582929345952543E-01 Delta-E=       -0.000000013445 Rises=F Damp=F
 DIIS: error= 1.82D-06 at cycle   7 NSaved=   7.
 NSaved= 7 IEnMin= 7 EnMin= 0.582929345952543E-01 IErMin= 7 ErrMin= 1.82D-06
 ErrMax= 1.82D-06  0.00D+00 EMaxC= 1.00D-01 BMatC= 1.32D-10 BMatP= 3.66D-09
 IDIUse=1 WtCom= 1.00D+00 WtEn= 0.00D+00
 Coeff-Com:  0.314D-01-0.119D+00 0.375D+00-0.907D+00 0.205D+01-0.225D+01
 Coeff-Com:  0.182D+01
 Coeff:      0.314D-01-0.119D+00 0.375D+00-0.907D+00 0.205D+01-0.225D+01
 Coeff:      0.182D+01
 Gap=     0.421 Goal=   None    Shift=    0.000
 Gap=     0.468 Goal=   None    Shift=    0.000
 RMSDP=4.91D-06 MaxDP=1.76D-05 DE=-1.34D-08 OVMax= 3.33D-05

 Cycle   8  Pass 1  IDiag  3:
 E= 0.582929342332896E-01 Delta-E=       -0.000000000362 Rises=F Damp=F
 DIIS: error= 5.28D-07 at cycle   8 NSaved=   8.
 NSaved= 8 IEnMin= 8 EnMin= 0.582929342332896E-01 IErMin= 8 ErrMin= 5.28D-07
 ErrMax= 5.28D-07  0.00D+00 EMaxC= 1.00D-01 BMatC= 7.96D-12 BMatP= 1.32D-10
 IDIUse=1 WtCom= 1.00D+00 WtEn= 0.00D+00
 Coeff-Com: -0.198D-01 0.752D-01-0.239D+00 0.584D+00-0.133D+01 0.147D+01
 Coeff-Com: -0.130D+01 0.176D+01
 Coeff:     -0.198D-01 0.752D-01-0.239D+00 0.584D+00-0.133D+01 0.147D+01
 Coeff:     -0.130D+01 0.176D+01
 Gap=     0.421 Goal=   None    Shift=    0.000
 Gap=     0.468 Goal=   None    Shift=    0.000
 RMSDP=8.62D-07 MaxDP=2.67D-06 DE=-3.62D-10 OVMax= 4.48D-06

 Cycle   9  Pass 1  IDiag  3:
 E= 0.582929342141156E-01 Delta-E=       -0.000000000019 Rises=F Damp=F
 DIIS: error= 1.97D-07 at cycle   9 NSaved=   9.
 NSaved= 9 IEnMin= 9 EnMin= 0.582929342141156E-01 IErMin= 9 ErrMin= 1.97D-07
 ErrMax= 1.97D-07  0.00D+00 EMaxC= 1.00D-01 BMatC= 1.47D-12 BMatP= 7.96D-12
 IDIUse=1 WtCom= 1.00D+00 WtEn= 0.00D+00
 Coeff-Com:  0.760D-02-0.290D-01 0.944D-01-0.236D+00 0.552D+00-0.620D+00
 Coeff-Com:  0.598D+00-0.125D+01 0.188D+01
 Coeff:      0.760D-02-0.290D-01 0.944D-01-0.236D+00 0.552D+00-0.620D+00
 Coeff:      0.598D+00-0.125D+01 0.188D+01
 Gap=     0.421 Goal=   None    Shift=    0.000
 Gap=     0.468 Goal=   None    Shift=    0.000
 RMSDP=4.33D-07 MaxDP=1.65D-06 DE=-1.92D-11 OVMax= 1.97D-06

 Cycle  10  Pass 1  IDiag  3:
 E= 0.582929342102609E-01 Delta-E=       -0.000000000004 Rises=F Damp=F
 DIIS: error= 7.53D-08 at cycle  10 NSaved=  10.
 NSaved=10 IEnMin=10 EnMin= 0.582929342102609E-01 IErMin=10 ErrMin= 7.53D-08
 ErrMax= 7.53D-08  0.00D+00 EMaxC= 1.00D-01 BMatC= 1.89D-13 BMatP= 1.47D-12
 IDIUse=1 WtCom= 1.00D+00 WtEn= 0.00D+00
 Coeff-Com: -0.426D-02 0.164D-01-0.543D-01 0.139D+00-0.332D+00 0.377D+00
 Coeff-Com: -0.378D+00 0.879D+00-0.162D+01 0.198D+01
 Coeff:     -0.426D-02 0.164D-01-0.543D-01 0.139D+00-0.332D+00 0.377D+00
 Coeff:     -0.378D+00 0.879D+00-0.162D+01 0.198D+01
 Gap=     0.421 Goal=   None    Shift=    0.000
 Gap=     0.468 Goal=   None    Shift=    0.000
 RMSDP=1.55D-07 MaxDP=4.42D-07 DE=-3.85D-12 OVMax= 6.55D-07

 Cycle  11  Pass 1  IDiag  3:
 E= 0.582929342097636E-01 Delta-E=       -0.000000000000 Rises=F Damp=F
 DIIS: error= 3.42D-08 at cycle  11 NSaved=  11.
 NSaved=11 IEnMin=11 EnMin= 0.582929342097636E-01 IErMin=11 ErrMin= 3.42D-08
 ErrMax= 3.42D-08  0.00D+00 EMaxC= 1.00D-01 BMatC= 2.09D-14 BMatP= 1.89D-13
 IDIUse=1 WtCom= 1.00D+00 WtEn= 0.00D+00
 Coeff-Com:  0.759D-03-0.297D-02 0.105D-01-0.285D-01 0.718D-01-0.839D-01
 Coeff-Com:  0.912D-01-0.233D+00 0.498D+00-0.985D+00 0.166D+01
 Coeff:      0.759D-03-0.297D-02 0.105D-01-0.285D-01 0.718D-01-0.839D-01
 Coeff:      0.912D-01-0.233D+00 0.498D+00-0.985D+00 0.166D+01
 Gap=     0.421 Goal=   None    Shift=    0.000
 Gap=     0.468 Goal=   None    Shift=    0.000
 RMSDP=5.03D-08 MaxDP=2.23D-07 DE=-4.97D-13 OVMax= 2.63D-07

 Cycle  12  Pass 1  IDiag  3:
 E= 0.582929342097316E-01 Delta-E=       -0.000000000000 Rises=F Damp=F
 DIIS: error= 6.40D-09 at cycle  12 NSaved=  12.
 NSaved=12 IEnMin=12 EnMin= 0.582929342097316E-01 IErMin=12 ErrMin= 6.40D-09
 ErrMax= 6.40D-09  0.00D+00 EMaxC= 1.00D-01 BMatC= 1.26D-15 BMatP= 2.09D-14
 IDIUse=1 WtCom= 1.00D+00 WtEn= 0.00D+00
 Coeff-Com: -0.139D-04 0.996D-04-0.861D-03 0.366D-02-0.119D-01 0.155D-01
 Coeff-Com: -0.217D-01 0.713D-01-0.189D+00 0.509D+00-0.114D+01 0.176D+01
 Coeff:     -0.139D-04 0.996D-04-0.861D-03 0.366D-02-0.119D-01 0.155D-01
 Coeff:     -0.217D-01 0.713D-01-0.189D+00 0.509D+00-0.114D+01 0.176D+01
 Gap=     0.421 Goal=   None    Shift=    0.000
 Gap=     0.468 Goal=   None    Shift=    0.000
 RMSDP=1.08D-08 MaxDP=4.16D-08 DE=-3.20D-14 OVMax= 4.85D-08

 Cycle  13  Pass 1  IDiag  3:
 E= 0.582929342097280E-01 Delta-E=       -0.000000000000 Rises=F Damp=F
 DIIS: error= 9.11D-10 at cycle  13 NSaved=  13.
 NSaved=13 IEnMin=13 EnMin= 0.582929342097280E-01 IErMin=13 ErrMin= 9.11D-10
 ErrMax= 9.11D-10  0.00D+00 EMaxC= 1.00D-01 BMatC= 5.00D-17 BMatP= 1.26D-15
 IDIUse=1 WtCom= 1.00D+00 WtEn= 0.00D+00
 Coeff-Com:  0.144D-04-0.865D-04 0.644D-03-0.263D-02 0.839D-02-0.108D-01
 Coeff-Com:  0.150D-01-0.484D-01 0.126D+00-0.337D+00 0.758D+00-0.128D+01
 Coeff-Com:  0.178D+01
 Coeff:      0.144D-04-0.865D-04 0.644D-03-0.263D-02 0.839D-02-0.108D-01
 Coeff:      0.150D-01-0.484D-01 0.126D+00-0.337D+00 0.758D+00-0.128D+01
 Coeff:      0.178D+01
 Gap=     0.421 Goal=   None    Shift=    0.000
 Gap=     0.468 Goal=   None    Shift=    0.000
 RMSDP=2.14D-09 MaxDP=8.51D-09 DE=-3.55D-15 OVMax= 1.00D-08

 Cycle  14  Pass 2  IDiag  1:
 SCF Done:  E(UPM6) =  0.582929342097E-01 A.U. after   14 cycles
            NFock= 13  Conv=0.21D-08     -V/T= 1.0023
 <Sx>= 0.0000 <Sy>= 0.0000 <Sz>= 0.5000 <S**2>= 0.7607 S= 0.5053
 <L.S>= 0.000000000000E+00
 KE=-2.552614591499D+01 PE=-1.900397904610D+01 EE= 1.847555739750D+01
 Annihilation of the first spin contaminant:
 S**2 before annihilation     0.7607,   after     0.7500
 Leave Link  502 at Wed Oct 21 14:29:15 2020, MaxMem=  2684354560 cpu:              13.4 elap:               2.2
 (Enter /udrive/faculty/rpeverati/g16/g16/l508.exe)
 QCSCF skips out because SCF is already converged.
 Leave Link  508 at Wed Oct 21 14:29:17 2020, MaxMem=  2684354560 cpu:               0.4 elap:               1.3
 (Enter /udrive/faculty/rpeverati/g16/g16/l701.exe)
 ... and contract with generalized density number  0.
 Compute integral first derivatives.
 Leave Link  701 at Wed Oct 21 14:29:18 2020, MaxMem=  2684354560 cpu:               2.7 elap:               1.3
 (Enter /udrive/faculty/rpeverati/g16/g16/l702.exe)
 L702 exits ... SP integral derivatives will be done elsewhere.
 Leave Link  702 at Wed Oct 21 14:29:20 2020, MaxMem=  2684354560 cpu:               2.6 elap:               1.2
 (Enter /udrive/faculty/rpeverati/g16/g16/l703.exe)
 Integral derivatives from FoFJK, PRISM(SPDF).
 Compute integral first derivatives, UseDBF=F ICtDFT=           0.
 Calling FoFJK, ICntrl=      2127 FMM=F ISym2X=1 I1Cent= 0 IOpClX= 1 NMat=1 NMatS=1 NMatT=0.
 FoFJK:  IHMeth=40 ICntrl=    2127 DoSepK=F KAlg= 0 I1Cent=           0 FoldK=F
 IRaf=         0 NMat=       1 IRICut=       1 DoRegI=T DoRafI=F ISym2E= 1 IDoP0=3 IntGTp=3.
 FoFCou: FMM=F IPFlag=           0 FMFlag=      100000 FMFlg1=         800
         NFxFlg=           0 DoJE=F BraDBF=F KetDBF=F FulRan=T
         wScrn=  0.000000 ICntrl=      2127 IOpCl=  1 I1Cent=           0 NGrid=           0
         NMat0=    1 NMatS0=      1 NMatT0=    0 NMatD0=    1 NMtDS0=    0 NMtDT0=    0
 Petite list used in FoFCou.
 Leave Link  703 at Wed Oct 21 14:29:22 2020, MaxMem=  2684354560 cpu:               2.8 elap:               1.4
 (Enter /udrive/faculty/rpeverati/g16/g16/l716.exe)
 Dipole        =-5.18809685D-02 1.09907584D-01 9.82526220D-16
 ***** Axes restored to original set *****
 -------------------------------------------------------------------
 Center     Atomic                   Forces (Hartrees/Bohr)
 Number     Number              X              Y              Z
 -------------------------------------------------------------------
      1        1           0.006021164   -0.002943428   -0.000000000
      2        6          -0.006309662    0.000091402   -0.000000000
      3        8           0.000288498    0.002852026    0.000000000
 -------------------------------------------------------------------
 Cartesian Forces:  Max     0.006309662 RMS     0.003213784
 Leave Link  716 at Wed Oct 21 14:29:24 2020, MaxMem=  2684354560 cpu:               2.1 elap:               1.2
 (Enter /udrive/faculty/rpeverati/g16/g16/l103.exe)

 GradGradGradGradGradGradGradGradGradGradGradGradGradGradGradGradGradGrad
 Berny optimization.
 Optmz: redundant internal coordinate code flag= 1
 Red2BG:  D1=  5.05D-01 OD1=  4.46D-03 B2RMS=  0.00D+00 IAprox=0
 FormGI is forming the generalized inverse of G from B-inverse, IUseBI=4.
 Internal  Forces:  Max     0.006698353 RMS     0.004225623
 Search for a saddle point.
 Step number   3 out of a maximum of   50
 All quantities printed in internal units (Hartrees-Bohrs-Radians)
 Swapping is turned off.
 Update second derivatives using D2CorX and points    1    2    3
 The second derivative matrix:
                          R1        R2        A1
           R1           0.06097
           R2          -0.02274   1.31185
           A1          -0.03842  -0.01517   0.04481
 ITU=  0  0  0
 Eigenvectors of the second derivative matrix:
                           1         2         3
     Eigenvalues --     0.01311   0.09209   1.31243
   1         R1        -0.63160   0.77509   0.01781
   2         R2        -0.02011   0.00659  -0.99978
   3         A1        -0.77503  -0.63182   0.01143
 Eigenvalue     1 is   1.31D-02 should be less than     0.000000 Eigenvector:
                          A1        R1        R2
   1                   -0.77503  -0.63160  -0.02011
 RLam0= 1.41D-02.
 Iter=   1 RLamda= 0.00000000D+00 Sum=-3.59182931D-04.
 Iter=   2 RLamda=-3.59182931D-04 Sum=-3.57808022D-04.
 Iter=   3 RLamda=-3.57808022D-04 Sum=-3.57813265D-04.
 RFO step:  Lambda0=1.407130269D-02 Lambda=-3.57808022D-04.
 Linear search not attempted -- option 19 set.
 Iteration  1 RMS(Cart)=  0.06432304 RMS(Int)=  0.00234199
 Iteration  2 RMS(Cart)=  0.00201987 RMS(Int)=  0.00000017
 Iteration  3 RMS(Cart)=  0.00000020 RMS(Int)=  0.00000000
 ITry= 1 IFail=0 DXMaxC= 6.74D-02 DCOld= 1.00D+10 DXMaxT= 1.00D-01 DXLimC= 3.00D+00 Rises=F
 ClnCor:  largest displacement from symmetrization is 9.93D-16 for atom     1.
 Variable       Old X    -DE/DX   Delta X   Delta X   Delta X     New X
                                 (Linear)    (Quad)   (Total)
    R1        3.49553  -0.00670   0.00000  -0.00880  -0.00880   3.48673
    R2        2.16076  -0.00284   0.00000  -0.00125  -0.00125   2.15952
    A1        2.08496   0.00078   0.00000   0.08688   0.08688   2.17184
         Item               Value     Threshold  Converged?
 Maximum Force            0.006698     0.000450     NO 
 RMS     Force            0.004226     0.000300     NO 
 Maximum Displacement     0.067408     0.001800     NO 
 RMS     Displacement     0.063550     0.001200     NO 
 Predicted change in Energy= 7.268183D-05
 Largest change from initial coordinates is atom    1       0.040 Angstoms.
 GradGradGradGradGradGradGradGradGradGradGradGradGradGradGradGradGradGrad

 Leave Link  103 at Wed Oct 21 14:29:26 2020, MaxMem=  2684354560 cpu:               4.5 elap:               1.6
 (Enter /udrive/faculty/rpeverati/g16/g16/l202.exe)
                          Input orientation:                          
 ---------------------------------------------------------------------
 Center     Atomic      Atomic             Coordinates (Angstroms)
 Number     Number       Type             X           Y           Z
 ---------------------------------------------------------------------
      1          1           0       -1.537186    1.436888    0.000000
      2          6           0        0.068037    0.527134    0.000000
      3          8           0        0.165550   -0.611466    0.000000
 ---------------------------------------------------------------------
                    Distance matrix (angstroms):
                    1          2          3
     1  H    0.000000
     2  C    1.845100   0.000000
     3  O    2.663656   1.142768   0.000000
 Stoichiometry    CHO(2)
 Framework group  CS[SG(CHO)]
 Deg. of freedom     3
 Full point group                 CS      NOp   2
 RotChk:  IX=0 Diff= 8.40D-02
 Largest Abelian subgroup         CS      NOp   2
 Largest concise Abelian subgroup C1      NOp   1
                         Standard orientation:                         
 ---------------------------------------------------------------------
 Center     Atomic      Atomic             Coordinates (Angstroms)
 Number     Number       Type             X           Y           Z
 ---------------------------------------------------------------------
      1          1           0       -1.420289    1.583326    0.000000
      2          6           0        0.101449    0.539916    0.000000
      3          8           0        0.101449   -0.602853    0.000000
 ---------------------------------------------------------------------
 Rotational constants (GHZ):         310.0895134          40.8358553          36.0839415
 Leave Link  202 at Wed Oct 21 14:29:28 2020, MaxMem=  2684354560 cpu:               2.3 elap:               1.4
 (Enter /udrive/faculty/rpeverati/g16/g16/l301.exe)
 Standard basis: VSTO-6G (5D, 7F)
 Ernie: Thresh=  0.10000D-02 Tol=  0.10000D-05 Strict=F.
  NNHCO=     0 NNPyr=     0 NCTC=     0               EPep=         0.000000000
    EC=         9.838642768  ECS=         0.576366142   EG=         0.034665046
   EHC=         0.000708405  EAt=       -15.198629379  AtH=         0.450273680
 EPDDG=         0.000000000  ECC=        10.450382361 EAtT=        15.648903059
 There are     7 symmetry adapted cartesian basis functions of A'  symmetry.
 There are     2 symmetry adapted cartesian basis functions of A"  symmetry.
 There are     7 symmetry adapted basis functions of A'  symmetry.
 There are     2 symmetry adapted basis functions of A"  symmetry.
     9 basis functions,    54 primitive gaussians,     9 cartesian basis functions
     6 alpha electrons        5 beta electrons
       nuclear repulsion energy        26.0992854196 Hartrees.
 IExCor=    0 DFT=F Ex=HF Corr=None ExCW=0 ScaHFX=  1.000000
 ScaDFX=  1.000000  1.000000  1.000000  1.000000 ScalE2=  1.000000  1.000000
 IRadAn=      5 IRanWt=     -1 IRanGd=            0 ICorTp=0 IEmpDi=  4
 Integral buffers will be    131072 words long.
 Regular integral format.
 Two-electron integral symmetry is turned off.
 Leave Link  301 at Wed Oct 21 14:29:30 2020, MaxMem=  2684354560 cpu:               4.3 elap:               1.6
 (Enter /udrive/faculty/rpeverati/g16/g16/l302.exe)
 Do NDO integrals.
 NPDir=0 NMtPBC=     1 NCelOv=     1 NCel=       1 NClECP=     1 NCelD=      1
         NCelK=      1 NCelE2=     1 NClLst=     1 CellRange=     0.0.
 One-electron integrals computed using PRISM.
 NBasis=     9 RedAO= T EigKep=  1.00D+00  NBF=     7     2
 NBsUse=     9 1.00D-06 EigRej= -1.00D+00 NBFU=     7     2
 Leave Link  302 at Wed Oct 21 14:29:32 2020, MaxMem=  2684354560 cpu:               2.7 elap:               1.4
 (Enter /udrive/faculty/rpeverati/g16/g16/l303.exe)
 DipDrv:  MaxL=1.
 Leave Link  303 at Wed Oct 21 14:29:34 2020, MaxMem=  2684354560 cpu:               2.8 elap:               1.3
 (Enter /udrive/faculty/rpeverati/g16/g16/l401.exe)
 Initial guess from the checkpoint file:  "MN_51_hcots_BH76_PM6_SE.chk"
 SCF N**3 symmetry information disabled.
 B after Tr=     0.000000   -0.000000   -0.000000
[...]
 ErrMax= 4.65D-03  0.00D+00 EMaxC= 1.00D-01 BMatC= 9.01D-04 BMatP= 7.45D-03
 IDIUse=3 WtCom= 9.53D-01 WtEn= 4.65D-02
 Coeff-Com: -0.473D+00 0.147D+01
 Coeff-En:   0.000D+00 0.100D+01
 Coeff:     -0.451D+00 0.145D+01
 Gap=     0.460 Goal=   None    Shift=    0.000
 Gap=     0.485 Goal=   None    Shift=    0.000
 RMSDP=4.60D-03 MaxDP=1.90D-02 DE=-5.38D-03 OVMax= 1.96D-02

 Cycle   3  Pass 1  IDiag  3:
 E= 0.612824175853568E-01 Delta-E=       -0.000973479045 Rises=F Damp=F
 DIIS: error= 8.44D-04 at cycle   3 NSaved=   3.
 NSaved= 3 IEnMin= 3 EnMin= 0.612824175853568E-01 IErMin= 3 ErrMin= 8.44D-04
 ErrMax= 8.44D-04  0.00D+00 EMaxC= 1.00D-01 BMatC= 3.54D-05 BMatP= 9.01D-04
 IDIUse=3 WtCom= 9.92D-01 WtEn= 8.44D-03
 Coeff-Com:  0.275D+00-0.947D+00 0.167D+01
 Coeff-En:   0.000D+00 0.000D+00 0.100D+01
 Coeff:      0.273D+00-0.939D+00 0.167D+01
 Gap=     0.461 Goal=   None    Shift=    0.000
 Gap=     0.485 Goal=   None    Shift=    0.000
 RMSDP=1.57D-03 MaxDP=5.47D-03 DE=-9.73D-04 OVMax= 9.45D-03

 Cycle   4  Pass 1  IDiag  3:
 E= 0.612094126096565E-01 Delta-E=       -0.000073004976 Rises=F Damp=F
 DIIS: error= 3.06D-04 at cycle   4 NSaved=   4.
 NSaved= 4 IEnMin= 4 EnMin= 0.612094126096565E-01 IErMin= 4 ErrMin= 3.06D-04
 ErrMax= 3.06D-04  0.00D+00 EMaxC= 1.00D-01 BMatC= 3.27D-06 BMatP= 3.54D-05
 IDIUse=3 WtCom= 9.97D-01 WtEn= 3.06D-03
 Coeff-Com: -0.213D+00 0.748D+00-0.153D+01 0.199D+01
 Coeff-En:   0.000D+00 0.000D+00 0.000D+00 0.100D+01
 Coeff:     -0.213D+00 0.745D+00-0.152D+01 0.199D+01
 Gap=     0.461 Goal=   None    Shift=    0.000
 Gap=     0.485 Goal=   None    Shift=    0.000
 RMSDP=6.50D-04 MaxDP=2.44D-03 DE=-7.30D-05 OVMax= 4.04D-03

 Cycle   5  Pass 1  IDiag  3:
 E= 0.612016807753619E-01 Delta-E=       -0.000007731834 Rises=F Damp=F
 DIIS: error= 1.99D-05 at cycle   5 NSaved=   5.
 NSaved= 5 IEnMin= 5 EnMin= 0.612016807753619E-01 IErMin= 5 ErrMin= 1.99D-05
 ErrMax= 1.99D-05  0.00D+00 EMaxC= 1.00D-01 BMatC= 2.29D-08 BMatP= 3.27D-06
 IDIUse=1 WtCom= 1.00D+00 WtEn= 0.00D+00
 Coeff-Com: -0.886D-02 0.307D-01-0.542D-01-0.103D-02 0.103D+01
 Coeff:     -0.886D-02 0.307D-01-0.542D-01-0.103D-02 0.103D+01
 Gap=     0.461 Goal=   None    Shift=    0.000
 Gap=     0.485 Goal=   None    Shift=    0.000
 RMSDP=4.09D-05 MaxDP=1.52D-04 DE=-7.73D-06 OVMax= 2.48D-04

 Cycle   6  Pass 1  IDiag  3:
 E= 0.612016413962841E-01 Delta-E=       -0.000000039379 Rises=F Damp=F
 DIIS: error= 5.60D-06 at cycle   6 NSaved=   6.
 NSaved= 6 IEnMin= 6 EnMin= 0.612016413962841E-01 IErMin= 6 ErrMin= 5.60D-06
 ErrMax= 5.60D-06  0.00D+00 EMaxC= 1.00D-01 BMatC= 1.24D-09 BMatP= 2.29D-08
 IDIUse=1 WtCom= 1.00D+00 WtEn= 0.00D+00
 Coeff-Com:  0.645D-02-0.225D-01 0.429D-01-0.308D-01-0.404D+00 0.141D+01
 Coeff:      0.645D-02-0.225D-01 0.429D-01-0.308D-01-0.404D+00 0.141D+01
 Gap=     0.461 Goal=   None    Shift=    0.000
 Gap=     0.485 Goal=   None    Shift=    0.000
 RMSDP=6.73D-06 MaxDP=2.06D-05 DE=-3.94D-08 OVMax= 3.16D-05

 Cycle   7  Pass 1  IDiag  3:
 E= 0.612016399351276E-01 Delta-E=       -0.000000001461 Rises=F Damp=F
 DIIS: error= 6.07D-07 at cycle   7 NSaved=   7.
 NSaved= 7 IEnMin= 7 EnMin= 0.612016399351276E-01 IErMin= 7 ErrMin= 6.07D-07
 ErrMax= 6.07D-07  0.00D+00 EMaxC= 1.00D-01 BMatC= 2.22D-11 BMatP= 1.24D-09
 IDIUse=1 WtCom= 1.00D+00 WtEn= 0.00D+00
 Coeff-Com: -0.402D-03 0.140D-02-0.216D-02-0.350D-02 0.111D+00-0.390D+00
 Coeff-Com:  0.128D+01
 Coeff:     -0.402D-03 0.140D-02-0.216D-02-0.350D-02 0.111D+00-0.390D+00
 Coeff:      0.128D+01
 Gap=     0.461 Goal=   None    Shift=    0.000
 Gap=     0.485 Goal=   None    Shift=    0.000
 RMSDP=6.98D-07 MaxDP=2.13D-06 DE=-1.46D-09 OVMax= 2.74D-06

 Cycle   8  Pass 1  IDiag  3:
 E= 0.612016399148345E-01 Delta-E=       -0.000000000020 Rises=F Damp=F
 DIIS: error= 1.34D-07 at cycle   8 NSaved=   8.
 NSaved= 8 IEnMin= 8 EnMin= 0.612016399148345E-01 IErMin= 8 ErrMin= 1.34D-07
 ErrMax= 1.34D-07  0.00D+00 EMaxC= 1.00D-01 BMatC= 5.37D-13 BMatP= 2.22D-11
 IDIUse=1 WtCom= 1.00D+00 WtEn= 0.00D+00
 Coeff-Com:  0.227D-04-0.761D-04-0.116D-03 0.282D-02-0.480D-01 0.163D+00
 Coeff-Com: -0.566D+00 0.145D+01
 Coeff:      0.227D-04-0.761D-04-0.116D-03 0.282D-02-0.480D-01 0.163D+00
 Coeff:     -0.566D+00 0.145D+01
 Gap=     0.461 Goal=   None    Shift=    0.000
 Gap=     0.485 Goal=   None    Shift=    0.000
 RMSDP=1.22D-07 MaxDP=6.58D-07 DE=-2.03D-11 OVMax= 6.69D-07

 Cycle   9  Pass 1  IDiag  3:
 E= 0.612016399141311E-01 Delta-E=       -0.000000000001 Rises=F Damp=F
 DIIS: error= 3.46D-08 at cycle   9 NSaved=   9.
 NSaved= 9 IEnMin= 9 EnMin= 0.612016399141311E-01 IErMin= 9 ErrMin= 3.46D-08
 ErrMax= 3.46D-08  0.00D+00 EMaxC= 1.00D-01 BMatC= 5.88D-14 BMatP= 5.37D-13
 IDIUse=1 WtCom= 1.00D+00 WtEn= 0.00D+00
 Coeff-Com:  0.784D-05-0.293D-04 0.234D-03-0.206D-02 0.318D-01-0.106D+00
 Coeff-Com:  0.373D+00-0.115D+01 0.185D+01
 Coeff:      0.784D-05-0.293D-04 0.234D-03-0.206D-02 0.318D-01-0.106D+00
 Coeff:      0.373D+00-0.115D+01 0.185D+01
 Gap=     0.461 Goal=   None    Shift=    0.000
 Gap=     0.485 Goal=   None    Shift=    0.000
 RMSDP=6.39D-08 MaxDP=2.96D-07 DE=-7.03D-13 OVMax= 3.48D-07

 Cycle  10  Pass 1  IDiag  3:
 E= 0.612016399140103E-01 Delta-E=       -0.000000000000 Rises=F Damp=F
 DIIS: error= 8.42D-09 at cycle  10 NSaved=  10.
 NSaved=10 IEnMin=10 EnMin= 0.612016399140103E-01 IErMin=10 ErrMin= 8.42D-09
 ErrMax= 8.42D-09  0.00D+00 EMaxC= 1.00D-01 BMatC= 4.92D-15 BMatP= 5.88D-14
 IDIUse=1 WtCom= 1.00D+00 WtEn= 0.00D+00
 Coeff-Com: -0.316D-05 0.118D-04-0.940D-04 0.827D-03-0.127D-01 0.428D-01
 Coeff-Com: -0.152D+00 0.491D+00-0.102D+01 0.165D+01
 Coeff:     -0.316D-05 0.118D-04-0.940D-04 0.827D-03-0.127D-01 0.428D-01
 Coeff:     -0.152D+00 0.491D+00-0.102D+01 0.165D+01
 Gap=     0.461 Goal=   None    Shift=    0.000
 Gap=     0.485 Goal=   None    Shift=    0.000
 RMSDP=2.13D-08 MaxDP=6.12D-08 DE=-1.21D-13 OVMax= 1.03D-07

 Cycle  11  Pass 1  IDiag  3:
 E= 0.612016399139961E-01 Delta-E=       -0.000000000000 Rises=F Damp=F
 DIIS: error= 3.91D-09 at cycle  11 NSaved=  11.
 NSaved=11 IEnMin=11 EnMin= 0.612016399139961E-01 IErMin=11 ErrMin= 3.91D-09
 ErrMax= 3.91D-09  0.00D+00 EMaxC= 1.00D-01 BMatC= 7.74D-16 BMatP= 4.92D-15
 IDIUse=1 WtCom= 1.00D+00 WtEn= 0.00D+00
 Coeff-Com:  0.395D-05-0.151D-04 0.148D-03-0.138D-02 0.214D-01-0.720D-01
 Coeff-Com:  0.256D+00-0.833D+00 0.176D+01-0.309D+01 0.295D+01
 Coeff:      0.395D-05-0.151D-04 0.148D-03-0.138D-02 0.214D-01-0.720D-01
 Coeff:      0.256D+00-0.833D+00 0.176D+01-0.309D+01 0.295D+01
 Gap=     0.461 Goal=   None    Shift=    0.000
 Gap=     0.485 Goal=   None    Shift=    0.000
 RMSDP=1.36D-08 MaxDP=4.65D-08 DE=-1.42D-14 OVMax= 8.20D-08

 Cycle  12  Pass 1  IDiag  3:
 E= 0.612016399139890E-01 Delta-E=       -0.000000000000 Rises=F Damp=F
 DIIS: error= 1.13D-09 at cycle  12 NSaved=  12.
 NSaved=12 IEnMin=12 EnMin= 0.612016399139890E-01 IErMin=12 ErrMin= 1.13D-09
 ErrMax= 1.13D-09  0.00D+00 EMaxC= 1.00D-01 BMatC= 5.23D-17 BMatP= 7.74D-16
 IDIUse=1 WtCom= 1.00D+00 WtEn= 0.00D+00
 Coeff-Com: -0.105D-05 0.441D-05-0.734D-04 0.742D-03-0.117D-01 0.395D-01
 Coeff-Com: -0.141D+00 0.457D+00-0.972D+00 0.173D+01-0.185D+01 0.175D+01
 Coeff:     -0.105D-05 0.441D-05-0.734D-04 0.742D-03-0.117D-01 0.395D-01
 Coeff:     -0.141D+00 0.457D+00-0.972D+00 0.173D+01-0.185D+01 0.175D+01
 Gap=     0.461 Goal=   None    Shift=    0.000
 Gap=     0.485 Goal=   None    Shift=    0.000
 RMSDP=3.23D-09 MaxDP=1.11D-08 DE=-7.11D-15 OVMax= 1.96D-08

 Cycle  13  Pass 2  IDiag  1:
 SCF Done:  E(UPM6) =  0.612016399140E-01 A.U. after   13 cycles
            NFock= 12  Conv=0.32D-08     -V/T= 1.0024
 <Sx>= 0.0000 <Sy>= 0.0000 <Sz>= 0.5000 <S**2>= 0.7500 S= 0.5000
 <L.S>= 0.000000000000E+00
 KE=-2.549589655543D+01 PE=-1.761617793995D+01 EE= 1.776448243480D+01
 Annihilation of the first spin contaminant:
 S**2 before annihilation     0.7500,   after     0.7500
 Leave Link  502 at Wed Oct 21 14:46:11 2020, MaxMem=  2684354560 cpu:               7.2 elap:               1.1
 (Enter /udrive/faculty/rpeverati/g16/g16/l508.exe)
 QCSCF skips out because SCF is already converged.
 Leave Link  508 at Wed Oct 21 14:46:12 2020, MaxMem=  2684354560 cpu:               0.2 elap:               0.4
 (Enter /udrive/faculty/rpeverati/g16/g16/l701.exe)
 ... and contract with generalized density number  0.
 Compute integral first derivatives.
 Leave Link  701 at Wed Oct 21 14:46:13 2020, MaxMem=  2684354560 cpu:               1.7 elap:               0.6
 (Enter /udrive/faculty/rpeverati/g16/g16/l702.exe)
 L702 exits ... SP integral derivatives will be done elsewhere.
 Leave Link  702 at Wed Oct 21 14:46:13 2020, MaxMem=  2684354560 cpu:               1.2 elap:               0.5
 (Enter /udrive/faculty/rpeverati/g16/g16/l703.exe)
 Integral derivatives from FoFJK, PRISM(SPDF).
 Compute integral first derivatives, UseDBF=F ICtDFT=           0.
 Calling FoFJK, ICntrl=      2127 FMM=F ISym2X=1 I1Cent= 0 IOpClX= 1 NMat=1 NMatS=1 NMatT=0.
 FoFJK:  IHMeth=40 ICntrl=    2127 DoSepK=F KAlg= 0 I1Cent=           0 FoldK=F
 IRaf=         0 NMat=       1 IRICut=       1 DoRegI=T DoRafI=F ISym2E= 1 IDoP0=3 IntGTp=3.
 FoFCou: FMM=F IPFlag=           0 FMFlag=      100000 FMFlg1=         800
         NFxFlg=           0 DoJE=F BraDBF=F KetDBF=F FulRan=T
         wScrn=  0.000000 ICntrl=      2127 IOpCl=  1 I1Cent=           0 NGrid=           0
         NMat0=    1 NMatS0=      1 NMatT0=    0 NMatD0=    1 NMtDS0=    0 NMtDT0=    0
 Petite list used in FoFCou.
 Leave Link  703 at Wed Oct 21 14:46:14 2020, MaxMem=  2684354560 cpu:               1.3 elap:               0.6
 (Enter /udrive/faculty/rpeverati/g16/g16/l716.exe)
 Dipole        =-8.36507528D-05 6.80300715D-02 5.05374680D-16
 ***** Axes restored to original set *****
 -------------------------------------------------------------------
 Center     Atomic                   Forces (Hartrees/Bohr)
 Number     Number              X              Y              Z
 -------------------------------------------------------------------
      1        1           0.000050085   -0.000027776   -0.000000000
      2        6          -0.000103852   -0.000068523   -0.000000000
      3        8           0.000053767    0.000096299    0.000000000
 -------------------------------------------------------------------
 Cartesian Forces:  Max     0.000103852 RMS     0.000058619
 Leave Link  716 at Wed Oct 21 14:46:15 2020, MaxMem=  2684354560 cpu:               1.1 elap:               0.5
 (Enter /udrive/faculty/rpeverati/g16/g16/l103.exe)

 GradGradGradGradGradGradGradGradGradGradGradGradGradGradGradGradGradGrad
 Berny optimization.
 Optmz: redundant internal coordinate code flag= 1
 Red2BG:  D1=  3.31D-01 OD1=  9.22D-02 B2RMS=  0.00D+00 IAprox=0
 FormGI is forming the generalized inverse of G from B-inverse, IUseBI=4.
 Internal  Forces:  Max     0.000110264 RMS     0.000071803
 Search for a saddle point.
 Step number  50 out of a maximum of   50
 All quantities printed in internal units (Hartrees-Bohrs-Radians)
 Swapping is turned off.
 Update second derivatives using D2CorX and points   47   48   49   50
 The second derivative matrix:
                          R1        R2        A1
           R1          -0.00012
           R2           0.00012   1.28106
           A1          -0.00001   0.00001  -0.00005
 ITU=  0  0  0  0
 Eigenvectors of the second derivative matrix:
                           1         2         3
     Eigenvalues --    -0.00012  -0.00005   1.28106
   1         R1         0.99493   0.10059   0.00009
   2         R2        -0.00009  -0.00000   1.00000
   3         A1         0.10059  -0.99493   0.00001
 Eigenvalue     2 is  -4.53D-05 should be greater than     0.000000 Eigenvector:
                          A1        R1        R2
   1                   -0.99493   0.10059  -0.00000
 RLam0= 2.34D-05.
 Iter=   1 RLamda=-5.00453218D-02 Sum=-9.13716759D-09.
 Iter=   2 RLamda=-2.50453218D-02 Sum=-9.31445999D-09.
 Iter=   3 RLamda=-1.25453218D-02 Sum=-9.40930930D-09.
 Iter=   4 RLamda=-6.29532178D-03 Sum=-9.46472666D-09.
 Iter=   5 RLamda=-3.17032178D-03 Sum=-9.50727714D-09.
 Iter=   6 RLamda=-1.60782178D-03 Sum=-9.55794483D-09.
 Iter=   7 RLamda=-8.26571779D-04 Sum=-9.64199012D-09.
 Iter=   8 RLamda=-4.35946779D-04 Sum=-9.80141723D-09.
 Iter=   9 RLamda=-2.40634279D-04 Sum=-1.01159351D-08.
 Iter=  10 RLamda=-1.42978029D-04 Sum=-1.07428014D-08.
 Iter=  11 RLamda=-9.41499039D-05 Sum=-1.19954491D-08.
 Iter=  12 RLamda=-6.97358414D-05 Sum=-1.45002020D-08.
 Iter=  13 RLamda=-5.75288101D-05 Sum=-1.95094365D-08.
 Iter=  14 RLamda=-5.14252945D-05 Sum=-2.95277698D-08.
 Iter=  15 RLamda=-4.83735367D-05 Sum=-4.95643686D-08.
 Iter=  16 RLamda=-4.68476578D-05 Sum=-8.96375322D-08.
 Iter=  17 RLamda=-4.60847183D-05 Sum=-1.69783843D-07.
 Iter=  18 RLamda=-4.57032486D-05 Sum=-3.30076455D-07.
 Iter=  19 RLamda=-4.55125137D-05 Sum=-6.50661675D-07.
 Iter=  20 RLamda=-4.54171463D-05 Sum=-1.29183211D-06.
 Iter=  21 RLamda=-4.53694626D-05 Sum=-2.57417299D-06.
 Iter=  22 RLamda=-4.53456207D-05 Sum=-5.13885474D-06.
 Iter=  23 RLamda=-4.53336998D-05 Sum=-1.02682182D-05.
 Iter=  24 RLamda=-4.53277393D-05 Sum=-2.05269452D-05.
 RFO step:  Lambda0=2.341990843D-05 Lambda=-4.53247591D-05.
 Linear search not attempted -- option 19 set.
 Maximum step size (   0.100) exceeded in Quadratic search.
    -- Step size scaled by   0.001
 Iteration  1 RMS(Cart)=  0.09408782 RMS(Int)=  0.00507994
 Iteration  2 RMS(Cart)=  0.00358419 RMS(Int)=  0.00000086
 Iteration  3 RMS(Cart)=  0.00000093 RMS(Int)=  0.00000000
 ITry= 1 IFail=0 DXMaxC= 1.02D-01 DCOld= 1.00D+10 DXMaxT= 1.00D-01 DXLimC= 3.00D+00 Rises=F
 ClnCor:  largest displacement from symmetrization is 7.64D-15 for atom     1.
 Variable       Old X    -DE/DX   Delta X   Delta X   Delta X     New X
                                 (Linear)    (Quad)   (Total)
    R1        6.64710  -0.00006   0.00000  -0.00971  -0.00971   6.63739
    R2        2.15369  -0.00011   0.00000   0.00000   0.00000   2.15369
    A1        1.53075  -0.00001   0.00000   0.09953   0.09953   1.63028
         Item               Value     Threshold  Converged?
 Maximum Force            0.000110     0.000450     YES
 RMS     Force            0.000072     0.000300     YES
 Maximum Displacement     0.101593     0.001800     NO 
 RMS     Displacement     0.093858     0.001200     NO 
 Predicted change in Energy=-2.416330D-07
 Optimization stopped.
    -- Number of steps exceeded,  NStep=  50
    -- Flag reset to prevent archiving.
                           ----------------------------
                           ! Non-Optimized Parameters !
                           ! (Angstroms and Degrees)  !
 --------------------------                            --------------------------
 ! Name  Definition              Value          Derivative Info.                !
 --------------------------------------------------------------------------------
 ! R1    R(1,2)                  3.5124         -DE/DX =   -0.0001              !
 ! R2    R(2,3)                  1.1397         -DE/DX =   -0.0001              !
 ! A1    A(1,2,3)               93.408          -DE/DX =    0.0                 !
 --------------------------------------------------------------------------------
 Largest change from initial coordinates is atom    1       0.141 Angstoms.
 GradGradGradGradGradGradGradGradGradGradGradGradGradGradGradGradGradGrad

 Leave Link  103 at Wed Oct 21 14:46:16 2020, MaxMem=  2684354560 cpu:               3.5 elap:               0.6
 (Enter /udrive/faculty/rpeverati/g16/g16/l202.exe)
                          Input orientation:                          
 ---------------------------------------------------------------------
 Center     Atomic      Atomic             Coordinates (Angstroms)
 Number     Number       Type             X           Y           Z
 ---------------------------------------------------------------------
      1          1           0       -2.308572    1.886112   -0.000000
      2          6           0        0.791599    0.224276    0.000000
      3          8           0        0.213374   -0.757832    0.000000
 ---------------------------------------------------------------------
                    Distance matrix (angstroms):
                    1          2          3
     1  H    0.000000
     2  C    3.517493   0.000000
     3  O    3.653855   1.139685   0.000000
 Stoichiometry    CHO(2)
 Framework group  CS[SG(CHO)]
 Deg. of freedom     3
 Full point group                 CS      NOp   2
 RotChk:  IX=2 Diff= 1.57D-16
 Largest Abelian subgroup         CS      NOp   2
 Largest concise Abelian subgroup C1      NOp   1
                         Standard orientation:                         
 ---------------------------------------------------------------------
 Center     Atomic      Atomic             Coordinates (Angstroms)
 Number     Number       Type             X           Y           Z
 ---------------------------------------------------------------------
      1          1           0       -3.280362    0.476397   -0.000000
      2          6           0        0.234312    0.617220    0.000000
      3          8           0        0.234312   -0.522465   -0.000000
 ---------------------------------------------------------------------
 Rotational constants (GHZ):          60.6519964          39.3496174          23.8659434
 Leave Link  202 at Wed Oct 21 14:46:16 2020, MaxMem=  2684354560 cpu:               1.0 elap:               0.5
 (Enter /udrive/faculty/rpeverati/g16/g16/l601.exe)
 Copying SCF densities to generalized density rwf, IOpCl= 1 IROHF=0.

 **********************************************************************

            Population analysis using the SCF density.

 **********************************************************************

 Orbital symmetries:
 Alpha Orbitals:
       Occupied  (A') (A') (A') (A") (A') (A')
       Virtual   (A") (A') (A')
 Beta  Orbitals:
       Occupied  (A') (A') (A') (A") (A')
       Virtual   (A') (A") (A') (A')
 The electronic state is 2-A'.
 Alpha  occ. eigenvalues --   -1.24678  -0.73788  -0.57825  -0.57821  -0.44176
 Alpha  occ. eigenvalues --   -0.41749
 Alpha virt. eigenvalues --    0.04351   0.04352   0.19055
  Beta  occ. eigenvalues --   -1.24676  -0.73787  -0.57820  -0.57820  -0.44173
  Beta virt. eigenvalues --    0.04346   0.04351   0.11348   0.19055
          Condensed to atoms (all electrons):
               1          2          3
     1  H    0.999990   0.000000   0.000000
     2  C    0.000000   3.674835   0.000000
     3  O    0.000000   0.000000   6.325175
          Atomic-Atomic Spin Densities.
               1          2          3
     1  H    0.999935   0.000000   0.000000
     2  C    0.000000  -0.000092   0.000000
     3  O    0.000000   0.000000   0.000157
 Mulliken charges and spin densities:
               1          2
     1  H    0.000010   0.999935
     2  C    0.325165  -0.000092
     3  O   -0.325175   0.000157
 Sum of Mulliken charges =   0.00000   1.00000
 Mulliken charges and spin densities with hydrogens summed into heavy atoms:
               1          2
     2  C    0.325175   0.999843
     3  O   -0.325175   0.000157
 Charge=              0.0000 electrons
 Dipole moment (field-independent basis, Debye):
    X=             -0.0002    Y=              0.1729    Z=              0.0000  Tot=              0.1729
 N-N= 2.540879370050D+01 E-N=-1.761617793643D+01  KE=-2.549589655543D+01
 Leave Link  601 at Wed Oct 21 14:46:17 2020, MaxMem=  2684354560 cpu:               2.6 elap:               0.5
 (Enter /udrive/faculty/rpeverati/g16/g16/l9999.exe)


 ONE BIG VICE IN A MAN IS APT TO KEEP OUT MANY SMALLER ONES.

                           -- BRET HARTE
 Error termination request processed by link 9999.
 Error termination via Lnk1e in /udrive/faculty/rpeverati/g16/g16/l9999.exe at Wed Oct 21 14:46:18 2020.
 Job cpu time:       0 days  0 hours 41 minutes 15.1 seconds.
 Elapsed time:       0 days  0 hours 12 minutes 40.4 seconds.
 File lengths (MBytes):  RWF=      5 Int=      0 D2E=      0 Chk=      2 Scr=      1
