 Entering Gaussian System, Link 0=g16
 Input=MN_69_NH_BH76_PM6_SE.in
 Output=MN_69_NH_BH76_PM6_SE.log
 Initial command:
 /udrive/faculty/rpeverati/g16/g16/l1.exe "/udrive/scratch-directories/gaussian09/rpeverati/Gau-31065.inp" -scrdir="/udrive/scratch-directories/gaussian09/rpeverati/"
 Entering Link 1 = /udrive/faculty/rpeverati/g16/g16/l1.exe PID=     31080.
  
 Copyright (c) 1988,1990,1992,1993,1995,1998,2003,2009,2016,
            Gaussian, Inc.  All Rights Reserved.
  
 This is part of the Gaussian(R) 16 program.  It is based on
 the Gaussian(R) 09 system (copyright 2009, Gaussian, Inc.),
 the Gaussian(R) 03 system (copyright 2003, Gaussian, Inc.),
 the Gaussian(R) 98 system (copyright 1998, Gaussian, Inc.),
 the Gaussian(R) 94 system (copyright 1995, Gaussian, Inc.),
 the Gaussian 92(TM) system (copyright 1992, Gaussian, Inc.),
 the Gaussian 90(TM) system (copyright 1990, Gaussian, Inc.),
 the Gaussian 88(TM) system (copyright 1988, Gaussian, Inc.),
 the Gaussian 86(TM) system (copyright 1986, Carnegie Mellon
 University), and the Gaussian 82(TM) system (copyright 1983,
 Carnegie Mellon University). Gaussian is a federally registered
 trademark of Gaussian, Inc.
  
 This software contains proprietary and confidential information,
 including trade secrets, belonging to Gaussian, Inc.
  
 This software is provided under written license and may be
 used, copied, transmitted, or stored only in accord with that
 written license.
  
 The following legend is applicable only to US Government
 contracts under FAR:
  
                    RESTRICTED RIGHTS LEGEND
  
 Use, reproduction and disclosure by the US Government is
 subject to restrictions as set forth in subparagraphs (a)
 and (c) of the Commercial Computer Software - Restricted
 Rights clause in FAR 52.227-19.
  
 Gaussian, Inc.
 340 Quinnipiac St., Bldg. 40, Wallingford CT 06492
  
  
 ---------------------------------------------------------------
 Warning -- This program may not be used in any manner that
 competes with the business of Gaussian, Inc. or will provide
 assistance to any competitor of Gaussian, Inc.  The licensee
 of this program is prohibited from giving any competitor of
 Gaussian, Inc. access to this program.  By using this program,
 the user acknowledges that Gaussian, Inc. is engaged in the
 business of creating and licensing software in the field of
 computational chemistry and represents and warrants to the
 licensee that it is not a competitor of Gaussian, Inc. and that
 it will not use this program in any manner prohibited above.
 ---------------------------------------------------------------
  

 Cite this work as:
 Gaussian 16, Revision A.03,
 M. J. Frisch, G. W. Trucks, H. B. Schlegel, G. E. Scuseria, 
 M. A. Robb, J. R. Cheeseman, G. Scalmani, V. Barone, 
 G. A. Petersson, H. Nakatsuji, X. Li, M. Caricato, A. V. Marenich, 
 J. Bloino, B. G. Janesko, R. Gomperts, B. Mennucci, H. P. Hratchian, 
 J. V. Ortiz, A. F. Izmaylov, J. L. Sonnenberg, D. Williams-Young, 
 F. Ding, F. Lipparini, F. Egidi, J. Goings, B. Peng, A. Petrone, 
 T. Henderson, D. Ranasinghe, V. G. Zakrzewski, J. Gao, N. Rega, 
 G. Zheng, W. Liang, M. Hada, M. Ehara, K. Toyota, R. Fukuda, 
 J. Hasegawa, M. Ishida, T. Nakajima, Y. Honda, O. Kitao, H. Nakai, 
 T. Vreven, K. Throssell, J. A. Montgomery, Jr., J. E. Peralta, 
 F. Ogliaro, M. J. Bearpark, J. J. Heyd, E. N. Brothers, K. N. Kudin, 
 V. N. Staroverov, T. A. Keith, R. Kobayashi, J. Normand, 
 K. Raghavachari, A. P. Rendell, J. C. Burant, S. S. Iyengar, 
 J. Tomasi, M. Cossi, J. M. Millam, M. Klene, C. Adamo, R. Cammi, 
 J. W. Ochterski, R. L. Martin, K. Morokuma, O. Farkas, 
 J. B. Foresman, and D. J. Fox, Gaussian, Inc., Wallingford CT, 2016.
 
 ******************************************
 Gaussian 16:  ES64L-G16RevA.03 25-Dec-2016
                21-Oct-2020 
 ******************************************
 %NoSave
 %nproc=12
 Will use up to   12 processors via shared memory.
 %mem=20GB
 %chk=MN_69_NH_BH76_PM6_SE
 ----------------------------------------------------------------------
 #P Opt(MaxCyc=150) PM6 5D 7F Integral=UltraFineGrid SCF=(NoSymm,XQC,Ma
 xCyc=120) IOp(1/33=1)
 ----------------------------------------------------------------------
 1/6=150,18=20,19=15,26=1,33=1,38=1/1,3;
 2/9=110,12=2,17=6,18=5,40=1/2;
 3/5=2,8=11,25=1,41=3900000,71=1,75=-5/1,2,3;
 4/9=2,35=1/1;
 5/5=2,7=120,8=3,13=1,35=1,38=5/2,8;
 6/7=2,8=2,9=2,10=2,28=1/1;
 7//1,2,3,16;
 1/6=150,18=20,19=15,26=1,33=1/3(2);
 2/9=110/2;
 99//99;
 2/9=110/2;
 3/5=2,8=11,25=1,41=3900000,71=1,75=-5,135=20/1,2,3;
 4/5=5,9=2,16=3,35=1/1;
 5/5=2,7=120,8=3,13=1,35=1,38=5/2,8;
 7//1,2,3,16;
 1/6=150,18=20,19=15,26=1,33=1/3(-5);
 2/9=110/2;
 6/7=2,8=2,9=2,10=2,19=2,28=1/1;
 99/9=1/99;
 Leave Link    1 at Wed Oct 21 14:29:32 2020, MaxMem=  2684354560 cpu:               6.7 elap:               0.7
 (Enter /udrive/faculty/rpeverati/g16/g16/l101.exe)
 ONIOM data not found on unit 2.
 ------------------
 TS search on BH76.
 ------------------
 TstMul:  ICh=     0
 TstMul:  Mul=     3
 TstMul:  ICh=     0
 TstMul:  Mul=     3
 Symbolic Z-matrix:
 Charge =  0 Multiplicity = 3
 N                     0.        0.        0.12959 
 H                     0.        0.       -0.90714 
 
 RdStrC is calling ZToCFu for IStruc=1 NZ=     2.
 PrtBox:  NBox=     1 Levels=  1 BoxLen=    8.00 SMaxX=        1.96
          Shift=            0.000000            0.000000            1.714250
 Box      1 Number                   0 centers from      1 to      2:
 After GenITR:
 ITRead=  0  0
 MicOpt= -1 -1
 ITRead=  0  0
 MicOpt= -1 -1
 NAtoms=      2 NQM=        2 NQMF=       0 NMMI=      0 NMMIF=      0
                NMic=       0 NMicF=      0.
                    Isotopes and Nuclear Properties:
 (Nuclear quadrupole moments (NQMom) in fm**2, nuclear magnetic moments (NMagM)
  in nuclear magnetons)

  Atom         1           2
 IAtWgt=          14           1
 AtmWgt=  14.0030740   1.0078250
 NucSpn=           2           1
 AtZEff=   0.0000000   0.0000000
 NQMom=    2.0440000   0.0000000
 NMagM=    0.4037610   2.7928460
 AtZNuc=   7.0000000   1.0000000
 No MM parameters found.
 Leave Link  101 at Wed Oct 21 14:29:34 2020, MaxMem=  2684354560 cpu:               6.8 elap:               0.8
 (Enter /udrive/faculty/rpeverati/g16/g16/l103.exe)

 GradGradGradGradGradGradGradGradGradGradGradGradGradGradGradGradGradGrad
 Berny optimization.
 Optmz: redundant internal coordinate code flag= 1
 Initialization pass.
                           ----------------------------
                           !    Initial Parameters    !
                           ! (Angstroms and Degrees)  !
 --------------------------                            --------------------------
 ! Name  Definition              Value          Derivative Info.                !
 --------------------------------------------------------------------------------
 ! R1    R(1,2)                  1.0367         estimate D2E/DX2                !
 --------------------------------------------------------------------------------
 Maximum allowed force set to 1.00D+20.
 Trust Radius=3.00D-01 FncErr=1.00D-07 GrdErr=1.00D-07 EigMax=2.50D+02 EigMin=1.00D-04
 Number of steps in this run=    100 maximum allowed number of steps=    100.
 GradGradGradGradGradGradGradGradGradGradGradGradGradGradGradGradGradGrad

 Leave Link  103 at Wed Oct 21 14:29:35 2020, MaxMem=  2684354560 cpu:               1.8 elap:               0.8
 (Enter /udrive/faculty/rpeverati/g16/g16/l202.exe)
                          Input orientation:                          
 ---------------------------------------------------------------------
 Center     Atomic      Atomic             Coordinates (Angstroms)
 Number     Number       Type             X           Y           Z
 ---------------------------------------------------------------------
      1          7           0        0.000000    0.000000    0.129591
      2          1           0        0.000000    0.000000   -0.907142
 ---------------------------------------------------------------------
 Stoichiometry    HN(3)
 Framework group  C*V[C*(HN)]
 Deg. of freedom     1
 Full point group                 C*V     NOp   4
 Largest Abelian subgroup         C2V     NOp   4
 Largest concise Abelian subgroup C1      NOp   1
                         Standard orientation:                         
 ---------------------------------------------------------------------
 Center     Atomic      Atomic             Coordinates (Angstroms)
 Number     Number       Type             X           Y           Z
 ---------------------------------------------------------------------
      1          7           0        0.000000    0.000000    0.129592
      2          1           0        0.000000    0.000000   -0.907142
 ---------------------------------------------------------------------
 Rotational constants (GHZ):           0.0000000         500.1281279         500.1281279
 Leave Link  202 at Wed Oct 21 14:29:36 2020, MaxMem=  2684354560 cpu:               2.2 elap:               0.8
 (Enter /udrive/faculty/rpeverati/g16/g16/l301.exe)
 Standard basis: VSTO-6G (5D, 7F)
 Ernie: Thresh=  0.10000D-02 Tol=  0.10000D-05 Strict=F.
  NNHCO=     0 NNPyr=     0 NCTC=     0               EPep=         0.000000000
    EC=         1.766565905  ECS=         0.218748986   EG=         0.000566827
   EHC=         0.000088917  EAt=        -6.842665387  AtH=         0.263106784
 EPDDG=         0.000000000  ECC=         1.985970635 EAtT=         7.105772172
 There are     3 symmetry adapted cartesian basis functions of A1  symmetry.
 There are     0 symmetry adapted cartesian basis functions of A2  symmetry.
 There are     1 symmetry adapted cartesian basis functions of B1  symmetry.
 There are     1 symmetry adapted cartesian basis functions of B2  symmetry.
 There are     3 symmetry adapted basis functions of A1  symmetry.
 There are     0 symmetry adapted basis functions of A2  symmetry.
 There are     1 symmetry adapted basis functions of B1  symmetry.
 There are     1 symmetry adapted basis functions of B2  symmetry.
     5 basis functions,    30 primitive gaussians,     5 cartesian basis functions
     4 alpha electrons        2 beta electrons
       nuclear repulsion energy         9.0917428068 Hartrees.
 IExCor=    0 DFT=F Ex=HF Corr=None ExCW=0 ScaHFX=  1.000000
 ScaDFX=  1.000000  1.000000  1.000000  1.000000 ScalE2=  1.000000  1.000000
 IRadAn=      5 IRanWt=     -1 IRanGd=            0 ICorTp=0 IEmpDi=  4
 Integral buffers will be    131072 words long.
 Regular integral format.
 Two-electron integral symmetry is turned off.
 Leave Link  301 at Wed Oct 21 14:29:37 2020, MaxMem=  2684354560 cpu:               3.1 elap:               0.9
 (Enter /udrive/faculty/rpeverati/g16/g16/l302.exe)
 Do NDO integrals.
 NPDir=0 NMtPBC=     1 NCelOv=     1 NCel=       1 NClECP=     1 NCelD=      1
         NCelK=      1 NCelE2=     1 NClLst=     1 CellRange=     0.0.
 One-electron integrals computed using PRISM.
 NBasis=     5 RedAO= T EigKep=  1.00D+00  NBF=     3     0     1     1
 NBsUse=     5 1.00D-06 EigRej= -1.00D+00 NBFU=     3     0     1     1
 Leave Link  302 at Wed Oct 21 14:29:38 2020, MaxMem=  2684354560 cpu:               3.5 elap:               0.9
 (Enter /udrive/faculty/rpeverati/g16/g16/l303.exe)
 DipDrv:  MaxL=1.
 Leave Link  303 at Wed Oct 21 14:29:39 2020, MaxMem=  2684354560 cpu:               2.9 elap:               0.8
 (Enter /udrive/faculty/rpeverati/g16/g16/l401.exe)
 SCF N**3 symmetry information disabled.
 Simple Huckel Guess.
 JPrj=0 DoOrth=F DoCkMO=F.
 Initial guess orbital symmetries:
 Alpha Orbitals:
       Occupied  (SG) (SG) (PI) (PI)
       Virtual   (SG)
 Beta  Orbitals:
       Occupied  (SG) (SG)
       Virtual   (PI) (PI) (SG)
 The electronic state of the initial guess is 3-SG.
 Initial guess <Sx>= 0.0000 <Sy>= 0.0000 <Sz>= 1.0000 <S**2>= 2.0000 S= 1.0000
 Leave Link  401 at Wed Oct 21 14:29:40 2020, MaxMem=  2684354560 cpu:               2.5 elap:               0.8
 (Enter /udrive/faculty/rpeverati/g16/g16/l502.exe)
 Keep J ints in memory in canonical form, NReq=859092.
 FoFCou: FMM=F IPFlag=           0 FMFlag=           0 FMFlg1=           0
         NFxFlg=           0 DoJE=F BraDBF=F KetDBF=F FulRan=T
         wScrn=  0.000000 ICntrl=       600 IOpCl=  2 I1Cent=           0 NGrid=           0
         NMat0=    1 NMatS0=     11 NMatT0=    0 NMatD0=    1 NMtDS0=    0 NMtDT0=    0
 Symmetry not used in FoFCou.
 Two-electron integral symmetry not used.
 UHF open shell SCF:
 Using DIIS extrapolation, IDIIS=  1040.
 Overlap will be assumed to be unity.
 NGot=  2684354560 LenX=  2684294173 LenY=  2684293291
 Requested convergence on RMS density matrix=1.00D-08 within 120 cycles.
 Requested convergence on MAX density matrix=1.00D-06.
 Requested convergence on             energy=1.00D-06.
 No special actions if energy rises.

 Cycle   1  Pass 1  IDiag  1:
 E= 0.202221999715354    
 DIIS: error= 7.89D-02 at cycle   1 NSaved=   1.
 NSaved= 1 IEnMin= 1 EnMin= 0.202221999715354     IErMin= 1 ErrMin= 7.89D-02
 ErrMax= 7.89D-02  0.00D+00 EMaxC= 1.00D-01 BMatC= 9.52D-02 BMatP= 9.52D-02
 IDIUse=3 WtCom= 2.11D-01 WtEn= 7.89D-01
 Coeff-Com:  0.100D+01
 Coeff-En:   0.100D+01
 Coeff:      0.100D+01
 GapD=    2.000 DampG=2.000 DampE=0.500 DampFc=1.0000 IDamp=-1.
 RMSDP=4.91D-02 MaxDP=1.23D-01              OVMax= 0.00D+00

 Cycle   2  Pass 1  IDiag  1:
 E= 0.135815735556973     Delta-E=       -0.066406264158 Rises=F Damp=F
 DIIS: error= 2.02D-02 at cycle   2 NSaved=   2.
 NSaved= 2 IEnMin= 2 EnMin= 0.135815735556973     IErMin= 2 ErrMin= 2.02D-02
 ErrMax= 2.02D-02  0.00D+00 EMaxC= 1.00D-01 BMatC= 6.93D-03 BMatP= 9.52D-02
 IDIUse=3 WtCom= 7.98D-01 WtEn= 2.02D-01
 Coeff-Com: -0.359D+00 0.136D+01
 Coeff-En:   0.000D+00 0.100D+01
 Coeff:     -0.287D+00 0.129D+01
 RMSDP=1.70D-02 MaxDP=4.35D-02 DE=-6.64D-02 OVMax= 0.00D+00

 Cycle   3  Pass 1  IDiag  1:
 E= 0.130668903037268     Delta-E=       -0.005146832520 Rises=F Damp=F
 DIIS: error= 2.67D-03 at cycle   3 NSaved=   3.
 NSaved= 3 IEnMin= 3 EnMin= 0.130668903037268     IErMin= 3 ErrMin= 2.67D-03
 ErrMax= 2.67D-03  0.00D+00 EMaxC= 1.00D-01 BMatC= 9.51D-05 BMatP= 6.93D-03
 IDIUse=3 WtCom= 9.73D-01 WtEn= 2.67D-02
 Coeff-Com:  0.208D+00-0.855D+00 0.165D+01
 Coeff-En:   0.000D+00 0.000D+00 0.100D+01
 Coeff:      0.202D+00-0.832D+00 0.163D+01
 RMSDP=2.96D-03 MaxDP=1.25D-02 DE=-5.15D-03 OVMax= 0.00D+00

 Cycle   4  Pass 1  IDiag  3:
 E= 0.130532950517807     Delta-E=       -0.000135952519 Rises=F Damp=F
 DIIS: error= 9.01D-04 at cycle   4 NSaved=   4.
 NSaved= 4 IEnMin= 4 EnMin= 0.130532950517807     IErMin= 4 ErrMin= 9.01D-04
 ErrMax= 9.01D-04  0.00D+00 EMaxC= 1.00D-01 BMatC= 1.37D-05 BMatP= 9.51D-05
 IDIUse=3 WtCom= 9.91D-01 WtEn= 9.01D-03
 Coeff-Com: -0.383D-01 0.167D+00-0.905D+00 0.178D+01
 Coeff-En:   0.000D+00 0.000D+00 0.000D+00 0.100D+01
 Coeff:     -0.380D-01 0.166D+00-0.896D+00 0.177D+01
 Gap=     0.657 Goal=   None    Shift=    0.000
 Gap=     0.453 Goal=   None    Shift=    0.000
 RMSDP=1.86D-03 MaxDP=7.17D-03 DE=-1.36D-04 OVMax= 6.98D-03

 Cycle   5  Pass 1  IDiag  3:
 E= 0.130508686046380     Delta-E=       -0.000024264471 Rises=F Damp=F
 DIIS: error= 1.20D-04 at cycle   5 NSaved=   5.
 NSaved= 5 IEnMin= 5 EnMin= 0.130508686046380     IErMin= 5 ErrMin= 1.20D-04
 ErrMax= 1.20D-04  0.00D+00 EMaxC= 1.00D-01 BMatC= 1.61D-07 BMatP= 1.37D-05
 IDIUse=3 WtCom= 9.99D-01 WtEn= 1.20D-03
 Coeff-Com:  0.975D-03-0.995D-02 0.365D+00-0.914D+00 0.156D+01
 Coeff-En:   0.000D+00 0.000D+00 0.000D+00 0.000D+00 0.100D+01
 Coeff:      0.974D-03-0.994D-02 0.365D+00-0.913D+00 0.156D+01
 Gap=     0.656 Goal=   None    Shift=    0.000
 Gap=     0.453 Goal=   None    Shift=    0.000
 RMSDP=1.32D-04 MaxDP=5.85D-04 DE=-2.43D-05 OVMax= 6.21D-04

 Cycle   6  Pass 1  IDiag  3:
 E= 0.130508503186970     Delta-E=       -0.000000182859 Rises=F Damp=F
 DIIS: error= 1.02D-06 at cycle   6 NSaved=   6.
 NSaved= 6 IEnMin= 6 EnMin= 0.130508503186970     IErMin= 6 ErrMin= 1.02D-06
 ErrMax= 1.02D-06  0.00D+00 EMaxC= 1.00D-01 BMatC= 2.37D-11 BMatP= 1.61D-07
 IDIUse=1 WtCom= 1.00D+00 WtEn= 0.00D+00
 Coeff-Com: -0.225D-03 0.250D-02-0.982D-01 0.246D+00-0.412D+00 0.126D+01
 Coeff:     -0.225D-03 0.250D-02-0.982D-01 0.246D+00-0.412D+00 0.126D+01
 Gap=     0.656 Goal=   None    Shift=    0.000
 Gap=     0.453 Goal=   None    Shift=    0.000
 RMSDP=1.65D-06 MaxDP=6.21D-06 DE=-1.83D-07 OVMax= 7.32D-06

 Cycle   7  Pass 1  IDiag  3:
 E= 0.130508503161579     Delta-E=       -0.000000000025 Rises=F Damp=F
 DIIS: error= 2.39D-07 at cycle   7 NSaved=   7.
 NSaved= 7 IEnMin= 7 EnMin= 0.130508503161579     IErMin= 7 ErrMin= 2.39D-07
 ErrMax= 2.39D-07  0.00D+00 EMaxC= 1.00D-01 BMatC= 1.31D-12 BMatP= 2.37D-11
 IDIUse=1 WtCom= 1.00D+00 WtEn= 0.00D+00
 Coeff-Com:  0.266D-05-0.199D-04 0.140D-02-0.351D-02 0.206D-02-0.284D+00
 Coeff-Com:  0.128D+01
 Coeff:      0.266D-05-0.199D-04 0.140D-02-0.351D-02 0.206D-02-0.284D+00
 Coeff:      0.128D+01
 Gap=     0.656 Goal=   None    Shift=    0.000
 Gap=     0.453 Goal=   None    Shift=    0.000
 RMSDP=3.41D-07 MaxDP=1.27D-06 DE=-2.54D-11 OVMax= 1.56D-06

 Cycle   8  Pass 1  IDiag  3:
 E= 0.130508503160321     Delta-E=       -0.000000000001 Rises=F Damp=F
 DIIS: error= 4.55D-09 at cycle   8 NSaved=   8.
 NSaved= 8 IEnMin= 8 EnMin= 0.130508503160321     IErMin= 8 ErrMin= 4.55D-09
 ErrMax= 4.55D-09  0.00D+00 EMaxC= 1.00D-01 BMatC= 5.09D-16 BMatP= 1.31D-12
 IDIUse=1 WtCom= 1.00D+00 WtEn= 0.00D+00
 Large coefficients: NSaved=  8 BigCof=    0.00 CofMax=   10.00 Det= 4.92D-26
 Inversion failed.  Reducing to  7 matrices.
 Coeff-Com:  0.524D-09-0.122D-06 0.952D-06-0.238D-05-0.112D-02 0.184D-01
 Coeff-Com:  0.983D+00
 Coeff:      0.524D-09-0.122D-06 0.952D-06-0.238D-05-0.112D-02 0.184D-01
 Coeff:      0.983D+00
 Gap=     0.656 Goal=   None    Shift=    0.000
 Gap=     0.453 Goal=   None    Shift=    0.000
 RMSDP=6.97D-09 MaxDP=2.84D-08 DE=-1.26D-12 OVMax= 3.38D-08

 Cycle   9  Pass 2  IDiag  1:
 SCF Done:  E(UPM6) =  0.130508503160     A.U. after    9 cycles
            NFock=  8  Conv=0.70D-08     -V/T= 1.0120
 <Sx>= 0.0000 <Sy>= 0.0000 <Sz>= 1.0000 <S**2>= 2.0108 S= 1.0036
 <L.S>= 0.000000000000E+00
 KE=-1.085580996734D+01 PE=-3.212351045653D+00 EE= 5.106926709341D+00
 Annihilation of the first spin contaminant:
 S**2 before annihilation     2.0108,   after     2.0000
 Leave Link  502 at Wed Oct 21 14:29:42 2020, MaxMem=  2684354560 cpu:               8.0 elap:               1.3
 (Enter /udrive/faculty/rpeverati/g16/g16/l508.exe)
 QCSCF skips out because SCF is already converged.
 Leave Link  508 at Wed Oct 21 14:29:43 2020, MaxMem=  2684354560 cpu:               0.5 elap:               0.6
 (Enter /udrive/faculty/rpeverati/g16/g16/l601.exe)
 Copying SCF densities to generalized density rwf, IOpCl= 1 IROHF=0.

 **********************************************************************

            Population analysis using the SCF density.

 **********************************************************************

 Orbital symmetries:
 Alpha Orbitals:
       Occupied  (SG) (SG) (PI) (PI)
       Virtual   (SG)
 Beta  Orbitals:
       Occupied  (SG) (SG)
       Virtual   (PI) (PI) (SG)
 The electronic state is 3-SG.
 Alpha  occ. eigenvalues --   -1.01688  -0.54043  -0.49650  -0.49650
 Alpha virt. eigenvalues --    0.15971
  Beta  occ. eigenvalues --   -0.85839  -0.44559
  Beta virt. eigenvalues --    0.00730   0.00730   0.19421
          Condensed to atoms (all electrons):
               1          2
     1  N    5.182419   0.000000
     2  H    0.000000   0.817581
          Atomic-Atomic Spin Densities.
               1          2
     1  N    2.100454   0.000000
     2  H    0.000000  -0.100454
 Mulliken charges and spin densities:
               1          2
     1  N   -0.182419   2.100454
     2  H    0.182419  -0.100454
 Sum of Mulliken charges =  -0.00000   2.00000
 Mulliken charges and spin densities with hydrogens summed into heavy atoms:
               1          2
     1  N   -0.000000   2.000000
 Charge=             -0.0000 electrons
 Dipole moment (field-independent basis, Debye):
    X=             -0.0000    Y=              0.0000    Z=             -1.8274  Tot=              1.8274
 N-N= 9.091742806809D+00 E-N=-3.212351045521D+00  KE=-1.085580996734D+01
 Leave Link  601 at Wed Oct 21 14:29:44 2020, MaxMem=  2684354560 cpu:               2.8 elap:               0.8
 (Enter /udrive/faculty/rpeverati/g16/g16/l701.exe)
 ... and contract with generalized density number  0.
 Compute integral first derivatives.
 Leave Link  701 at Wed Oct 21 14:29:46 2020, MaxMem=  2684354560 cpu:               4.1 elap:               1.0
 (Enter /udrive/faculty/rpeverati/g16/g16/l702.exe)
 L702 exits ... SP integral derivatives will be done elsewhere.
 Leave Link  702 at Wed Oct 21 14:29:47 2020, MaxMem=  2684354560 cpu:               1.9 elap:               0.8
 (Enter /udrive/faculty/rpeverati/g16/g16/l703.exe)
 Integral derivatives from FoFJK, PRISM(SPDF).
 Compute integral first derivatives, UseDBF=F ICtDFT=           0.
 Calling FoFJK, ICntrl=      2127 FMM=F ISym2X=1 I1Cent= 0 IOpClX= 1 NMat=1 NMatS=1 NMatT=0.
 FoFJK:  IHMeth=40 ICntrl=    2127 DoSepK=F KAlg= 0 I1Cent=           0 FoldK=F
 IRaf=         0 NMat=       1 IRICut=       1 DoRegI=T DoRafI=F ISym2E= 1 IDoP0=3 IntGTp=3.
 FoFCou: FMM=F IPFlag=           0 FMFlag=      100000 FMFlg1=         800
         NFxFlg=           0 DoJE=F BraDBF=F KetDBF=F FulRan=T
         wScrn=  0.000000 ICntrl=      2127 IOpCl=  1 I1Cent=           0 NGrid=           0
         NMat0=    1 NMatS0=      1 NMatT0=    0 NMatD0=    1 NMtDS0=    0 NMtDT0=    0
 Petite list used in FoFCou.
 Leave Link  703 at Wed Oct 21 14:29:48 2020, MaxMem=  2684354560 cpu:               3.2 elap:               0.9
 (Enter /udrive/faculty/rpeverati/g16/g16/l716.exe)
 Dipole        =-3.02458193D-17 2.13996676D-16-7.18957685D-01
 ***** Axes restored to original set *****
 -------------------------------------------------------------------
 Center     Atomic                   Forces (Hartrees/Bohr)
 Number     Number              X              Y              Z
 -------------------------------------------------------------------
      1        7          -0.000000000    0.000000000   -0.019242096
      2        1           0.000000000   -0.000000000    0.019242096
 -------------------------------------------------------------------
 Cartesian Forces:  Max     0.019242096 RMS     0.011109429
 Leave Link  716 at Wed Oct 21 14:29:49 2020, MaxMem=  2684354560 cpu:               2.3 elap:               0.8
 (Enter /udrive/faculty/rpeverati/g16/g16/l103.exe)

 GradGradGradGradGradGradGradGradGradGradGradGradGradGradGradGradGradGrad
 Berny optimization.
 Optmz: redundant internal coordinate code flag= 1
 FormGI is forming the generalized inverse of G from B-inverse, IUseBI=4.
 Internal  Forces:  Max     0.019242096 RMS     0.019242096
 Search for a local minimum.
 Step number   1 out of a maximum of  100
 All quantities printed in internal units (Hartrees-Bohrs-Radians)
 RMS Force = .19242D-01 SwitMx=.10000D-02 MixMth= 1
 Mixed Optimization -- RFO/linear search
 Second derivative matrix not updated -- first step.
 The second derivative matrix:
                          R1
           R1           0.41772
 ITU=  0
 Eigenvectors of the second derivative matrix:
                           1
     Eigenvalues --     0.41772
   1         R1         1.00000
 RFO step:  Lambda=-8.84503996D-04 EMin= 4.17721031D-01
 Linear search not attempted -- first point.
 Iteration  1 RMS(Cart)=  0.03250367 RMS(Int)=  0.00000000
 Iteration  2 RMS(Cart)=  0.00000000 RMS(Int)=  0.00000000
 ITry= 1 IFail=0 DXMaxC= 2.30D-02 DCOld= 1.00D+10 DXMaxT= 3.00D-01 DXLimC= 3.00D+00 Rises=F
 ClnCor:  largest displacement from symmetrization is 0.00D+00 for atom     0.
 Variable       Old X    -DE/DX   Delta X   Delta X   Delta X     New X
                                 (Linear)    (Quad)   (Total)
    R1        1.95914  -0.01924   0.00000  -0.04597  -0.04597   1.91317
         Item               Value     Threshold  Converged?
 Maximum Force            0.019242     0.000450     NO 
 RMS     Force            0.019242     0.000300     NO 
 Maximum Displacement     0.022984     0.001800     NO 
 RMS     Displacement     0.032504     0.001200     NO 
 Predicted change in Energy=-4.431865D-04
 Lowest energy point so far.  Saving SCF results.
 Largest change from initial coordinates is atom    2       0.012 Angstoms.
 GradGradGradGradGradGradGradGradGradGradGradGradGradGradGradGradGradGrad

 Leave Link  103 at Wed Oct 21 14:29:50 2020, MaxMem=  2684354560 cpu:               3.6 elap:               0.9
 (Enter /udrive/faculty/rpeverati/g16/g16/l202.exe)
                          Input orientation:                          
 ---------------------------------------------------------------------
 Center     Atomic      Atomic             Coordinates (Angstroms)
 Number     Number       Type             X           Y           Z
 ---------------------------------------------------------------------
      1          7           0        0.000000    0.000000    0.117429
      2          1           0        0.000000    0.000000   -0.894980
 ---------------------------------------------------------------------
 Stoichiometry    HN(3)
 Framework group  C*V[C*(HN)]
 Deg. of freedom     1
 Full point group                 C*V     NOp   4
 RotChk:  IX=0 Diff= 0.00D+00
 Largest Abelian subgroup         C2V     NOp   4
 Largest concise Abelian subgroup C1      NOp   1
                         Standard orientation:                         
 ---------------------------------------------------------------------
 Center     Atomic      Atomic             Coordinates (Angstroms)
 Number     Number       Type             X           Y           Z
 ---------------------------------------------------------------------
      1          7           0        0.000000    0.000000    0.126551
      2          1           0        0.000000    0.000000   -0.885857
 ---------------------------------------------------------------------
 Rotational constants (GHZ):           0.0000000         524.4496220         524.4496220
 Leave Link  202 at Wed Oct 21 14:29:51 2020, MaxMem=  2684354560 cpu:               2.2 elap:               0.7
 (Enter /udrive/faculty/rpeverati/g16/g16/l301.exe)
 Standard basis: VSTO-6G (5D, 7F)
 Ernie: Thresh=  0.10000D-02 Tol=  0.10000D-05 Strict=F.
  NNHCO=     0 NNPyr=     0 NCTC=     0               EPep=         0.000000000
    EC=         1.786525421  ECS=         0.232172342   EG=         0.000499353
   EHC=         0.000118228  EAt=        -6.842665387  AtH=         0.263106784
 EPDDG=         0.000000000  ECC=         2.019315345 EAtT=         7.105772172
 There are     3 symmetry adapted cartesian basis functions of A1  symmetry.
 There are     0 symmetry adapted cartesian basis functions of A2  symmetry.
 There are     1 symmetry adapted cartesian basis functions of B1  symmetry.
 There are     1 symmetry adapted cartesian basis functions of B2  symmetry.
 There are     3 symmetry adapted basis functions of A1  symmetry.
 There are     0 symmetry adapted basis functions of A2  symmetry.
 There are     1 symmetry adapted basis functions of B1  symmetry.
 There are     1 symmetry adapted basis functions of B2  symmetry.
     5 basis functions,    30 primitive gaussians,     5 cartesian basis functions
     4 alpha electrons        2 beta electrons
       nuclear repulsion energy         9.1250875167 Hartrees.
 IExCor=    0 DFT=F Ex=HF Corr=None ExCW=0 ScaHFX=  1.000000
 ScaDFX=  1.000000  1.000000  1.000000  1.000000 ScalE2=  1.000000  1.000000
 IRadAn=      5 IRanWt=     -1 IRanGd=            0 ICorTp=0 IEmpDi=  4
 Integral buffers will be    131072 words long.
 Regular integral format.
 Two-electron integral symmetry is turned off.
 Leave Link  301 at Wed Oct 21 14:29:53 2020, MaxMem=  2684354560 cpu:               5.1 elap:               1.1
 (Enter /udrive/faculty/rpeverati/g16/g16/l302.exe)
 Do NDO integrals.
 NPDir=0 NMtPBC=     1 NCelOv=     1 NCel=       1 NClECP=     1 NCelD=      1
         NCelK=      1 NCelE2=     1 NClLst=     1 CellRange=     0.0.
 One-electron integrals computed using PRISM.
 NBasis=     5 RedAO= T EigKep=  1.00D+00  NBF=     3     0     1     1
 NBsUse=     5 1.00D-06 EigRej= -1.00D+00 NBFU=     3     0     1     1
 Leave Link  302 at Wed Oct 21 14:29:54 2020, MaxMem=  2684354560 cpu:               3.5 elap:               0.9
 (Enter /udrive/faculty/rpeverati/g16/g16/l303.exe)
 DipDrv:  MaxL=1.
 Leave Link  303 at Wed Oct 21 14:29:55 2020, MaxMem=  2684354560 cpu:               3.2 elap:               0.9
 (Enter /udrive/faculty/rpeverati/g16/g16/l401.exe)
 Initial guess from the checkpoint file:  "MN_69_NH_BH76_PM6_SE.chk"
 SCF N**3 symmetry information disabled.
 B after Tr=     0.000000    0.000000    0.000000
         Rot=    1.000000    0.000000    0.000000    0.000000 Ang=   0.00 deg.
 Guess basis will be translated and rotated to current coordinates.
 JPrj=0 DoOrth=T DoCkMO=T.
 Initial guess orbital symmetries:
 Alpha Orbitals:
       Occupied  (SG) (SG) (PI) (PI)
       Virtual   (SG)
 Beta  Orbitals:
       Occupied  (SG) (SG)
       Virtual   (PI) (PI) (SG)
 The electronic state of the initial guess is 3-SG.
 Initial guess <Sx>= 0.0000 <Sy>= 0.0000 <Sz>= 1.0000 <S**2>= 2.0108 S= 1.0036
 Leave Link  401 at Wed Oct 21 14:29:57 2020, MaxMem=  2684354560 cpu:               2.9 elap:               0.9
 (Enter /udrive/faculty/rpeverati/g16/g16/l502.exe)
 Keep J ints in memory in canonical form, NReq=859092.
 FoFCou: FMM=F IPFlag=           0 FMFlag=           0 FMFlg1=           0
         NFxFlg=           0 DoJE=F BraDBF=F KetDBF=F FulRan=T
         wScrn=  0.000000 ICntrl=       600 IOpCl=  2 I1Cent=           0 NGrid=           0
         NMat0=    1 NMatS0=     11 NMatT0=    0 NMatD0=    1 NMtDS0=    0 NMtDT0=    0
 Symmetry not used in FoFCou.
 Two-electron integral symmetry not used.
 UHF open shell SCF:
 Using DIIS extrapolation, IDIIS=  1040.
 Overlap will be assumed to be unity.
 NGot=  2684354560 LenX=  2684294173 LenY=  2684293291
 Requested convergence on RMS density matrix=1.00D-08 within 120 cycles.
 Requested convergence on MAX density matrix=1.00D-06.
 Requested convergence on             energy=1.00D-06.
 No special actions if energy rises.

 Cycle   1  Pass 1  IDiag  1:
 E= 0.129957793829437    
 DIIS: error= 2.29D-03 at cycle   1 NSaved=   1.
 NSaved= 1 IEnMin= 1 EnMin= 0.129957793829437     IErMin= 1 ErrMin= 2.29D-03
 ErrMax= 2.29D-03  0.00D+00 EMaxC= 1.00D-01 BMatC= 1.00D-04 BMatP= 1.00D-04
 IDIUse=3 WtCom= 9.77D-01 WtEn= 2.29D-02
 Coeff-Com:  0.100D+01
 Coeff-En:   0.100D+01
 Coeff:      0.100D+01
 GapD=    2.000 DampG=2.000 DampE=1.000 DampFc=2.0000 IDamp=-1.
 RMSDP=1.41D-03 MaxDP=3.49D-03              OVMax= 0.00D+00

 Cycle   2  Pass 1  IDiag  3:
 E= 0.129896369237825     Delta-E=       -0.000061424592 Rises=F Damp=F
 DIIS: error= 5.77D-04 at cycle   2 NSaved=   2.
 NSaved= 2 IEnMin= 2 EnMin= 0.129896369237825     IErMin= 2 ErrMin= 5.77D-04
 ErrMax= 5.77D-04  0.00D+00 EMaxC= 1.00D-01 BMatC= 7.65D-06 BMatP= 1.00D-04
 IDIUse=3 WtCom= 9.94D-01 WtEn= 5.77D-03
 Coeff-Com: -0.356D+00 0.136D+01
 Coeff-En:   0.000D+00 0.100D+01
 Coeff:     -0.354D+00 0.135D+01
 Gap=     0.662 Goal=   None    Shift=    0.000
 Gap=     0.452 Goal=   None    Shift=    0.000
 RMSDP=5.44D-04 MaxDP=1.41D-03 DE=-6.14D-05 OVMax= 1.74D-03

 Cycle   3  Pass 1  IDiag  3:
 E= 0.129890744056645     Delta-E=       -0.000005625181 Rises=F Damp=F
 DIIS: error= 1.48D-04 at cycle   3 NSaved=   3.
 NSaved= 3 IEnMin= 3 EnMin= 0.129890744056645     IErMin= 3 ErrMin= 1.48D-04
 ErrMax= 1.48D-04  0.00D+00 EMaxC= 1.00D-01 BMatC= 2.55D-07 BMatP= 7.65D-06
 IDIUse=3 WtCom= 9.99D-01 WtEn= 1.48D-03
 Coeff-Com:  0.391D+00-0.153D+01 0.214D+01
 Coeff-En:   0.000D+00 0.000D+00 0.100D+01
 Coeff:      0.390D+00-0.153D+01 0.214D+01
 Gap=     0.662 Goal=   None    Shift=    0.000
 Gap=     0.452 Goal=   None    Shift=    0.000
 RMSDP=2.17D-04 MaxDP=8.38D-04 DE=-5.63D-06 OVMax= 8.87D-04

 Cycle   4  Pass 1  IDiag  3:
 E= 0.129890310691543     Delta-E=       -0.000000433365 Rises=F Damp=F
 DIIS: error= 3.39D-05 at cycle   4 NSaved=   4.
 NSaved= 4 IEnMin= 4 EnMin= 0.129890310691543     IErMin= 4 ErrMin= 3.39D-05
 ErrMax= 3.39D-05  0.00D+00 EMaxC= 1.00D-01 BMatC= 1.10D-08 BMatP= 2.55D-07
 IDIUse=1 WtCom= 1.00D+00 WtEn= 0.00D+00
 Coeff-Com: -0.311D+00 0.122D+01-0.182D+01 0.191D+01
 Coeff:     -0.311D+00 0.122D+01-0.182D+01 0.191D+01
 Gap=     0.662 Goal=   None    Shift=    0.000
 Gap=     0.452 Goal=   None    Shift=    0.000
 RMSDP=4.41D-05 MaxDP=1.95D-04 DE=-4.33D-07 OVMax= 1.74D-04

 Cycle   5  Pass 1  IDiag  3:
 E= 0.129890295425604     Delta-E=       -0.000000015266 Rises=F Damp=F
 DIIS: error= 2.58D-07 at cycle   5 NSaved=   5.
 NSaved= 5 IEnMin= 5 EnMin= 0.129890295425604     IErMin= 5 ErrMin= 2.58D-07
 ErrMax= 2.58D-07  0.00D+00 EMaxC= 1.00D-01 BMatC= 7.97D-13 BMatP= 1.10D-08
 IDIUse=1 WtCom= 1.00D+00 WtEn= 0.00D+00
 Coeff-Com: -0.291D-03 0.103D-02 0.545D-03-0.647D-02 0.101D+01
 Coeff:     -0.291D-03 0.103D-02 0.545D-03-0.647D-02 0.101D+01
 Gap=     0.662 Goal=   None    Shift=    0.000
 Gap=     0.452 Goal=   None    Shift=    0.000
 RMSDP=2.84D-07 MaxDP=1.26D-06 DE=-1.53D-08 OVMax= 1.38D-06

 Cycle   6  Pass 1  IDiag  3:
 E= 0.129890295424715     Delta-E=       -0.000000000001 Rises=F Damp=F
 DIIS: error= 2.47D-08 at cycle   6 NSaved=   6.
 NSaved= 6 IEnMin= 6 EnMin= 0.129890295424715     IErMin= 6 ErrMin= 2.47D-08
 ErrMax= 2.47D-08  0.00D+00 EMaxC= 1.00D-01 BMatC= 1.77D-14 BMatP= 7.97D-13
 IDIUse=1 WtCom= 1.00D+00 WtEn= 0.00D+00
 Coeff-Com: -0.159D-04 0.139D-03-0.149D-02 0.501D-02-0.606D+00 0.160D+01
 Coeff:     -0.159D-04 0.139D-03-0.149D-02 0.501D-02-0.606D+00 0.160D+01
 Gap=     0.662 Goal=   None    Shift=    0.000
 Gap=     0.452 Goal=   None    Shift=    0.000
 RMSDP=4.12D-08 MaxDP=1.52D-07 DE=-8.88D-13 OVMax= 1.88D-07

 Cycle   7  Pass 1  IDiag  3:
 E= 0.129890295424699     Delta-E=       -0.000000000000 Rises=F Damp=F
 DIIS: error= 2.32D-11 at cycle   7 NSaved=   7.
 NSaved= 7 IEnMin= 7 EnMin= 0.129890295424699     IErMin= 7 ErrMin= 2.32D-11
 ErrMax= 2.32D-11  0.00D+00 EMaxC= 1.00D-01 BMatC= 1.11D-20 BMatP= 1.77D-14
 IDIUse=1 WtCom= 1.00D+00 WtEn= 0.00D+00
 Coeff-Com: -0.142D-08 0.130D-07-0.497D-06 0.141D-05-0.180D-03-0.918D-04
 Coeff-Com:  0.100D+01
 Coeff:     -0.142D-08 0.130D-07-0.497D-06 0.141D-05-0.180D-03-0.918D-04
 Coeff:      0.100D+01
 Gap=     0.662 Goal=   None    Shift=    0.000
 Gap=     0.452 Goal=   None    Shift=    0.000
 RMSDP=4.74D-11 MaxDP=1.82D-10 DE=-1.60D-14 OVMax= 2.12D-10

 Cycle   8  Pass 2  IDiag  1:
 SCF Done:  E(UPM6) =  0.129890295425     A.U. after    8 cycles
            NFock=  7  Conv=0.47D-10     -V/T= 1.0120
 <Sx>= 0.0000 <Sy>= 0.0000 <Sz>= 1.0000 <S**2>= 2.0100 S= 1.0033
 <L.S>= 0.000000000000E+00
 KE=-1.086347153925D+01 PE=-3.250937356650D+00 EE= 5.119211674607D+00
 Annihilation of the first spin contaminant:
 S**2 before annihilation     2.0100,   after     2.0000
 Leave Link  502 at Wed Oct 21 14:29:58 2020, MaxMem=  2684354560 cpu:               7.8 elap:               1.3
 (Enter /udrive/faculty/rpeverati/g16/g16/l508.exe)
 QCSCF skips out because SCF is already converged.
 Leave Link  508 at Wed Oct 21 14:29:59 2020, MaxMem=  2684354560 cpu:               0.6 elap:               0.7
 (Enter /udrive/faculty/rpeverati/g16/g16/l701.exe)
 ... and contract with generalized density number  0.
 Compute integral first derivatives.
 Leave Link  701 at Wed Oct 21 14:30:00 2020, MaxMem=  2684354560 cpu:               4.2 elap:               1.0
 (Enter /udrive/faculty/rpeverati/g16/g16/l702.exe)
 L702 exits ... SP integral derivatives will be done elsewhere.
 Leave Link  702 at Wed Oct 21 14:30:02 2020, MaxMem=  2684354560 cpu:               2.3 elap:               0.9
 (Enter /udrive/faculty/rpeverati/g16/g16/l703.exe)
 Integral derivatives from FoFJK, PRISM(SPDF).
 Compute integral first derivatives, UseDBF=F ICtDFT=           0.
 Calling FoFJK, ICntrl=      2127 FMM=F ISym2X=1 I1Cent= 0 IOpClX= 1 NMat=1 NMatS=1 NMatT=0.
 FoFJK:  IHMeth=40 ICntrl=    2127 DoSepK=F KAlg= 0 I1Cent=           0 FoldK=F
 IRaf=         0 NMat=       1 IRICut=       1 DoRegI=T DoRafI=F ISym2E= 1 IDoP0=3 IntGTp=3.
 FoFCou: FMM=F IPFlag=           0 FMFlag=      100000 FMFlg1=         800
         NFxFlg=           0 DoJE=F BraDBF=F KetDBF=F FulRan=T
         wScrn=  0.000000 ICntrl=      2127 IOpCl=  1 I1Cent=           0 NGrid=           0
         NMat0=    1 NMatS0=      1 NMatT0=    0 NMatD0=    1 NMtDS0=    0 NMtDT0=    0
 Petite list used in FoFCou.
 Leave Link  703 at Wed Oct 21 14:30:03 2020, MaxMem=  2684354560 cpu:               3.2 elap:               1.0
 (Enter /udrive/faculty/rpeverati/g16/g16/l716.exe)
 Dipole        = 5.50538614D-18-1.97759560D-17-7.12324119D-01
 ***** Axes restored to original set *****
 -------------------------------------------------------------------
 Center     Atomic                   Forces (Hartrees/Bohr)
 Number     Number              X              Y              Z
 -------------------------------------------------------------------
      1        7           0.000000000   -0.000000000   -0.007524543
      2        1          -0.000000000    0.000000000    0.007524543
 -------------------------------------------------------------------
 Cartesian Forces:  Max     0.007524543 RMS     0.004344297
 Leave Link  716 at Wed Oct 21 14:30:04 2020, MaxMem=  2684354560 cpu:               2.2 elap:               0.8
 (Enter /udrive/faculty/rpeverati/g16/g16/l103.exe)

 GradGradGradGradGradGradGradGradGradGradGradGradGradGradGradGradGradGrad
 Berny optimization.
 Optmz: redundant internal coordinate code flag= 1
 Using GEDIIS/GDIIS optimizer.
 Red2BG:  D1=  2.00D+00 OD1=  0.00D+00 B2RMS=  0.00D+00 IAprox=1
 Red2BG is reusing G-inverse.
 Internal  Forces:  Max     0.007524543 RMS     0.007524543
 Search for a local minimum.
 Step number   2 out of a maximum of  100
 All quantities printed in internal units (Hartrees-Bohrs-Radians)
 RMS Force = .75245D-02 SwitMx=.10000D-02 MixMth= 1
 Mixed Optimization -- RFO/linear search
 Update second derivatives using D2CorX and points    1    2
 DE= -6.18D-04 DEPred=-4.43D-04 R= 1.39D+00
 TightC=F SS=  1.41D+00  RLast= 4.60D-02 DXNew= 5.0454D-01 1.3790D-01
 Trust test= 1.39D+00 RLast= 4.60D-02 DXMaxT set to 3.00D-01
 The second derivative matrix:
                          R1
           R1           0.25491
 ITU=  1  0
 Use linear search instead of GDIIS.
 Eigenvectors of the second derivative matrix:
                           1
     Eigenvalues --     0.25491
   1         R1         1.00000
 RFO step:  Lambda= 0.00000000D+00 EMin= 2.54911563D-01
 Quartic linear search produced a step of  0.60885.
 Iteration  1 RMS(Cart)=  0.01978997 RMS(Int)=  0.00000000
 Iteration  2 RMS(Cart)=  0.00000000 RMS(Int)=  0.00000000
 ITry= 1 IFail=0 DXMaxC= 1.40D-02 DCOld= 1.00D+10 DXMaxT= 3.00D-01 DXLimC= 3.00D+00 Rises=F
 ClnCor:  largest displacement from symmetrization is 0.00D+00 for atom     0.
 Variable       Old X    -DE/DX   Delta X   Delta X   Delta X     New X
                                 (Linear)    (Quad)   (Total)
    R1        1.91317  -0.00752  -0.02799  -0.00000  -0.02799   1.88519
         Item               Value     Threshold  Converged?
 Maximum Force            0.007525     0.000450     NO 
 RMS     Force            0.007525     0.000300     NO 
 Maximum Displacement     0.013994     0.001800     NO 
 RMS     Displacement     0.019790     0.001200     NO 
 Predicted change in Energy=-1.107569D-04
 Lowest energy point so far.  Saving SCF results.
 Largest change from initial coordinates is atom    2       0.029 Angstoms.
 GradGradGradGradGradGradGradGradGradGradGradGradGradGradGradGradGradGrad

 Leave Link  103 at Wed Oct 21 14:30:05 2020, MaxMem=  2684354560 cpu:               4.5 elap:               1.0
 (Enter /udrive/faculty/rpeverati/g16/g16/l202.exe)
                          Input orientation:                          
 ---------------------------------------------------------------------
 Center     Atomic      Atomic             Coordinates (Angstroms)
 Number     Number       Type             X           Y           Z
 ---------------------------------------------------------------------
      1          7           0        0.000000    0.000000    0.110024
      2          1           0        0.000000    0.000000   -0.887575
 ---------------------------------------------------------------------
 Stoichiometry    HN(3)
 Framework group  C*V[C*(HN)]
 Deg. of freedom     1
 Full point group                 C*V     NOp   4
 RotChk:  IX=0 Diff= 0.00D+00
 Largest Abelian subgroup         C2V     NOp   4
 Largest concise Abelian subgroup C1      NOp   1
                         Standard orientation:                         
 ---------------------------------------------------------------------
 Center     Atomic      Atomic             Coordinates (Angstroms)
 Number     Number       Type             X           Y           Z
 ---------------------------------------------------------------------
      1          7           0        0.000000    0.000000    0.124700
      2          1           0        0.000000    0.000000   -0.872899
 ---------------------------------------------------------------------
 Rotational constants (GHZ):           0.0000000         540.1370275         540.1370275
 Leave Link  202 at Wed Oct 21 14:30:06 2020, MaxMem=  2684354560 cpu:               2.2 elap:               0.8
 (Enter /udrive/faculty/rpeverati/g16/g16/l301.exe)
 Standard basis: VSTO-6G (5D, 7F)
 Ernie: Thresh=  0.10000D-02 Tol=  0.10000D-05 Strict=F.
  NNHCO=     0 NNPyr=     0 NCTC=     0               EPep=         0.000000000
    EC=         1.798773344  ECS=         0.240608267   EG=         0.000460071
   EHC=         0.000141098  EAt=        -6.842665387  AtH=         0.263106784
 EPDDG=         0.000000000  ECC=         2.039982779 EAtT=         7.105772172
 There are     3 symmetry adapted cartesian basis functions of A1  symmetry.
 There are     0 symmetry adapted cartesian basis functions of A2  symmetry.
 There are     1 symmetry adapted cartesian basis functions of B1  symmetry.
 There are     1 symmetry adapted cartesian basis functions of B2  symmetry.
 There are     3 symmetry adapted basis functions of A1  symmetry.
 There are     0 symmetry adapted basis functions of A2  symmetry.
 There are     1 symmetry adapted basis functions of B1  symmetry.
 There are     1 symmetry adapted basis functions of B2  symmetry.
     5 basis functions,    30 primitive gaussians,     5 cartesian basis functions
     4 alpha electrons        2 beta electrons
       nuclear repulsion energy         9.1457549512 Hartrees.
 IExCor=    0 DFT=F Ex=HF Corr=None ExCW=0 ScaHFX=  1.000000
 ScaDFX=  1.000000  1.000000  1.000000  1.000000 ScalE2=  1.000000  1.000000
 IRadAn=      5 IRanWt=     -1 IRanGd=            0 ICorTp=0 IEmpDi=  4
 Integral buffers will be    131072 words long.
 Regular integral format.
 Two-electron integral symmetry is turned off.
 Leave Link  301 at Wed Oct 21 14:30:08 2020, MaxMem=  2684354560 cpu:               5.2 elap:               1.1
 (Enter /udrive/faculty/rpeverati/g16/g16/l302.exe)
 Do NDO integrals.
 NPDir=0 NMtPBC=     1 NCelOv=     1 NCel=       1 NClECP=     1 NCelD=      1
         NCelK=      1 NCelE2=     1 NClLst=     1 CellRange=     0.0.
 One-electron integrals computed using PRISM.
 NBasis=     5 RedAO= T EigKep=  1.00D+00  NBF=     3     0     1     1
 NBsUse=     5 1.00D-06 EigRej= -1.00D+00 NBFU=     3     0     1     1
 Leave Link  302 at Wed Oct 21 14:30:09 2020, MaxMem=  2684354560 cpu:               3.3 elap:               1.0
 (Enter /udrive/faculty/rpeverati/g16/g16/l303.exe)
 DipDrv:  MaxL=1.
 Leave Link  303 at Wed Oct 21 14:30:10 2020, MaxMem=  2684354560 cpu:               2.9 elap:               0.9
 (Enter /udrive/faculty/rpeverati/g16/g16/l401.exe)
 Initial guess from the checkpoint file:  "MN_69_NH_BH76_PM6_SE.chk"
 SCF N**3 symmetry information disabled.
 B after Tr=     0.000000    0.000000    0.000000
         Rot=    1.000000    0.000000    0.000000    0.000000 Ang=   0.00 deg.
 Guess basis will be translated and rotated to current coordinates.
 JPrj=0 DoOrth=T DoCkMO=T.
 Initial guess orbital symmetries:
 Alpha Orbitals:
       Occupied  (SG) (SG) (PI) (PI)
       Virtual   (SG)
 Beta  Orbitals:
       Occupied  (SG) (SG)
       Virtual   (PI) (PI) (SG)
 The electronic state of the initial guess is 3-SG.
 Initial guess <Sx>= 0.0000 <Sy>= 0.0000 <Sz>= 1.0000 <S**2>= 2.0100 S= 1.0033
 Leave Link  401 at Wed Oct 21 14:30:12 2020, MaxMem=  2684354560 cpu:               2.8 elap:               0.9
 (Enter /udrive/faculty/rpeverati/g16/g16/l502.exe)
 Keep J ints in memory in canonical form, NReq=859092.
 FoFCou: FMM=F IPFlag=           0 FMFlag=           0 FMFlg1=           0
         NFxFlg=           0 DoJE=F BraDBF=F KetDBF=F FulRan=T
         wScrn=  0.000000 ICntrl=       600 IOpCl=  2 I1Cent=           0 NGrid=           0
         NMat0=    1 NMatS0=     11 NMatT0=    0 NMatD0=    1 NMtDS0=    0 NMtDT0=    0
 Symmetry not used in FoFCou.
 Two-electron integral symmetry not used.
 UHF open shell SCF:
 Using DIIS extrapolation, IDIIS=  1040.
 Overlap will be assumed to be unity.
 NGot=  2684354560 LenX=  2684294173 LenY=  2684293291
 Requested convergence on RMS density matrix=1.00D-08 within 120 cycles.
 Requested convergence on MAX density matrix=1.00D-06.
 Requested convergence on             energy=1.00D-06.
 No special actions if energy rises.

 Cycle   1  Pass 1  IDiag  1:
 E= 0.129809910526230    
 DIIS: error= 1.41D-03 at cycle   1 NSaved=   1.
 NSaved= 1 IEnMin= 1 EnMin= 0.129809910526230     IErMin= 1 ErrMin= 1.41D-03
 ErrMax= 1.41D-03  0.00D+00 EMaxC= 1.00D-01 BMatC= 3.85D-05 BMatP= 3.85D-05
 IDIUse=3 WtCom= 9.86D-01 WtEn= 1.41D-02
 Coeff-Com:  0.100D+01
 Coeff-En:   0.100D+01
 Coeff:      0.100D+01
 GapD=    2.000 DampG=2.000 DampE=1.000 DampFc=2.0000 IDamp=-1.
 RMSDP=8.67D-04 MaxDP=2.14D-03              OVMax= 0.00D+00

 Cycle   2  Pass 1  IDiag  3:
 E= 0.129786524427823     Delta-E=       -0.000023386098 Rises=F Damp=F
 DIIS: error= 3.56D-04 at cycle   2 NSaved=   2.
 NSaved= 2 IEnMin= 2 EnMin= 0.129786524427823     IErMin= 2 ErrMin= 3.56D-04
 ErrMax= 3.56D-04  0.00D+00 EMaxC= 1.00D-01 BMatC= 2.90D-06 BMatP= 3.85D-05
 IDIUse=3 WtCom= 9.96D-01 WtEn= 3.56D-03
 Coeff-Com: -0.356D+00 0.136D+01
 Coeff-En:   0.000D+00 0.100D+01
 Coeff:     -0.355D+00 0.135D+01
 Gap=     0.666 Goal=   None    Shift=    0.000
 Gap=     0.452 Goal=   None    Shift=    0.000
 RMSDP=3.31D-04 MaxDP=8.58D-04 DE=-2.34D-05 OVMax= 1.05D-03

 Cycle   3  Pass 1  IDiag  3:
 E= 0.129784438863473     Delta-E=       -0.000002085564 Rises=F Damp=F
 DIIS: error= 8.60D-05 at cycle   3 NSaved=   3.
 NSaved= 3 IEnMin= 3 EnMin= 0.129784438863473     IErMin= 3 ErrMin= 8.60D-05
 ErrMax= 8.60D-05  0.00D+00 EMaxC= 1.00D-01 BMatC= 8.46D-08 BMatP= 2.90D-06
 IDIUse=1 WtCom= 1.00D+00 WtEn= 0.00D+00
 Coeff-Com:  0.379D+00-0.148D+01 0.210D+01
 Coeff:      0.379D+00-0.148D+01 0.210D+01
 Gap=     0.666 Goal=   None    Shift=    0.000
 Gap=     0.452 Goal=   None    Shift=    0.000
 RMSDP=1.22D-04 MaxDP=4.77D-04 DE=-2.09D-06 OVMax= 5.04D-04

 Cycle   4  Pass 1  IDiag  3:
 E= 0.129784298578334     Delta-E=       -0.000000140285 Rises=F Damp=F
 DIIS: error= 1.95D-05 at cycle   4 NSaved=   4.
 NSaved= 4 IEnMin= 4 EnMin= 0.129784298578334     IErMin= 4 ErrMin= 1.95D-05
 ErrMax= 1.95D-05  0.00D+00 EMaxC= 1.00D-01 BMatC= 3.67D-09 BMatP= 8.46D-08
 IDIUse=1 WtCom= 1.00D+00 WtEn= 0.00D+00
 Coeff-Com: -0.310D+00 0.122D+01-0.183D+01 0.192D+01
 Coeff:     -0.310D+00 0.122D+01-0.183D+01 0.192D+01
 Gap=     0.666 Goal=   None    Shift=    0.000
 Gap=     0.452 Goal=   None    Shift=    0.000
 RMSDP=2.50D-05 MaxDP=1.10D-04 DE=-1.40D-07 OVMax= 9.84D-05

 Cycle   5  Pass 1  IDiag  3:
 E= 0.129784293559878     Delta-E=       -0.000000005018 Rises=F Damp=F
 DIIS: error= 1.12D-07 at cycle   5 NSaved=   5.
 NSaved= 5 IEnMin= 5 EnMin= 0.129784293559878     IErMin= 5 ErrMin= 1.12D-07
 ErrMax= 1.12D-07  0.00D+00 EMaxC= 1.00D-01 BMatC= 1.80D-13 BMatP= 3.67D-09
 IDIUse=1 WtCom= 1.00D+00 WtEn= 0.00D+00
 Coeff-Com:  0.221D-01-0.869D-01 0.132D+00-0.143D+00 0.108D+01
 Coeff:      0.221D-01-0.869D-01 0.132D+00-0.143D+00 0.108D+01
 Gap=     0.666 Goal=   None    Shift=    0.000
 Gap=     0.452 Goal=   None    Shift=    0.000
 RMSDP=1.20D-07 MaxDP=4.88D-07 DE=-5.02D-09 OVMax= 5.18D-07

 Cycle   6  Pass 1  IDiag  3:
 E= 0.129784293559697     Delta-E=       -0.000000000000 Rises=F Damp=F
 DIIS: error= 2.07D-08 at cycle   6 NSaved=   6.
 NSaved= 6 IEnMin= 6 EnMin= 0.129784293559697     IErMin= 6 ErrMin= 2.07D-08
 ErrMax= 2.07D-08  0.00D+00 EMaxC= 1.00D-01 BMatC= 1.17D-14 BMatP= 1.80D-13
 IDIUse=1 WtCom= 1.00D+00 WtEn= 0.00D+00
 Coeff-Com: -0.916D-05 0.866D-04-0.937D-03 0.306D-02-0.504D+00 0.150D+01
 Coeff:     -0.916D-05 0.866D-04-0.937D-03 0.306D-02-0.504D+00 0.150D+01
 Gap=     0.666 Goal=   None    Shift=    0.000
 Gap=     0.452 Goal=   None    Shift=    0.000
 RMSDP=3.39D-08 MaxDP=1.18D-07 DE=-1.81D-13 OVMax= 1.48D-07

 Cycle   7  Pass 1  IDiag  3:
 E= 0.129784293559684     Delta-E=       -0.000000000000 Rises=F Damp=F
 DIIS: error= 6.72D-12 at cycle   7 NSaved=   7.
 NSaved= 7 IEnMin= 7 EnMin= 0.129784293559684     IErMin= 7 ErrMin= 6.72D-12
 ErrMax= 6.72D-12  0.00D+00 EMaxC= 1.00D-01 BMatC= 1.29D-21 BMatP= 1.17D-14
 IDIUse=1 WtCom= 1.00D+00 WtEn= 0.00D+00
 Coeff-Com: -0.344D-09 0.292D-08-0.101D-06 0.321D-06-0.197D-04-0.214D-03
 Coeff-Com:  0.100D+01
 Coeff:     -0.344D-09 0.292D-08-0.101D-06 0.321D-06-0.197D-04-0.214D-03
 Coeff:      0.100D+01
 Gap=     0.666 Goal=   None    Shift=    0.000
 Gap=     0.452 Goal=   None    Shift=    0.000
 RMSDP=1.30D-11 MaxDP=3.72D-11 DE=-1.24D-14 OVMax= 4.82D-11

 Cycle   8  Pass 2  IDiag  1:
 SCF Done:  E(UPM6) =  0.129784293560     A.U. after    8 cycles
            NFock=  7  Conv=0.13D-10     -V/T= 1.0119
 <Sx>= 0.0000 <Sy>= 0.0000 <Sz>= 1.0000 <S**2>= 2.0095 S= 1.0032
 <L.S>= 0.000000000000E+00
 KE=-1.086810136662D+01 PE=-3.274617530312D+00 EE= 5.126748239293D+00
 Annihilation of the first spin contaminant:
 S**2 before annihilation     2.0095,   after     2.0000
 Leave Link  502 at Wed Oct 21 14:30:13 2020, MaxMem=  2684354560 cpu:               7.8 elap:               1.3
 (Enter /udrive/faculty/rpeverati/g16/g16/l508.exe)
 QCSCF skips out because SCF is already converged.
 Leave Link  508 at Wed Oct 21 14:30:14 2020, MaxMem=  2684354560 cpu:               1.0 elap:               0.7
 (Enter /udrive/faculty/rpeverati/g16/g16/l701.exe)
 ... and contract with generalized density number  0.
 Compute integral first derivatives.
 Leave Link  701 at Wed Oct 21 14:30:16 2020, MaxMem=  2684354560 cpu:               4.3 elap:               1.0
 (Enter /udrive/faculty/rpeverati/g16/g16/l702.exe)
 L702 exits ... SP integral derivatives will be done elsewhere.
 Leave Link  702 at Wed Oct 21 14:30:17 2020, MaxMem=  2684354560 cpu:               2.1 elap:               0.8
 (Enter /udrive/faculty/rpeverati/g16/g16/l703.exe)
 Integral derivatives from FoFJK, PRISM(SPDF).
 Compute integral first derivatives, UseDBF=F ICtDFT=           0.
 Calling FoFJK, ICntrl=      2127 FMM=F ISym2X=1 I1Cent= 0 IOpClX= 1 NMat=1 NMatS=1 NMatT=0.
 FoFJK:  IHMeth=40 ICntrl=    2127 DoSepK=F KAlg= 0 I1Cent=           0 FoldK=F
 IRaf=         0 NMat=       1 IRICut=       1 DoRegI=T DoRafI=F ISym2E= 1 IDoP0=3 IntGTp=3.
 FoFCou: FMM=F IPFlag=           0 FMFlag=      100000 FMFlg1=         800
         NFxFlg=           0 DoJE=F BraDBF=F KetDBF=F FulRan=T
         wScrn=  0.000000 ICntrl=      2127 IOpCl=  1 I1Cent=           0 NGrid=           0
         NMat0=    1 NMatS0=      1 NMatT0=    0 NMatD0=    1 NMtDS0=    0 NMtDT0=    0
 Petite list used in FoFCou.
 Leave Link  703 at Wed Oct 21 14:30:18 2020, MaxMem=  2684354560 cpu:               3.3 elap:               0.9
 (Enter /udrive/faculty/rpeverati/g16/g16/l716.exe)
 Dipole        =-2.53855536D-17 3.37552408D-16-7.08415751D-01
 ***** Axes restored to original set *****
 -------------------------------------------------------------------
 Center     Atomic                   Forces (Hartrees/Bohr)
 Number     Number              X              Y              Z
 -------------------------------------------------------------------
      1        7          -0.000000000   -0.000000000   -0.000000673
      2        1           0.000000000    0.000000000    0.000000673
 -------------------------------------------------------------------
 Cartesian Forces:  Max     0.000000673 RMS     0.000000388
 Leave Link  716 at Wed Oct 21 14:30:19 2020, MaxMem=  2684354560 cpu:               1.9 elap:               0.8
 (Enter /udrive/faculty/rpeverati/g16/g16/l103.exe)

 GradGradGradGradGradGradGradGradGradGradGradGradGradGradGradGradGradGrad
 Berny optimization.
 Optmz: redundant internal coordinate code flag= 1
 Using GEDIIS/GDIIS optimizer.
 Red2BG:  D1=  2.00D+00 OD1=  0.00D+00 B2RMS=  0.00D+00 IAprox=1
 Red2BG is reusing G-inverse.
 Internal  Forces:  Max     0.000000673 RMS     0.000000673
 Search for a local minimum.
 Step number   3 out of a maximum of  100
 All quantities printed in internal units (Hartrees-Bohrs-Radians)
 RMS Force = .67259D-06 SwitMx=.10000D-02 MixMth= 2
 Mixed Optimization -- En-DIIS/RFO-DIIS
 Update second derivatives using D2CorX and points    2    3
 DE= -1.06D-04 DEPred=-1.11D-04 R= 9.57D-01
 TightC=F SS=  1.41D+00  RLast= 2.80D-02 DXNew= 5.0454D-01 8.3962D-02
 Trust test= 9.57D-01 RLast= 2.80D-02 DXMaxT set to 3.00D-01
 The second derivative matrix:
                          R1
           R1           0.26883
 ITU=  1  1
 Use linear search instead of GDIIS.
 Eigenvectors of the second derivative matrix:
                           1
     Eigenvalues --     0.26883
   1         R1         1.00000
 RFO step:  Lambda= 0.00000000D+00 EMin= 2.68832137D-01
 Quartic linear search produced a step of  0.00009.
 Iteration  1 RMS(Cart)=  0.00000173 RMS(Int)=  0.00000000
 Iteration  2 RMS(Cart)=  0.00000000 RMS(Int)=  0.00000000
 ITry= 1 IFail=0 DXMaxC= 1.23D-06 DCOld= 1.00D+10 DXMaxT= 3.00D-01 DXLimC= 3.00D+00 Rises=F
 ClnCor:  largest displacement from symmetrization is 0.00D+00 for atom     0.
 Variable       Old X    -DE/DX   Delta X   Delta X   Delta X     New X
                                 (Linear)    (Quad)   (Total)
    R1        1.88519  -0.00000  -0.00000   0.00000  -0.00000   1.88519
         Item               Value     Threshold  Converged?
 Maximum Force            0.000001     0.000450     YES
 RMS     Force            0.000001     0.000300     YES
 Maximum Displacement     0.000001     0.001800     YES
 RMS     Displacement     0.000002     0.001200     YES
 Predicted change in Energy=-8.410658D-13
 Optimization completed.
    -- Stationary point found.
                           ----------------------------
                           !   Optimized Parameters   !
                           ! (Angstroms and Degrees)  !
 --------------------------                            --------------------------
 ! Name  Definition              Value          Derivative Info.                !
 --------------------------------------------------------------------------------
 ! R1    R(1,2)                  0.9976         -DE/DX =    0.0                 !
 --------------------------------------------------------------------------------
 Lowest energy point so far.  Saving SCF results.
 Largest change from initial coordinates is atom    2       0.034 Angstoms.
 GradGradGradGradGradGradGradGradGradGradGradGradGradGradGradGradGradGrad

 Leave Link  103 at Wed Oct 21 14:30:21 2020, MaxMem=  2684354560 cpu:               4.7 elap:               1.1
 (Enter /udrive/faculty/rpeverati/g16/g16/l202.exe)
                          Input orientation:                          
 ---------------------------------------------------------------------
 Center     Atomic      Atomic             Coordinates (Angstroms)
 Number     Number       Type             X           Y           Z
 ---------------------------------------------------------------------
      1          7           0        0.000000    0.000000    0.110024
      2          1           0        0.000000    0.000000   -0.887575
 ---------------------------------------------------------------------
 Stoichiometry    HN(3)
 Framework group  C*V[C*(HN)]
 Deg. of freedom     1
 Full point group                 C*V     NOp   4
 RotChk:  IX=0 Diff= 0.00D+00
 Largest Abelian subgroup         C2V     NOp   4
 Largest concise Abelian subgroup C1      NOp   1
                         Standard orientation:                         
 ---------------------------------------------------------------------
 Center     Atomic      Atomic             Coordinates (Angstroms)
 Number     Number       Type             X           Y           Z
 ---------------------------------------------------------------------
      1          7           0        0.000000    0.000000    0.124700
      2          1           0        0.000000    0.000000   -0.872899
 ---------------------------------------------------------------------
 Rotational constants (GHZ):           0.0000000         540.1370275         540.1370275
 Leave Link  202 at Wed Oct 21 14:30:22 2020, MaxMem=  2684354560 cpu:               2.0 elap:               0.8
 (Enter /udrive/faculty/rpeverati/g16/g16/l601.exe)
 Copying SCF densities to generalized density rwf, IOpCl= 1 IROHF=0.

 **********************************************************************

            Population analysis using the SCF density.

 **********************************************************************

 Orbital symmetries:
 Alpha Orbitals:
       Occupied  (SG) (SG) (PI) (PI)
       Virtual   (SG)
 Beta  Orbitals:
       Occupied  (SG) (SG)
       Virtual   (PI) (PI) (SG)
 The electronic state is 3-SG.
 Alpha  occ. eigenvalues --   -1.03150  -0.54194  -0.49689  -0.49689
 Alpha virt. eigenvalues --    0.16910
  Beta  occ. eigenvalues --   -0.87694  -0.44506
  Beta virt. eigenvalues --    0.00679   0.00679   0.20523
          Condensed to atoms (all electrons):
               1          2
     1  N    5.176088   0.000000
     2  H    0.000000   0.823912
          Atomic-Atomic Spin Densities.
               1          2
     1  N    2.093381   0.000000
     2  H    0.000000  -0.093381
 Mulliken charges and spin densities:
               1          2
     1  N   -0.176088   2.093381
     2  H    0.176088  -0.093381
 Sum of Mulliken charges =  -0.00000   2.00000
 Mulliken charges and spin densities with hydrogens summed into heavy atoms:
               1          2
     1  N   -0.000000   2.000000
 Charge=             -0.0000 electrons
 Dipole moment (field-independent basis, Debye):
    X=             -0.0000    Y=              0.0000    Z=             -1.8006  Tot=              1.8006
 N-N= 9.145754951199D+00 E-N=-3.274617530311D+00  KE=-1.086810136662D+01
 Leave Link  601 at Wed Oct 21 14:30:23 2020, MaxMem=  2684354560 cpu:               2.8 elap:               0.9
 (Enter /udrive/faculty/rpeverati/g16/g16/l9999.exe)

 Test job not archived.
 1\1\GINC-NODE38\FOpt\UPM6\ZDO\H1N1(3)\RPEVERATI\21-Oct-2020\0\\#P Opt(
 MaxCyc=150) PM6 5D 7F Integral=UltraFineGrid SCF=(NoSymm,XQC,MaxCyc=12
 0) IOp(1/33=1)\\TS search on BH76.\\0,3\N,0.,0.,0.1100237807\H,0.,0.,-
 0.8875745488\\Version=ES64L-G16RevA.03\State=3-SG\HF=0.1297843\S2=2.00
 9511\S2-1=0.\S2A=2.\RMSD=1.295e-11\RMSF=3.883e-07\Dipole=0.,0.,-0.7084
 158\PG=C*V [C*(H1N1)]\\@


 TIME GOES, YOU SAY?  AH NO!
 ALAS, TIME STAYS, WE GO.
    -- A. DOBSON (1840-1921)
 Job cpu time:       0 days  0 hours  2 minutes 29.0 seconds.
 Elapsed time:       0 days  0 hours  0 minutes 39.0 seconds.
 File lengths (MBytes):  RWF=      5 Int=      0 D2E=      0 Chk=      2 Scr=      1
 Normal termination of Gaussian 16 at Wed Oct 21 14:30:25 2020.
