 Entering Gaussian System, Link 0=g16
 Input=MN_62_hoch3fcomp2_BH76_PM6_SE.in
 Output=MN_62_hoch3fcomp2_BH76_PM6_SE.log
 Initial command:
 /udrive/faculty/rpeverati/g16/g16/l1.exe "/udrive/scratch-directories/gaussian09/rpeverati/Gau-21202.inp" -scrdir="/udrive/scratch-directories/gaussian09/rpeverati/"
 Entering Link 1 = /udrive/faculty/rpeverati/g16/g16/l1.exe PID=     21219.
  
 Copyright (c) 1988,1990,1992,1993,1995,1998,2003,2009,2016,
            Gaussian, Inc.  All Rights Reserved.
  
 This is part of the Gaussian(R) 16 program.  It is based on
 the Gaussian(R) 09 system (copyright 2009, Gaussian, Inc.),
 the Gaussian(R) 03 system (copyright 2003, Gaussian, Inc.),
 the Gaussian(R) 98 system (copyright 1998, Gaussian, Inc.),
 the Gaussian(R) 94 system (copyright 1995, Gaussian, Inc.),
 the Gaussian 92(TM) system (copyright 1992, Gaussian, Inc.),
 the Gaussian 90(TM) system (copyright 1990, Gaussian, Inc.),
 the Gaussian 88(TM) system (copyright 1988, Gaussian, Inc.),
 the Gaussian 86(TM) system (copyright 1986, Carnegie Mellon
 University), and the Gaussian 82(TM) system (copyright 1983,
 Carnegie Mellon University). Gaussian is a federally registered
 trademark of Gaussian, Inc.
  
 This software contains proprietary and confidential information,
 including trade secrets, belonging to Gaussian, Inc.
  
 This software is provided under written license and may be
 used, copied, transmitted, or stored only in accord with that
 written license.
  
 The following legend is applicable only to US Government
 contracts under FAR:
  
                    RESTRICTED RIGHTS LEGEND
  
 Use, reproduction and disclosure by the US Government is
 subject to restrictions as set forth in subparagraphs (a)
 and (c) of the Commercial Computer Software - Restricted
 Rights clause in FAR 52.227-19.
  
 Gaussian, Inc.
 340 Quinnipiac St., Bldg. 40, Wallingford CT 06492
  
  
 ---------------------------------------------------------------
 Warning -- This program may not be used in any manner that
 competes with the business of Gaussian, Inc. or will provide
 assistance to any competitor of Gaussian, Inc.  The licensee
 of this program is prohibited from giving any competitor of
 Gaussian, Inc. access to this program.  By using this program,
 the user acknowledges that Gaussian, Inc. is engaged in the
 business of creating and licensing software in the field of
 computational chemistry and represents and warrants to the
 licensee that it is not a competitor of Gaussian, Inc. and that
 it will not use this program in any manner prohibited above.
 ---------------------------------------------------------------
  

 Cite this work as:
 Gaussian 16, Revision A.03,
 M. J. Frisch, G. W. Trucks, H. B. Schlegel, G. E. Scuseria, 
 M. A. Robb, J. R. Cheeseman, G. Scalmani, V. Barone, 
 G. A. Petersson, H. Nakatsuji, X. Li, M. Caricato, A. V. Marenich, 
 J. Bloino, B. G. Janesko, R. Gomperts, B. Mennucci, H. P. Hratchian, 
 J. V. Ortiz, A. F. Izmaylov, J. L. Sonnenberg, D. Williams-Young, 
 F. Ding, F. Lipparini, F. Egidi, J. Goings, B. Peng, A. Petrone, 
 T. Henderson, D. Ranasinghe, V. G. Zakrzewski, J. Gao, N. Rega, 
 G. Zheng, W. Liang, M. Hada, M. Ehara, K. Toyota, R. Fukuda, 
 J. Hasegawa, M. Ishida, T. Nakajima, Y. Honda, O. Kitao, H. Nakai, 
 T. Vreven, K. Throssell, J. A. Montgomery, Jr., J. E. Peralta, 
 F. Ogliaro, M. J. Bearpark, J. J. Heyd, E. N. Brothers, K. N. Kudin, 
 V. N. Staroverov, T. A. Keith, R. Kobayashi, J. Normand, 
 K. Raghavachari, A. P. Rendell, J. C. Burant, S. S. Iyengar, 
 J. Tomasi, M. Cossi, J. M. Millam, M. Klene, C. Adamo, R. Cammi, 
 J. W. Ochterski, R. L. Martin, K. Morokuma, O. Farkas, 
 J. B. Foresman, and D. J. Fox, Gaussian, Inc., Wallingford CT, 2016.
 
 ******************************************
 Gaussian 16:  ES64L-G16RevA.03 25-Dec-2016
                21-Oct-2020 
 ******************************************
 %NoSave
 %nproc=12
 Will use up to   12 processors via shared memory.
 %mem=20GB
 %chk=MN_62_hoch3fcomp2_BH76_PM6_SE
 ----------------------------------------------------------------------
 #P Opt(MaxCyc=150) PM6 5D 7F Integral=UltraFineGrid SCF=(NoSymm,XQC,Ma
 xCyc=120) IOp(1/33=1)
 ----------------------------------------------------------------------
 1/6=150,18=20,19=15,26=1,33=1,38=1/1,3;
 2/9=110,12=2,17=6,18=5,40=1/2;
 3/5=2,8=11,25=1,41=3900000,71=1,75=-5/1,2,3;
 4/9=2,35=1/1;
 5/5=2,7=120,8=3,13=1,35=1,38=5/2,8;
 6/7=2,8=2,9=2,10=2,28=1/1;
 7//1,2,3,16;
 1/6=150,18=20,19=15,26=1,33=1/3(2);
 2/9=110/2;
 99//99;
 2/9=110/2;
 3/5=2,8=11,25=1,41=3900000,71=1,75=-5,135=20/1,2,3;
 4/5=5,9=2,16=3,35=1/1;
 5/5=2,7=120,8=3,13=1,35=1,38=5/2,8;
 7//1,2,3,16;
 1/6=150,18=20,19=15,26=1,33=1/3(-5);
 2/9=110/2;
 6/7=2,8=2,9=2,10=2,19=2,28=1/1;
 99/9=1/99;
 Leave Link    1 at Wed Oct 21 14:29:09 2020, MaxMem=  2684354560 cpu:               7.3 elap:               0.7
 (Enter /udrive/faculty/rpeverati/g16/g16/l101.exe)
 ONIOM data not found on unit 2.
 ------------------
 TS search on BH76.
 ------------------
 TstMul:  ICh=    -1
 TstMul:  Mul=     1
 TstMul:  ICh=    -1
 TstMul:  Mul=     1
 Symbolic Z-matrix:
 Charge = -1 Multiplicity = 1
 F                     1.89905  -0.07646  -0.0054 
 C                     0.48941   0.10548   0.00677 
 H                     0.0013   -0.78617  -0.36115 
 H                     0.17194   0.29836   1.02324 
 H                     0.24974   0.94747  -0.63089 
 O                    -2.16945  -0.07314  -0.00232 
 H                    -3.09537   0.1807   -0.00462 
 
 RdStrC is calling ZToCFu for IStruc=1 NZ=     7.
 PrtBox:  NBox=     2 Levels=  1 BoxLen=    8.00 SMaxX=        9.44
          Shift=            5.849400            1.485640            1.192200
 Box      1 Number                   0 centers from      1 to      6:
 Box      2 Number                   4 centers from      7 to      7:
 After GenITR:
 ITRead=  0  0  0  0  0  0  0
 MicOpt= -1 -1 -1 -1 -1 -1 -1
 Add virtual bond connecting atoms O6         and H3         Dist= 4.37D+00.
 ITRead=  0  0  0  0  0  0  0
 MicOpt= -1 -1 -1 -1 -1 -1 -1
 NAtoms=      7 NQM=        7 NQMF=       0 NMMI=      0 NMMIF=      0
                NMic=       0 NMicF=      0.
                    Isotopes and Nuclear Properties:
 (Nuclear quadrupole moments (NQMom) in fm**2, nuclear magnetic moments (NMagM)
  in nuclear magnetons)

  Atom         1           2           3           4           5           6           7
 IAtWgt=          19          12           1           1           1          16           1
 AtmWgt=  18.9984033  12.0000000   1.0078250   1.0078250   1.0078250  15.9949146   1.0078250
 NucSpn=           1           0           1           1           1           0           1
 AtZEff=   0.0000000   0.0000000   0.0000000   0.0000000   0.0000000   0.0000000   0.0000000
 NQMom=    0.0000000   0.0000000   0.0000000   0.0000000   0.0000000   0.0000000   0.0000000
 NMagM=    2.6288670   0.0000000   2.7928460   2.7928460   2.7928460   0.0000000   2.7928460
 AtZNuc=   9.0000000   6.0000000   1.0000000   1.0000000   1.0000000   8.0000000   1.0000000
 No MM parameters found.
 Leave Link  101 at Wed Oct 21 14:29:10 2020, MaxMem=  2684354560 cpu:               9.8 elap:               1.0
 (Enter /udrive/faculty/rpeverati/g16/g16/l103.exe)

 GradGradGradGradGradGradGradGradGradGradGradGradGradGradGradGradGradGrad
 Berny optimization.
 Optmz: redundant internal coordinate code flag= 1
 Initialization pass.
                           ----------------------------
                           !    Initial Parameters    !
                           ! (Angstroms and Degrees)  !
 --------------------------                            --------------------------
 ! Name  Definition              Value          Derivative Info.                !
 --------------------------------------------------------------------------------
 ! R1    R(1,2)                  1.4214         estimate D2E/DX2                !
 ! R2    R(2,3)                  1.081          estimate D2E/DX2                !
 ! R3    R(2,4)                  1.0822         estimate D2E/DX2                !
 ! R4    R(2,5)                  1.083          estimate D2E/DX2                !
 ! R5    R(3,6)                  2.3129         estimate D2E/DX2                !
 ! R6    R(6,7)                  0.9601         estimate D2E/DX2                !
 ! A1    A(1,2,3)              109.8338         estimate D2E/DX2                !
 ! A2    A(1,2,4)              108.7707         estimate D2E/DX2                !
 ! A3    A(1,2,5)              108.2965         estimate D2E/DX2                !
 ! A4    A(3,2,4)              109.5244         estimate D2E/DX2                !
 ! A5    A(3,2,5)              109.9335         estimate D2E/DX2                !
 ! A6    A(4,2,5)              110.4581         estimate D2E/DX2                !
 ! A7    A(2,3,6)               96.7014         estimate D2E/DX2                !
 ! A8    L(3,6,7,5,-1)         180.2727         estimate D2E/DX2                !
 ! A9    L(3,6,7,5,-2)         165.3128         estimate D2E/DX2                !
 ! D1    D(1,2,3,6)            176.0174         estimate D2E/DX2                !
 ! D2    D(4,2,3,6)             56.6215         estimate D2E/DX2                !
 ! D3    D(5,2,3,6)            -64.9173         estimate D2E/DX2                !
 --------------------------------------------------------------------------------
 Maximum allowed force set to 1.00D+20.
 Trust Radius=3.00D-01 FncErr=1.00D-07 GrdErr=1.00D-07 EigMax=2.50D+02 EigMin=1.00D-04
 Number of steps in this run=    100 maximum allowed number of steps=    100.
 GradGradGradGradGradGradGradGradGradGradGradGradGradGradGradGradGradGrad

 Leave Link  103 at Wed Oct 21 14:29:11 2020, MaxMem=  2684354560 cpu:               2.1 elap:               0.8
 (Enter /udrive/faculty/rpeverati/g16/g16/l202.exe)
                          Input orientation:                          
 ---------------------------------------------------------------------
 Center     Atomic      Atomic             Coordinates (Angstroms)
 Number     Number       Type             X           Y           Z
 ---------------------------------------------------------------------
      1          9           0        1.899053   -0.076457   -0.005404
      2          6           0        0.489413    0.105484    0.006768
      3          1           0        0.001304   -0.786167   -0.361155
      4          1           0        0.171943    0.298358    1.023244
      5          1           0        0.249744    0.947471   -0.630885
      6          8           0       -2.169447   -0.073143   -0.002320
      7          1           0       -3.095369    0.180697   -0.004624
 ---------------------------------------------------------------------
                    Distance matrix (angstroms):
                    1          2          3          4          5
     1  F    0.000000
     2  C    1.421385   0.000000
     3  H    2.057109   1.081045   0.000000
     4  H    2.044874   1.082225   1.766882   0.000000
     5  H    2.039577   1.083044   1.771998   1.778635   0.000000
     6  O    4.068502   2.664869   2.312861   2.583002   2.699857
     7  H    5.001038   3.585589   3.263637   3.427198   3.488542
                    6          7
     6  O    0.000000
     7  H    0.960090   0.000000
 Stoichiometry    CH4FO(1-)
 Framework group  C1[X(CH4FO)]
 Deg. of freedom    15
 Full point group                 C1      NOp   1
 Largest Abelian subgroup         C1      NOp   1
 Largest concise Abelian subgroup C1      NOp   1
                         Standard orientation:                         
 ---------------------------------------------------------------------
 Center     Atomic      Atomic             Coordinates (Angstroms)
 Number     Number       Type             X           Y           Z
 ---------------------------------------------------------------------
      1          9           0        1.899053   -0.076457   -0.005404
      2          6           0        0.489413    0.105484    0.006768
      3          1           0        0.001304   -0.786167   -0.361155
      4          1           0        0.171943    0.298358    1.023244
      5          1           0        0.249744    0.947470   -0.630885
      6          8           0       -2.169447   -0.073143   -0.002320
      7          1           0       -3.095369    0.180697   -0.004624
 ---------------------------------------------------------------------
 Rotational constants (GHZ):         141.9909320           3.2067010           3.1989530
 Leave Link  202 at Wed Oct 21 14:29:12 2020, MaxMem=  2684354560 cpu:               2.1 elap:               0.7
 (Enter /udrive/faculty/rpeverati/g16/g16/l301.exe)
 Standard basis: VSTO-6G (5D, 7F)
 Ernie: Thresh=  0.10000D-02 Tol=  0.10000D-05 Strict=F.
  NNHCO=     0 NNPyr=     0 NCTC=     0               EPep=         0.000000000
    EC=        34.923563110  ECS=         0.990242502   EG=         0.055948037
   EHC=         0.000491503  EAt=       -33.643058334  AtH=         0.729466277
 EPDDG=         0.000000000  ECC=        35.970245153 EAtT=        34.372524611
 There are    16 symmetry adapted cartesian basis functions of A   symmetry.
 There are    16 symmetry adapted basis functions of A   symmetry.
    16 basis functions,    96 primitive gaussians,    16 cartesian basis functions
    11 alpha electrons       11 beta electrons
       nuclear repulsion energy        70.3427697642 Hartrees.
 IExCor=    0 DFT=F Ex=HF Corr=None ExCW=0 ScaHFX=  1.000000
 ScaDFX=  1.000000  1.000000  1.000000  1.000000 ScalE2=  1.000000  1.000000
 IRadAn=      5 IRanWt=     -1 IRanGd=            0 ICorTp=0 IEmpDi=  4
 Integral buffers will be    131072 words long.
 Regular integral format.
 Two-electron integral symmetry is turned off.
 Leave Link  301 at Wed Oct 21 14:29:13 2020, MaxMem=  2684354560 cpu:               2.8 elap:               0.8
 (Enter /udrive/faculty/rpeverati/g16/g16/l302.exe)
 Do NDO integrals.
 NPDir=0 NMtPBC=     1 NCelOv=     1 NCel=       1 NClECP=     1 NCelD=      1
         NCelK=      1 NCelE2=     1 NClLst=     1 CellRange=     0.0.
 One-electron integrals computed using PRISM.
 NBasis=    16 RedAO= F EigKep=  0.00D+00  NBF=    16
 NBsUse=    16 1.00D-04 EigRej=  0.00D+00 NBFU=    16
 Leave Link  302 at Wed Oct 21 14:29:15 2020, MaxMem=  2684354560 cpu:               4.1 elap:               0.9
 (Enter /udrive/faculty/rpeverati/g16/g16/l303.exe)
 DipDrv:  MaxL=1.
 Leave Link  303 at Wed Oct 21 14:29:16 2020, MaxMem=  2684354560 cpu:               3.1 elap:               0.8
 (Enter /udrive/faculty/rpeverati/g16/g16/l401.exe)
 SCF N**3 symmetry information disabled.
 Simple Huckel Guess.
 JPrj=0 DoOrth=F DoCkMO=F.
 Leave Link  401 at Wed Oct 21 14:29:17 2020, MaxMem=  2684354560 cpu:               2.5 elap:               0.8
 (Enter /udrive/faculty/rpeverati/g16/g16/l502.exe)
 Keep J ints in memory in canonical form, NReq=859789.
 FoFCou: FMM=F IPFlag=           0 FMFlag=           0 FMFlg1=           0
         NFxFlg=           0 DoJE=F BraDBF=F KetDBF=F FulRan=T
         wScrn=  0.000000 ICntrl=       600 IOpCl=  2 I1Cent=           0 NGrid=           0
         NMat0=    1 NMatS0=     34 NMatT0=    0 NMatD0=    1 NMtDS0=    0 NMtDT0=    0
 Symmetry not used in FoFCou.
 Two-electron integral symmetry not used.
 Closed shell SCF:
 Using DIIS extrapolation, IDIIS=  1040.
 Overlap will be assumed to be unity.
 NGot=  2684354560 LenX=  2684293466 LenY=  2684292584
 Requested convergence on RMS density matrix=1.00D-08 within 120 cycles.
 Requested convergence on MAX density matrix=1.00D-06.
 Requested convergence on             energy=1.00D-06.
 No special actions if energy rises.

 Cycle   1  Pass 1  IDiag  1:
 E= 0.759630495393111E-01
 DIIS: error= 1.04D-01 at cycle   1 NSaved=   1.
 NSaved= 1 IEnMin= 1 EnMin= 0.759630495393111E-01 IErMin= 1 ErrMin= 1.04D-01
 ErrMax= 1.04D-01  0.00D+00 EMaxC= 1.00D-01 BMatC= 8.90D-02 BMatP= 8.90D-02
 IDIUse=3 WtCom= 0.00D+00 WtEn= 1.00D+00
 Coeff-Com:  0.100D+01
 Coeff-En:   0.100D+01
 Coeff:      0.100D+01
 GapD=    2.000 DampG=2.000 DampE=0.250 DampFc=0.5000 IDamp=-1.
 Damping current iteration by 5.00D-01
 RMSDP=2.25D-02 MaxDP=1.31D-01              OVMax= 0.00D+00

 Cycle   2  Pass 1  IDiag  1:
 E=-0.109594600418745E-01 Delta-E=       -0.086922509581 Rises=F Damp=T
 DIIS: error= 6.53D-02 at cycle   2 NSaved=   2.
 NSaved= 2 IEnMin= 2 EnMin=-0.109594600418745E-01 IErMin= 2 ErrMin= 6.53D-02
 ErrMax= 6.53D-02  0.00D+00 EMaxC= 1.00D-01 BMatC= 3.79D-02 BMatP= 8.90D-02
 IDIUse=3 WtCom= 3.47D-01 WtEn= 6.53D-01
 Coeff-Com: -0.179D+01 0.279D+01
 Coeff-En:   0.000D+00 0.100D+01
 Coeff:     -0.619D+00 0.162D+01
 RMSDP=1.77D-02 MaxDP=9.86D-02 DE=-8.69D-02 OVMax= 0.00D+00

 Cycle   3  Pass 1  IDiag  1:
 E=-0.143741707355090     Delta-E=       -0.132782247313 Rises=F Damp=F
 DIIS: error= 1.09D-02 at cycle   3 NSaved=   3.
 NSaved= 3 IEnMin= 3 EnMin=-0.143741707355090     IErMin= 3 ErrMin= 1.09D-02
 ErrMax= 1.09D-02  0.00D+00 EMaxC= 1.00D-01 BMatC= 2.15D-03 BMatP= 3.79D-02
 IDIUse=3 WtCom= 8.91D-01 WtEn= 1.09D-01
 Coeff-Com:  0.234D+01-0.415D+01 0.281D+01
 Coeff-En:   0.000D+00 0.000D+00 0.100D+01
 Coeff:      0.209D+01-0.370D+01 0.261D+01
 RMSDP=8.08D-03 MaxDP=5.85D-02 DE=-1.33D-01 OVMax= 0.00D+00

 Cycle   4  Pass 1  IDiag  3:
 E=-0.152664705317065     Delta-E=       -0.008922997962 Rises=F Damp=F
 DIIS: error= 1.91D-03 at cycle   4 NSaved=   4.
 NSaved= 4 IEnMin= 4 EnMin=-0.152664705317065     IErMin= 4 ErrMin= 1.91D-03
 ErrMax= 1.91D-03  0.00D+00 EMaxC= 1.00D-01 BMatC= 4.28D-05 BMatP= 2.15D-03
 IDIUse=3 WtCom= 9.81D-01 WtEn= 1.91D-02
 Coeff-Com: -0.680D+00 0.122D+01-0.102D+01 0.148D+01
 Coeff-En:   0.000D+00 0.000D+00 0.000D+00 0.100D+01
 Coeff:     -0.667D+00 0.120D+01-0.100D+01 0.147D+01
 Gap=     0.364 Goal=   None    Shift=    0.000
 RMSDP=1.55D-03 MaxDP=1.14D-02 DE=-8.92D-03 OVMax= 1.26D-02

 Cycle   5  Pass 1  IDiag  3:
 E=-0.152913029912867     Delta-E=       -0.000248324596 Rises=F Damp=F
 DIIS: error= 3.68D-04 at cycle   5 NSaved=   5.
 NSaved= 5 IEnMin= 5 EnMin=-0.152913029912867     IErMin= 5 ErrMin= 3.68D-04
 ErrMax= 3.68D-04  0.00D+00 EMaxC= 1.00D-01 BMatC= 2.63D-06 BMatP= 4.28D-05
 IDIUse=3 WtCom= 9.96D-01 WtEn= 3.68D-03
 Coeff-Com:  0.125D+00-0.228D+00 0.282D+00-0.911D+00 0.173D+01
 Coeff-En:   0.000D+00 0.000D+00 0.000D+00 0.000D+00 0.100D+01
 Coeff:      0.125D+00-0.228D+00 0.281D+00-0.907D+00 0.173D+01
 Gap=     0.364 Goal=   None    Shift=    0.000
 RMSDP=4.02D-04 MaxDP=2.60D-03 DE=-2.48D-04 OVMax= 2.75D-03

 Cycle   6  Pass 1  IDiag  3:
 E=-0.152928240795120     Delta-E=       -0.000015210882 Rises=F Damp=F
 DIIS: error= 4.12D-05 at cycle   6 NSaved=   6.
 NSaved= 6 IEnMin= 6 EnMin=-0.152928240795120     IErMin= 6 ErrMin= 4.12D-05
 ErrMax= 4.12D-05  0.00D+00 EMaxC= 1.00D-01 BMatC= 6.84D-08 BMatP= 2.63D-06
 IDIUse=1 WtCom= 1.00D+00 WtEn= 0.00D+00
 Coeff-Com:  0.941D-03-0.720D-03-0.357D-01 0.240D+00-0.573D+00 0.137D+01
 Coeff:      0.941D-03-0.720D-03-0.357D-01 0.240D+00-0.573D+00 0.137D+01
 Gap=     0.364 Goal=   None    Shift=    0.000
 RMSDP=4.77D-05 MaxDP=3.01D-04 DE=-1.52D-05 OVMax= 0.00D+00

 Cycle   7  Pass 1  IDiag  3:
 E=-0.152928515500946     Delta-E=       -0.000000274706 Rises=F Damp=F
 DIIS: error= 6.99D-06 at cycle   7 NSaved=   7.
 NSaved= 7 IEnMin= 7 EnMin=-0.152928515500946     IErMin= 7 ErrMin= 6.99D-06
 ErrMax= 6.99D-06  0.00D+00 EMaxC= 1.00D-01 BMatC= 1.27D-09 BMatP= 6.84D-08
 IDIUse=1 WtCom= 1.00D+00 WtEn= 0.00D+00
 Coeff-Com: -0.178D-02 0.285D-02 0.738D-02-0.563D-01 0.135D+00-0.416D+00
 Coeff-Com:  0.133D+01
 Coeff:     -0.178D-02 0.285D-02 0.738D-02-0.563D-01 0.135D+00-0.416D+00
 Coeff:      0.133D+01
 Gap=     0.364 Goal=   None    Shift=    0.000
 RMSDP=7.23D-06 MaxDP=3.11D-05 DE=-2.75D-07 OVMax= 3.64D-05

 Cycle   8  Pass 1  IDiag  3:
 E=-0.152928521336293     Delta-E=       -0.000000005835 Rises=F Damp=F
 DIIS: error= 1.63D-06 at cycle   8 NSaved=   8.
 NSaved= 8 IEnMin= 8 EnMin=-0.152928521336293     IErMin= 8 ErrMin= 1.63D-06
 ErrMax= 1.63D-06  0.00D+00 EMaxC= 1.00D-01 BMatC= 5.83D-11 BMatP= 1.27D-09
 IDIUse=1 WtCom= 1.00D+00 WtEn= 0.00D+00
 Coeff-Com:  0.834D-04-0.820D-04-0.103D-02 0.527D-02-0.115D-01 0.548D-01
 Coeff-Com: -0.300D+00 0.125D+01
 Coeff:      0.834D-04-0.820D-04-0.103D-02 0.527D-02-0.115D-01 0.548D-01
 Coeff:     -0.300D+00 0.125D+01
 Gap=     0.364 Goal=   None    Shift=    0.000
 RMSDP=1.35D-06 MaxDP=7.19D-06 DE=-5.84D-09 OVMax= 8.92D-06

 Cycle   9  Pass 1  IDiag  3:
 E=-0.152928521632745     Delta-E=       -0.000000000296 Rises=F Damp=F
 DIIS: error= 7.28D-07 at cycle   9 NSaved=   9.
 NSaved= 9 IEnMin= 9 EnMin=-0.152928521632745     IErMin= 9 ErrMin= 7.28D-07
 ErrMax= 7.28D-07  0.00D+00 EMaxC= 1.00D-01 BMatC= 8.18D-12 BMatP= 5.83D-11
 IDIUse=1 WtCom= 1.00D+00 WtEn= 0.00D+00
 Coeff-Com: -0.282D-04 0.265D-04 0.269D-03-0.118D-02 0.242D-02-0.159D-01
 Coeff-Com:  0.875D-01-0.635D+00 0.156D+01
 Coeff:     -0.282D-04 0.265D-04 0.269D-03-0.118D-02 0.242D-02-0.159D-01
 Coeff:      0.875D-01-0.635D+00 0.156D+01
 Gap=     0.364 Goal=   None    Shift=    0.000
 RMSDP=6.66D-07 MaxDP=3.66D-06 DE=-2.96D-10 OVMax= 4.96D-06

 Cycle  10  Pass 1  IDiag  3:
 E=-0.152928521688338     Delta-E=       -0.000000000056 Rises=F Damp=F
 DIIS: error= 2.70D-07 at cycle  10 NSaved=  10.
 NSaved=10 IEnMin=10 EnMin=-0.152928521688338     IErMin=10 ErrMin= 2.70D-07
 ErrMax= 2.70D-07  0.00D+00 EMaxC= 1.00D-01 BMatC= 1.14D-12 BMatP= 8.18D-12
 IDIUse=1 WtCom= 1.00D+00 WtEn= 0.00D+00
 Coeff-Com:  0.158D-04-0.852D-05-0.280D-03 0.135D-02-0.290D-02 0.156D-01
 Coeff-Com: -0.717D-01 0.496D+00-0.154D+01 0.211D+01
 Coeff:      0.158D-04-0.852D-05-0.280D-03 0.135D-02-0.290D-02 0.156D-01
 Coeff:     -0.717D-01 0.496D+00-0.154D+01 0.211D+01
 Gap=     0.364 Goal=   None    Shift=    0.000
 RMSDP=3.80D-07 MaxDP=2.20D-06 DE=-5.56D-11 OVMax= 2.96D-06

 Cycle  11  Pass 1  IDiag  3:
 E=-0.152928521697717     Delta-E=       -0.000000000009 Rises=F Damp=F
 DIIS: error= 5.30D-08 at cycle  11 NSaved=  11.
 NSaved=11 IEnMin=11 EnMin=-0.152928521697717     IErMin=11 ErrMin= 5.30D-08
 ErrMax= 5.30D-08  0.00D+00 EMaxC= 1.00D-01 BMatC= 3.84D-14 BMatP= 1.14D-12
 IDIUse=1 WtCom= 1.00D+00 WtEn= 0.00D+00
 Coeff-Com:  0.183D-04-0.346D-04 0.242D-04 0.792D-04-0.294D-03-0.136D-02
 Coeff-Com:  0.965D-02-0.122D+00 0.522D+00-0.888D+00 0.148D+01
 Coeff:      0.183D-04-0.346D-04 0.242D-04 0.792D-04-0.294D-03-0.136D-02
 Coeff:      0.965D-02-0.122D+00 0.522D+00-0.888D+00 0.148D+01
 Gap=     0.364 Goal=   None    Shift=    0.000
 RMSDP=4.41D-08 MaxDP=3.20D-07 DE=-9.38D-12 OVMax= 2.94D-07

 Cycle  12  Pass 1  IDiag  3:
 E=-0.152928521697959     Delta-E=       -0.000000000000 Rises=F Damp=F
 DIIS: error= 6.62D-09 at cycle  12 NSaved=  12.
 NSaved=12 IEnMin=12 EnMin=-0.152928521697959     IErMin=12 ErrMin= 6.62D-09
 ErrMax= 6.62D-09  0.00D+00 EMaxC= 1.00D-01 BMatC= 1.18D-15 BMatP= 3.84D-14
 IDIUse=1 WtCom= 1.00D+00 WtEn= 0.00D+00
 Coeff-Com: -0.267D-05 0.498D-05-0.365D-05-0.122D-04 0.527D-04 0.435D-03
 Coeff-Com: -0.269D-02 0.280D-01-0.126D+00 0.222D+00-0.443D+00 0.132D+01
 Coeff:     -0.267D-05 0.498D-05-0.365D-05-0.122D-04 0.527D-04 0.435D-03
 Coeff:     -0.269D-02 0.280D-01-0.126D+00 0.222D+00-0.443D+00 0.132D+01
 Gap=     0.364 Goal=   None    Shift=    0.000
 RMSDP=8.27D-09 MaxDP=4.02D-08 DE=-2.42D-13 OVMax= 4.98D-08

 Cycle  13  Pass 2  IDiag  1:
 SCF Done:  E(RPM6) = -0.152928521698     A.U. after   13 cycles
            NFock= 12  Conv=0.83D-08     -V/T= 0.9974
 KE=-5.992123010065D+01 PE=-7.089036537670D+01 EE= 6.031589719141D+01
 Leave Link  502 at Wed Oct 21 14:29:19 2020, MaxMem=  2684354560 cpu:               9.2 elap:               1.5
 (Enter /udrive/faculty/rpeverati/g16/g16/l508.exe)
 QCSCF skips out because SCF is already converged.
 Leave Link  508 at Wed Oct 21 14:29:20 2020, MaxMem=  2684354560 cpu:               0.8 elap:               0.6
 (Enter /udrive/faculty/rpeverati/g16/g16/l601.exe)
 Copying SCF densities to generalized density rwf, IOpCl= 0 IROHF=0.

 **********************************************************************

            Population analysis using the SCF density.

 **********************************************************************

 Orbital symmetries:
       Occupied  (A) (A) (A) (A) (A) (A) (A) (A) (A) (A) (A)
       Virtual   (A) (A) (A) (A) (A)
 The electronic state is 1-A.
 Alpha  occ. eigenvalues --   -1.32568  -0.74121  -0.64298  -0.45385  -0.45242
 Alpha  occ. eigenvalues --   -0.41044  -0.31818  -0.31329  -0.23420  -0.09889
 Alpha  occ. eigenvalues --   -0.09877
 Alpha virt. eigenvalues --    0.26548   0.37860   0.38470   0.40985   0.50190
          Condensed to atoms (all electrons):
               1          2          3          4          5          6
     1  F    7.299453   0.000000   0.000000   0.000000   0.000000   0.000000
     2  C    0.000000   4.171267   0.000000   0.000000   0.000000   0.000000
     3  H    0.000000   0.000000   0.820696   0.000000   0.000000   0.000000
     4  H    0.000000   0.000000   0.000000   0.850536   0.000000   0.000000
     5  H    0.000000   0.000000   0.000000   0.000000   0.861856   0.000000
     6  O    0.000000   0.000000   0.000000   0.000000   0.000000   7.252391
     7  H    0.000000   0.000000   0.000000   0.000000   0.000000   0.000000
               7
     1  F    0.000000
     2  C    0.000000
     3  H    0.000000
     4  H    0.000000
     5  H    0.000000
     6  O    0.000000
     7  H    0.743802
 Mulliken charges:
               1
     1  F   -0.299453
     2  C   -0.171267
     3  H    0.179304
     4  H    0.149464
     5  H    0.138144
     6  O   -1.252391
     7  H    0.256198
 Sum of Mulliken charges =  -1.00000
 Mulliken charges with hydrogens summed into heavy atoms:
               1
     1  F   -0.299453
     2  C    0.295646
     6  O   -0.996193
 Charge=             -1.0000 electrons
 Dipole moment (field-independent basis, Debye):
    X=              6.2814    Y=              0.9584    Z=              0.0198  Tot=              6.3541
 N-N= 7.034276976424D+01 E-N=-7.089036540684D+01  KE=-5.992123010065D+01
 Leave Link  601 at Wed Oct 21 14:29:21 2020, MaxMem=  2684354560 cpu:               2.9 elap:               0.9
 (Enter /udrive/faculty/rpeverati/g16/g16/l701.exe)
 ... and contract with generalized density number  0.
 Compute integral first derivatives.
 Leave Link  701 at Wed Oct 21 14:29:22 2020, MaxMem=  2684354560 cpu:               4.1 elap:               0.9
 (Enter /udrive/faculty/rpeverati/g16/g16/l702.exe)
 L702 exits ... SP integral derivatives will be done elsewhere.
 Leave Link  702 at Wed Oct 21 14:29:23 2020, MaxMem=  2684354560 cpu:               2.3 elap:               0.8
 (Enter /udrive/faculty/rpeverati/g16/g16/l703.exe)
 Integral derivatives from FoFJK, PRISM(SPDF).
 Compute integral first derivatives, UseDBF=F ICtDFT=           0.
 Calling FoFJK, ICntrl=      2127 FMM=F ISym2X=0 I1Cent= 0 IOpClX= 0 NMat=1 NMatS=1 NMatT=0.
 FoFJK:  IHMeth=40 ICntrl=    2127 DoSepK=F KAlg= 0 I1Cent=           0 FoldK=F
 IRaf=         0 NMat=       1 IRICut=       1 DoRegI=T DoRafI=F ISym2E= 0 IDoP0=3 IntGTp=3.
 FoFCou: FMM=F IPFlag=           0 FMFlag=      100000 FMFlg1=         800
         NFxFlg=           0 DoJE=F BraDBF=F KetDBF=F FulRan=T
         wScrn=  0.000000 ICntrl=      2127 IOpCl=  0 I1Cent=           0 NGrid=           0
         NMat0=    1 NMatS0=      1 NMatT0=    0 NMatD0=    1 NMtDS0=    0 NMtDT0=    0
 Symmetry not used in FoFCou.
 Leave Link  703 at Wed Oct 21 14:29:25 2020, MaxMem=  2684354560 cpu:               3.3 elap:               0.9
 (Enter /udrive/faculty/rpeverati/g16/g16/l716.exe)
 Dipole        = 2.47127395D+00 3.77077862D-01 7.80720330D-03
 ***** Axes restored to original set *****
 -------------------------------------------------------------------
 Center     Atomic                   Forces (Hartrees/Bohr)
 Number     Number              X              Y              Z
 -------------------------------------------------------------------
      1        9          -0.024556000    0.002899248    0.000202489
      2        6           0.023265216    0.001364616    0.000198132
      3        1          -0.003316384   -0.007536014   -0.002698075
      4        1          -0.000767436    0.000035555    0.005268842
      5        1          -0.000027871    0.002971650   -0.002964914
      6        8          -0.027934878    0.009351340   -0.000035250
      7        1           0.033337353   -0.009086396    0.000028776
 -------------------------------------------------------------------
 Cartesian Forces:  Max     0.033337353 RMS     0.012606512
 Leave Link  716 at Wed Oct 21 14:29:26 2020, MaxMem=  2684354560 cpu:               2.5 elap:               0.8
 (Enter /udrive/faculty/rpeverati/g16/g16/l103.exe)

 GradGradGradGradGradGradGradGradGradGradGradGradGradGradGradGradGradGrad
 Berny optimization.
 Optmz: redundant internal coordinate code flag= 1
 FormGI is forming the generalized inverse of G from B-inverse, IUseBI=4.
 Internal  Forces:  Max     0.034553393 RMS     0.010536613
 Search for a local minimum.
 Step number   1 out of a maximum of  100
 All quantities printed in internal units (Hartrees-Bohrs-Radians)
 RMS Force = .10537D-01 SwitMx=.10000D-02 MixMth= 1
 Mixed Optimization -- RFO/linear search
 Second derivative matrix not updated -- first step.
 The second derivative matrix:
                          R1        R2        R3        R4        R5
           R1           0.42252
           R2           0.00000   0.35868
           R3           0.00000   0.00000   0.35727
           R4           0.00000   0.00000   0.00000   0.35629
           R5           0.00000   0.00000   0.00000   0.00000   0.02672
           R6           0.00000   0.00000   0.00000   0.00000   0.00000
           A1           0.00000   0.00000   0.00000   0.00000   0.00000
           A2           0.00000   0.00000   0.00000   0.00000   0.00000
           A3           0.00000   0.00000   0.00000   0.00000   0.00000
           A4           0.00000   0.00000   0.00000   0.00000   0.00000
           A5           0.00000   0.00000   0.00000   0.00000   0.00000
           A6           0.00000   0.00000   0.00000   0.00000   0.00000
           A7           0.00000   0.00000   0.00000   0.00000   0.00000
           A8           0.00000   0.00000   0.00000   0.00000   0.00000
           A9           0.00000   0.00000   0.00000   0.00000   0.00000
           D1           0.00000   0.00000   0.00000   0.00000   0.00000
           D2           0.00000   0.00000   0.00000   0.00000   0.00000
           D3           0.00000   0.00000   0.00000   0.00000   0.00000
                          R6        A1        A2        A3        A4
           R6           0.55454
           A1           0.00000   0.16000
           A2           0.00000   0.00000   0.16000
           A3           0.00000   0.00000   0.00000   0.16000
           A4           0.00000   0.00000   0.00000   0.00000   0.16000
           A5           0.00000   0.00000   0.00000   0.00000   0.00000
           A6           0.00000   0.00000   0.00000   0.00000   0.00000
           A7           0.00000   0.00000   0.00000   0.00000   0.00000
           A8           0.00000   0.00000   0.00000   0.00000   0.00000
           A9           0.00000   0.00000   0.00000   0.00000   0.00000
           D1           0.00000   0.00000   0.00000   0.00000   0.00000
           D2           0.00000   0.00000   0.00000   0.00000   0.00000
           D3           0.00000   0.00000   0.00000   0.00000   0.00000
                          A5        A6        A7        A8        A9
           A5           0.16000
           A6           0.00000   0.16000
           A7           0.00000   0.00000   0.25000
           A8           0.00000   0.00000   0.00000   0.01556
           A9           0.00000   0.00000   0.00000   0.00000   0.01556
           D1           0.00000   0.00000   0.00000   0.00000   0.00000
           D2           0.00000   0.00000   0.00000   0.00000   0.00000
           D3           0.00000   0.00000   0.00000   0.00000   0.00000
                          D1        D2        D3
           D1           0.00353
           D2           0.00000   0.00353
           D3           0.00000   0.00000   0.00353
 ITU=  0
 Eigenvectors of the second derivative matrix:
                           1         2         3         4         5
     Eigenvalues --     0.00353   0.01556   0.01556   0.02672   0.09881
   1         R1         0.00000   0.00000  -0.00000  -0.00000  -0.00000
   2         R2         0.00000   0.00000   0.00000   0.00000   0.00000
   3         R3         0.00000  -0.00000  -0.00000  -0.00000   0.00000
   4         R4        -0.00000  -0.00000   0.00000  -0.00000  -0.00000
   5         R5        -0.00000  -0.00000  -0.00000   1.00000   0.00000
   6         R6         0.00000   0.00000  -0.00000   0.00000   0.00000
   7         A1         0.00000   0.00000  -0.00000   0.00000   0.28675
   8         A2        -0.00000  -0.00000   0.00000  -0.00000   0.22801
   9         A3        -0.00000   0.00000   0.00000  -0.00000   0.34580
  10         A4         0.00000   0.00000  -0.00000   0.00000  -0.17509
  11         A5         0.00000  -0.00000   0.00000   0.00000  -0.11432
  12         A6         0.00000   0.00000  -0.00000   0.00000  -0.55804
  13         A7        -0.00000  -0.00000   0.00000  -0.00000   0.00000
  14         A8         0.00000   0.71649  -0.69760  -0.00000   0.00000
  15         A9        -0.00000   0.69760   0.71649   0.00000  -0.00000
  16         D1        -0.57735  -0.00000  -0.00000  -0.00000  -0.06133
  17         D2        -0.57735  -0.00000  -0.00000   0.00000  -0.40833
  18         D3        -0.57735  -0.00000  -0.00000  -0.00000   0.46966
                           6         7         8         9        10
     Eigenvalues --     0.09968   0.16000   0.16000   0.16000   0.25000
   1         R1        -0.00000  -0.00000   0.00000  -0.00000   0.00000
   2         R2        -0.00000  -0.00000   0.00000   0.00000  -0.00000
   3         R3        -0.00000  -0.00000   0.00000  -0.00000  -0.00000
   4         R4        -0.00000  -0.00000   0.00000  -0.00000  -0.00000
   5         R5        -0.00000   0.00000  -0.00000  -0.00000  -0.00000
   6         R6         0.00000   0.00000   0.00000  -0.00000  -0.00000
   7         A1        -0.03374   0.00308   0.80990  -0.20961  -0.00000
   8         A2        -0.52751  -0.25676  -0.42698  -0.22426   0.00000
   9         A3         0.45682   0.36266  -0.39875  -0.09769   0.00000
  10         A4        -0.22887   0.50971   0.04751   0.65626  -0.00000
  11         A5         0.26345  -0.72835  -0.01401   0.40538   0.00000
  12         A6         0.06804   0.11069  -0.01742  -0.54884  -0.00000
  13         A7         0.00000  -0.00000  -0.00000   0.00000  -1.00000
  14         A8        -0.00000  -0.00000  -0.00000   0.00000  -0.00000
  15         A9        -0.00000  -0.00000   0.00000  -0.00000   0.00000
  16         D1        -0.50328  -0.00000   0.00000   0.00000  -0.00000
  17         D2         0.30437  -0.00000   0.00000  -0.00000   0.00000
  18         D3         0.19890  -0.00000  -0.00000   0.00000   0.00000
                          11        12        13        14        15
     Eigenvalues --     0.35629   0.35727   0.35868   0.42252   0.55454
   1         R1         0.00000  -0.00000   0.00000  -1.00000  -0.00000
   2         R2         0.00000   0.00000  -1.00000  -0.00000   0.00000
   3         R3        -0.00000   1.00000   0.00000  -0.00000   0.00000
   4         R4        -1.00000  -0.00000  -0.00000  -0.00000  -0.00000
   5         R5        -0.00000   0.00000   0.00000   0.00000   0.00000
   6         R6        -0.00000   0.00000  -0.00000   0.00000  -1.00000
   7         A1         0.00000  -0.00000   0.00000   0.00000   0.00000
   8         A2        -0.00000  -0.00000  -0.00000  -0.00000  -0.00000
   9         A3        -0.00000   0.00000  -0.00000  -0.00000   0.00000
  10         A4        -0.00000   0.00000   0.00000  -0.00000   0.00000
  11         A5         0.00000  -0.00000   0.00000  -0.00000  -0.00000
  12         A6         0.00000   0.00000  -0.00000   0.00000  -0.00000
  13         A7         0.00000  -0.00000  -0.00000  -0.00000   0.00000
  14         A8         0.00000  -0.00000   0.00000   0.00000   0.00000
  15         A9        -0.00000   0.00000   0.00000   0.00000  -0.00000
  16         D1         0.00000  -0.00000   0.00000   0.00000  -0.00000
  17         D2         0.00000   0.00000  -0.00000   0.00000  -0.00000
  18         D3         0.00000  -0.00000  -0.00000  -0.00000  -0.00000
 Iter=   1 RLamda= 0.00000000D+00 Sum=-5.13880750D-03.
 Iter=   2 RLamda=-5.13880750D-03 Sum=-4.93856264D-03.
 Iter=   3 RLamda=-4.93856264D-03 Sum=-4.94541827D-03.
 Iter=   4 RLamda=-4.94541827D-03 Sum=-4.94518249D-03.
 Iter=   5 RLamda=-4.94518249D-03 Sum=-4.94519060D-03.
 RFO step:  Lambda=-4.94518249D-03 EMin= 3.53281448D-03
 Linear search not attempted -- first point.
 Iteration  1 RMS(Cart)=  0.07179180 RMS(Int)=  0.00032764
 Iteration  2 RMS(Cart)=  0.00061280 RMS(Int)=  0.00001574
 Iteration  3 RMS(Cart)=  0.00000024 RMS(Int)=  0.00001574
 ITry= 1 IFail=0 DXMaxC= 2.09D-01 DCOld= 1.00D+10 DXMaxT= 3.00D-01 DXLimC= 3.00D+00 Rises=F
 Variable       Old X    -DE/DX   Delta X   Delta X   Delta X     New X
                                 (Linear)    (Quad)   (Total)
    R1        2.68603  -0.02473   0.00000  -0.05784  -0.05784   2.62819
    R2        2.04288   0.00598   0.00000   0.01645   0.01645   2.05933
    R3        2.04511   0.00518   0.00000   0.01430   0.01430   2.05941
    R4        2.04666   0.00406   0.00000   0.01124   0.01124   2.05790
    R5        4.37067  -0.00499   0.00000  -0.15765  -0.15765   4.21302
    R6        1.81431  -0.03455   0.00000  -0.06176  -0.06176   1.75255
    A1        1.91696  -0.00102   0.00000  -0.00832  -0.00834   1.90862
    A2        1.89841  -0.00039   0.00000  -0.00507  -0.00510   1.89331
    A3        1.89013  -0.00030   0.00000  -0.00336  -0.00336   1.88677
    A4        1.91156  -0.00012   0.00000   0.00008   0.00004   1.91160
    A5        1.91870   0.00058   0.00000   0.00491   0.00488   1.92359
    A6        1.92786   0.00122   0.00000   0.01152   0.01149   1.93934
    A7        1.68776  -0.00918   0.00000  -0.03599  -0.03599   1.65177
    A8        3.14635  -0.00012   0.00000  -0.00595  -0.00595   3.14040
    A9        2.88525  -0.00004   0.00000  -0.00182  -0.00182   2.88343
    D1        3.07208  -0.00016   0.00000   0.00075   0.00077   3.07285
    D2        0.98823   0.00102   0.00000   0.01199   0.01200   1.00023
    D3       -1.13302  -0.00080   0.00000  -0.00548  -0.00550  -1.13852
         Item               Value     Threshold  Converged?
 Maximum Force            0.034553     0.000450     NO 
 RMS     Force            0.010537     0.000300     NO 
 Maximum Displacement     0.208781     0.001800     NO 
 RMS     Displacement     0.071712     0.001200     NO 
 Predicted change in Energy=-2.557650D-03
 Lowest energy point so far.  Saving SCF results.
 Largest change from initial coordinates is atom    7       0.111 Angstoms.
 GradGradGradGradGradGradGradGradGradGradGradGradGradGradGradGradGradGrad

 Leave Link  103 at Wed Oct 21 14:29:27 2020, MaxMem=  2684354560 cpu:               6.2 elap:               1.1
 (Enter /udrive/faculty/rpeverati/g16/g16/l202.exe)
                          Input orientation:                          
 ---------------------------------------------------------------------
 Center     Atomic      Atomic             Coordinates (Angstroms)
 Number     Number       Type             X           Y           Z
 ---------------------------------------------------------------------
      1          9           0        1.837453   -0.063934   -0.004485
      2          6           0        0.457008    0.104935    0.006115
      3          1           0       -0.020648   -0.801847   -0.364214
      4          1           0        0.139641    0.290922    1.031949
      5          1           0        0.214297    0.948298   -0.638661
      6          8           0       -2.096222   -0.073680   -0.000702
      7          1           0       -2.984887    0.191550   -0.004378
 ---------------------------------------------------------------------
                    Distance matrix (angstroms):
                    1          2          3          4          5
     1  F    0.000000
     2  C    1.390776   0.000000
     3  H    2.031369   1.089749   0.000000
     4  H    2.020566   1.089793   1.780199   0.000000
     5  H    2.015298   1.088994   1.787045   1.796846   0.000000
     6  O    3.933689   2.559479   2.229434   2.489655   2.605749
     7  H    4.829103   3.443000   3.146908   3.293406   3.348097
                    6          7
     6  O    0.000000
     7  H    0.927408   0.000000
 Stoichiometry    CH4FO(1-)
 Framework group  C1[X(CH4FO)]
 Deg. of freedom    15
 Full point group                 C1      NOp   1
 RotChk:  IX=0 Diff= 5.14D-02
 Largest Abelian subgroup         C1      NOp   1
 Largest concise Abelian subgroup C1      NOp   1
                         Standard orientation:                         
 ---------------------------------------------------------------------
 Center     Atomic      Atomic             Coordinates (Angstroms)
 Number     Number       Type             X           Y           Z
 ---------------------------------------------------------------------
      1          9           0        1.842577   -0.071056   -0.007197
      2          6           0        0.462487    0.100223    0.009297
      3          1           0       -0.016982   -0.791520   -0.393761
      4          1           0        0.145265    0.249543    1.041151
      5          1           0        0.221700    0.966930   -0.604500
      6          8           0       -2.091110   -0.072650   -0.004411
      7          1           0       -2.979216    0.194410    0.001392
 ---------------------------------------------------------------------
 Rotational constants (GHZ):         140.9665303           3.4319868           3.4239090
 Leave Link  202 at Wed Oct 21 14:29:28 2020, MaxMem=  2684354560 cpu:               2.3 elap:               0.7
 (Enter /udrive/faculty/rpeverati/g16/g16/l301.exe)
 Standard basis: VSTO-6G (5D, 7F)
 Ernie: Thresh=  0.10000D-02 Tol=  0.10000D-05 Strict=F.
  NNHCO=     0 NNPyr=     0 NCTC=     0               EPep=         0.000000000
    EC=        35.569675242  ECS=         1.024902134   EG=         0.057220397
   EHC=         0.000666906  EAt=       -33.643058334  AtH=         0.729466277
 EPDDG=         0.000000000  ECC=        36.652464679 EAtT=        34.372524611
 There are    16 symmetry adapted cartesian basis functions of A   symmetry.
 There are    16 symmetry adapted basis functions of A   symmetry.
    16 basis functions,    96 primitive gaussians,    16 cartesian basis functions
    11 alpha electrons       11 beta electrons
       nuclear repulsion energy        71.0249892907 Hartrees.
 IExCor=    0 DFT=F Ex=HF Corr=None ExCW=0 ScaHFX=  1.000000
 ScaDFX=  1.000000  1.000000  1.000000  1.000000 ScalE2=  1.000000  1.000000
 IRadAn=      5 IRanWt=     -1 IRanGd=            0 ICorTp=0 IEmpDi=  4
 Integral buffers will be    131072 words long.
 Regular integral format.
 Two-electron integral symmetry is turned off.
 Leave Link  301 at Wed Oct 21 14:29:29 2020, MaxMem=  2684354560 cpu:               5.2 elap:               1.1
 (Enter /udrive/faculty/rpeverati/g16/g16/l302.exe)
 Do NDO integrals.
 NPDir=0 NMtPBC=     1 NCelOv=     1 NCel=       1 NClECP=     1 NCelD=      1
         NCelK=      1 NCelE2=     1 NClLst=     1 CellRange=     0.0.
 One-electron integrals computed using PRISM.
 NBasis=    16 RedAO= F EigKep=  0.00D+00  NBF=    16
 NBsUse=    16 1.00D-04 EigRej=  0.00D+00 NBFU=    16
 Leave Link  302 at Wed Oct 21 14:29:31 2020, MaxMem=  2684354560 cpu:               3.7 elap:               1.0
 (Enter /udrive/faculty/rpeverati/g16/g16/l303.exe)
 DipDrv:  MaxL=1.
 Leave Link  303 at Wed Oct 21 14:29:32 2020, MaxMem=  2684354560 cpu:               2.8 elap:               0.9
 (Enter /udrive/faculty/rpeverati/g16/g16/l401.exe)
 Initial guess from the checkpoint file:  "MN_62_hoch3fcomp2_BH76_PM6_SE.chk"
 SCF N**3 symmetry information disabled.
 B after Tr=     0.000000    0.000000   -0.000000
         Rot=    0.999839   -0.017966    0.000046   -0.000284 Ang=  -2.06 deg.
 Guess basis will be translated and rotated to current coordinates.
 JPrj=0 DoOrth=T DoCkMO=T.
 Leave Link  401 at Wed Oct 21 14:29:33 2020, MaxMem=  2684354560 cpu:               2.9 elap:               0.8
 (Enter /udrive/faculty/rpeverati/g16/g16/l502.exe)
 Keep J ints in memory in canonical form, NReq=859789.
 FoFCou: FMM=F IPFlag=           0 FMFlag=           0 FMFlg1=           0
         NFxFlg=           0 DoJE=F BraDBF=F KetDBF=F FulRan=T
         wScrn=  0.000000 ICntrl=       600 IOpCl=  2 I1Cent=           0 NGrid=           0
         NMat0=    1 NMatS0=     34 NMatT0=    0 NMatD0=    1 NMtDS0=    0 NMtDT0=    0
 Symmetry not used in FoFCou.
 Two-electron integral symmetry not used.
 Closed shell SCF:
 Using DIIS extrapolation, IDIIS=  1040.
 Overlap will be assumed to be unity.
 NGot=  2684354560 LenX=  2684293466 LenY=  2684292584
 Requested convergence on RMS density matrix=1.00D-08 within 120 cycles.
 Requested convergence on MAX density matrix=1.00D-06.
 Requested convergence on             energy=1.00D-06.
 No special actions if energy rises.

 Cycle   1  Pass 1  IDiag  1:
 E=-0.155855848575698    
 DIIS: error= 4.20D-03 at cycle   1 NSaved=   1.
 NSaved= 1 IEnMin= 1 EnMin=-0.155855848575698     IErMin= 1 ErrMin= 4.20D-03
 ErrMax= 4.20D-03  0.00D+00 EMaxC= 1.00D-01 BMatC= 2.57D-04 BMatP= 2.57D-04
 IDIUse=3 WtCom= 9.58D-01 WtEn= 4.20D-02
 Coeff-Com:  0.100D+01
 Coeff-En:   0.100D+01
 Coeff:      0.100D+01
 GapD=    2.000 DampG=2.000 DampE=1.000 DampFc=2.0000 IDamp=-1.
 RMSDP=1.49D-03 MaxDP=7.69D-03              OVMax= 0.00D+00

 Cycle   2  Pass 1  IDiag  3:
 E=-0.156522042843676     Delta-E=       -0.000666194268 Rises=F Damp=F
 DIIS: error= 1.19D-03 at cycle   2 NSaved=   2.
 NSaved= 2 IEnMin= 2 EnMin=-0.156522042843676     IErMin= 2 ErrMin= 1.19D-03
 ErrMax= 1.19D-03  0.00D+00 EMaxC= 1.00D-01 BMatC= 2.37D-05 BMatP= 2.57D-04
 IDIUse=3 WtCom= 9.88D-01 WtEn= 1.19D-02
 Coeff-Com: -0.369D+00 0.137D+01
 Coeff-En:   0.000D+00 0.100D+01
 Coeff:     -0.364D+00 0.136D+01
 Gap=     0.383 Goal=   None    Shift=    0.000
 RMSDP=7.47D-04 MaxDP=4.26D-03 DE=-6.66D-04 OVMax= 4.58D-03

 Cycle   3  Pass 1  IDiag  3:
 E=-0.156613496704921     Delta-E=       -0.000091453861 Rises=F Damp=F
 DIIS: error= 3.33D-04 at cycle   3 NSaved=   3.
 NSaved= 3 IEnMin= 3 EnMin=-0.156613496704921     IErMin= 3 ErrMin= 3.33D-04
 ErrMax= 3.33D-04  0.00D+00 EMaxC= 1.00D-01 BMatC= 9.46D-07 BMatP= 2.37D-05
 IDIUse=3 WtCom= 9.97D-01 WtEn= 3.33D-03
 Coeff-Com:  0.198D+00-0.829D+00 0.163D+01
 Coeff-En:   0.000D+00 0.000D+00 0.100D+01
 Coeff:      0.197D+00-0.827D+00 0.163D+01
 Gap=     0.384 Goal=   None    Shift=    0.000
 RMSDP=2.21D-04 MaxDP=1.68D-03 DE=-9.15D-05 OVMax= 1.59D-03

 Cycle   4  Pass 1  IDiag  3:
 E=-0.156618509595361     Delta-E=       -0.000005012890 Rises=F Damp=F
 DIIS: error= 2.60D-05 at cycle   4 NSaved=   4.
 NSaved= 4 IEnMin= 4 EnMin=-0.156618509595361     IErMin= 4 ErrMin= 2.60D-05
 ErrMax= 2.60D-05  0.00D+00 EMaxC= 1.00D-01 BMatC= 1.21D-08 BMatP= 9.46D-07
 IDIUse=1 WtCom= 1.00D+00 WtEn= 0.00D+00
 Coeff-Com: -0.717D-01 0.302D+00-0.628D+00 0.140D+01
 Coeff:     -0.717D-01 0.302D+00-0.628D+00 0.140D+01
 Gap=     0.384 Goal=   None    Shift=    0.000
 RMSDP=1.98D-05 MaxDP=1.26D-04 DE=-5.01D-06 OVMax= 1.47D-04

 Cycle   5  Pass 1  IDiag  3:
 E=-0.156618570283825     Delta-E=       -0.000000060688 Rises=F Damp=F
 DIIS: error= 7.93D-06 at cycle   5 NSaved=   5.
 NSaved= 5 IEnMin= 5 EnMin=-0.156618570283825     IErMin= 5 ErrMin= 7.93D-06
 ErrMax= 7.93D-06  0.00D+00 EMaxC= 1.00D-01 BMatC= 1.31D-09 BMatP= 1.21D-08
 IDIUse=1 WtCom= 1.00D+00 WtEn= 0.00D+00
 Coeff-Com:  0.392D-01-0.165D+00 0.346D+00-0.976D+00 0.176D+01
 Coeff:      0.392D-01-0.165D+00 0.346D+00-0.976D+00 0.176D+01
 Gap=     0.384 Goal=   None    Shift=    0.000
 RMSDP=8.99D-06 MaxDP=5.04D-05 DE=-6.07D-08 OVMax= 5.91D-05

 Cycle   6  Pass 1  IDiag  3:
 E=-0.156618578827249     Delta-E=       -0.000000008543 Rises=F Damp=F
 DIIS: error= 1.52D-06 at cycle   6 NSaved=   6.
 NSaved= 6 IEnMin= 6 EnMin=-0.156618578827249     IErMin= 6 ErrMin= 1.52D-06
 ErrMax= 1.52D-06  0.00D+00 EMaxC= 1.00D-01 BMatC= 6.67D-11 BMatP= 1.31D-09
 IDIUse=1 WtCom= 1.00D+00 WtEn= 0.00D+00
 Coeff-Com: -0.138D-01 0.584D-01-0.122D+00 0.368D+00-0.841D+00 0.155D+01
 Coeff:     -0.138D-01 0.584D-01-0.122D+00 0.368D+00-0.841D+00 0.155D+01
 Gap=     0.384 Goal=   None    Shift=    0.000
 RMSDP=2.17D-06 MaxDP=1.19D-05 DE=-8.54D-09 OVMax= 1.20D-05

 Cycle   7  Pass 1  IDiag  3:
 E=-0.156618579261291     Delta-E=       -0.000000000434 Rises=F Damp=F
 DIIS: error= 3.19D-07 at cycle   7 NSaved=   7.
 NSaved= 7 IEnMin= 7 EnMin=-0.156618579261291     IErMin= 7 ErrMin= 3.19D-07
 ErrMax= 3.19D-07  0.00D+00 EMaxC= 1.00D-01 BMatC= 2.29D-12 BMatP= 6.67D-11
 IDIUse=1 WtCom= 1.00D+00 WtEn= 0.00D+00
 Coeff-Com:  0.398D-02-0.168D-01 0.347D-01-0.108D+00 0.257D+00-0.571D+00
 Coeff-Com:  0.140D+01
 Coeff:      0.398D-02-0.168D-01 0.347D-01-0.108D+00 0.257D+00-0.571D+00
 Coeff:      0.140D+01
 Gap=     0.384 Goal=   None    Shift=    0.000
 RMSDP=3.64D-07 MaxDP=1.76D-06 DE=-4.34D-10 OVMax= 2.68D-06

 Cycle   8  Pass 1  IDiag  3:
 E=-0.156618579276199     Delta-E=       -0.000000000015 Rises=F Damp=F
 DIIS: error= 1.20D-07 at cycle   8 NSaved=   8.
 NSaved= 8 IEnMin= 8 EnMin=-0.156618579276199     IErMin= 8 ErrMin= 1.20D-07
 ErrMax= 1.20D-07  0.00D+00 EMaxC= 1.00D-01 BMatC= 2.93D-13 BMatP= 2.29D-12
 IDIUse=1 WtCom= 1.00D+00 WtEn= 0.00D+00
 Coeff-Com: -0.953D-03 0.402D-02-0.811D-02 0.277D-01-0.705D-01 0.190D+00
 Coeff-Com: -0.793D+00 0.165D+01
 Coeff:     -0.953D-03 0.402D-02-0.811D-02 0.277D-01-0.705D-01 0.190D+00
 Coeff:     -0.793D+00 0.165D+01
 Gap=     0.384 Goal=   None    Shift=    0.000
 RMSDP=1.49D-07 MaxDP=7.53D-07 DE=-1.49D-11 OVMax= 1.21D-06

 Cycle   9  Pass 1  IDiag  3:
 E=-0.156618579278302     Delta-E=       -0.000000000002 Rises=F Damp=F
 DIIS: error= 4.45D-08 at cycle   9 NSaved=   9.
 NSaved= 9 IEnMin= 9 EnMin=-0.156618579278302     IErMin= 9 ErrMin= 4.45D-08
 ErrMax= 4.45D-08  0.00D+00 EMaxC= 1.00D-01 BMatC= 2.78D-14 BMatP= 2.93D-13
 IDIUse=1 WtCom= 1.00D+00 WtEn= 0.00D+00
 Coeff-Com:  0.153D-03-0.645D-03 0.120D-02-0.536D-02 0.153D-01-0.516D-01
 Coeff-Com:  0.308D+00-0.918D+00 0.165D+01
 Coeff:      0.153D-03-0.645D-03 0.120D-02-0.536D-02 0.153D-01-0.516D-01
 Coeff:      0.308D+00-0.918D+00 0.165D+01
 Gap=     0.384 Goal=   None    Shift=    0.000
 RMSDP=4.75D-08 MaxDP=2.97D-07 DE=-2.10D-12 OVMax= 3.41D-07

 Cycle  10  Pass 1  IDiag  3:
 E=-0.156618579278472     Delta-E=       -0.000000000000 Rises=F Damp=F
 DIIS: error= 9.20D-09 at cycle  10 NSaved=  10.
 NSaved=10 IEnMin=10 EnMin=-0.156618579278472     IErMin=10 ErrMin= 9.20D-09
 ErrMax= 9.20D-09  0.00D+00 EMaxC= 1.00D-01 BMatC= 1.67D-15 BMatP= 2.78D-14
 IDIUse=1 WtCom= 1.00D+00 WtEn= 0.00D+00
 Coeff-Com: -0.346D-04 0.146D-03-0.238D-03 0.154D-02-0.466D-02 0.176D-01
 Coeff-Com: -0.123D+00 0.410D+00-0.951D+00 0.165D+01
 Coeff:     -0.346D-04 0.146D-03-0.238D-03 0.154D-02-0.466D-02 0.176D-01
 Coeff:     -0.123D+00 0.410D+00-0.951D+00 0.165D+01
 Gap=     0.384 Goal=   None    Shift=    0.000
 RMSDP=1.16D-08 MaxDP=6.66D-08 DE=-1.71D-13 OVMax= 8.17D-08

 Cycle  11  Pass 1  IDiag  3:
 E=-0.156618579278558     Delta-E=       -0.000000000000 Rises=F Damp=F
 DIIS: error= 8.23D-10 at cycle  11 NSaved=  11.
 NSaved=11 IEnMin=11 EnMin=-0.156618579278558     IErMin=11 ErrMin= 8.23D-10
 ErrMax= 8.23D-10  0.00D+00 EMaxC= 1.00D-01 BMatC= 2.68D-17 BMatP= 1.67D-15
 IDIUse=1 WtCom= 1.00D+00 WtEn= 0.00D+00
 Coeff-Com:  0.197D-05-0.829D-05 0.560D-06-0.216D-03 0.757D-03-0.343D-02
 Coeff-Com:  0.286D-01-0.102D+00 0.258D+00-0.538D+00 0.136D+01
 Coeff:      0.197D-05-0.829D-05 0.560D-06-0.216D-03 0.757D-03-0.343D-02
 Coeff:      0.286D-01-0.102D+00 0.258D+00-0.538D+00 0.136D+01
 Gap=     0.384 Goal=   None    Shift=    0.000
 RMSDP=1.04D-09 MaxDP=4.60D-09 DE=-8.53D-14 OVMax= 7.18D-09

 Cycle  12  Pass 2  IDiag  1:
 SCF Done:  E(RPM6) = -0.156618579279     A.U. after   12 cycles
            NFock= 11  Conv=0.10D-08     -V/T= 0.9974
 KE=-5.994589968083D+01 PE=-7.223950891711D+01 EE= 6.100380072800D+01
 Leave Link  502 at Wed Oct 21 14:29:35 2020, MaxMem=  2684354560 cpu:               9.0 elap:               1.5
 (Enter /udrive/faculty/rpeverati/g16/g16/l508.exe)
 QCSCF skips out because SCF is already converged.
 Leave Link  508 at Wed Oct 21 14:29:36 2020, MaxMem=  2684354560 cpu:               0.8 elap:               0.7
 (Enter /udrive/faculty/rpeverati/g16/g16/l701.exe)
 ... and contract with generalized density number  0.
 Compute integral first derivatives.
 Leave Link  701 at Wed Oct 21 14:29:37 2020, MaxMem=  2684354560 cpu:               4.2 elap:               1.0
 (Enter /udrive/faculty/rpeverati/g16/g16/l702.exe)
 L702 exits ... SP integral derivatives will be done elsewhere.
 Leave Link  702 at Wed Oct 21 14:29:38 2020, MaxMem=  2684354560 cpu:               2.3 elap:               0.9
 (Enter /udrive/faculty/rpeverati/g16/g16/l703.exe)
 Integral derivatives from FoFJK, PRISM(SPDF).
 Compute integral first derivatives, UseDBF=F ICtDFT=           0.
 Calling FoFJK, ICntrl=      2127 FMM=F ISym2X=0 I1Cent= 0 IOpClX= 0 NMat=1 NMatS=1 NMatT=0.
 FoFJK:  IHMeth=40 ICntrl=    2127 DoSepK=F KAlg= 0 I1Cent=           0 FoldK=F
 IRaf=         0 NMat=       1 IRICut=       1 DoRegI=T DoRafI=F ISym2E= 0 IDoP0=3 IntGTp=3.
 FoFCou: FMM=F IPFlag=           0 FMFlag=      100000 FMFlg1=         800
         NFxFlg=           0 DoJE=F BraDBF=F KetDBF=F FulRan=T
         wScrn=  0.000000 ICntrl=      2127 IOpCl=  0 I1Cent=           0 NGrid=           0
         NMat0=    1 NMatS0=      1 NMatT0=    0 NMatD0=    1 NMtDS0=    0 NMtDT0=    0
 Symmetry not used in FoFCou.
 Leave Link  703 at Wed Oct 21 14:29:40 2020, MaxMem=  2684354560 cpu:               3.5 elap:               1.0
 (Enter /udrive/faculty/rpeverati/g16/g16/l716.exe)
 Dipole        = 2.34886370D+00 3.72791675D-01 1.83984256D-02
 ***** Axes restored to original set *****
 -------------------------------------------------------------------
 Center     Atomic                   Forces (Hartrees/Bohr)
 Number     Number              X              Y              Z
 -------------------------------------------------------------------
      1        9          -0.002084330    0.000257933    0.000017159
      2        6           0.004967386    0.002296241    0.000624916
      3        1          -0.003473924   -0.003557905   -0.001348671
      4        1          -0.001873511    0.000025691    0.001337532
      5        1          -0.001574858    0.000708403   -0.000666570
      6        8          -0.016983549    0.006450670    0.000016604
      7        1           0.021022786   -0.006181033    0.000019030
 -------------------------------------------------------------------
 Cartesian Forces:  Max     0.021022786 RMS     0.006474259
 Leave Link  716 at Wed Oct 21 14:29:41 2020, MaxMem=  2684354560 cpu:               2.2 elap:               0.8
 (Enter /udrive/faculty/rpeverati/g16/g16/l103.exe)

 GradGradGradGradGradGradGradGradGradGradGradGradGradGradGradGradGradGrad
 Berny optimization.
 Optmz: redundant internal coordinate code flag= 1
 Using GEDIIS/GDIIS optimizer.
 Red2BG:  D1=  6.54D-02 OD1=  6.43D-02 B2RMS=  0.00D+00 IAprox=0
 FormGI is forming the generalized inverse of G from B-inverse, IUseBI=4.
 Internal  Forces:  Max     0.021912335 RMS     0.005651860
 Search for a local minimum.
 Step number   2 out of a maximum of  100
 All quantities printed in internal units (Hartrees-Bohrs-Radians)
 RMS Force = .56519D-02 SwitMx=.10000D-02 MixMth= 1
 Mixed Optimization -- RFO/linear search
 Update second derivatives using D2CorX and points    1    2
 DE= -3.69D-03 DEPred=-2.56D-03 R= 1.44D+00
 TightC=F SS=  1.41D+00  RLast= 1.85D-01 DXNew= 5.0454D-01 5.5632D-01
 Trust test= 1.44D+00 RLast= 1.85D-01 DXMaxT set to 5.05D-01
 The second derivative matrix:
                          R1        R2        R3        R4        R5
           R1           0.49578
           R2           0.00355   0.35497
           R3          -0.00340  -0.00234   0.35620
           R4          -0.00378  -0.00169  -0.00067   0.35590
           R5          -0.00996   0.00365   0.00278   0.00211   0.02368
           R6          -0.06447   0.02743   0.02013   0.01517  -0.02373
           A1           0.01122  -0.00078  -0.00126  -0.00109  -0.00012
           A2           0.00850  -0.00070  -0.00102  -0.00087   0.00002
           A3           0.00878  -0.00088  -0.00114  -0.00096   0.00020
           A4          -0.01321   0.00177   0.00197   0.00161  -0.00077
           A5          -0.01209   0.00120   0.00156   0.00131  -0.00025
           A6          -0.00242  -0.00068  -0.00021  -0.00009   0.00093
           A7          -0.02989   0.00895   0.00722   0.00557  -0.00699
           A8          -0.00107   0.00019   0.00019   0.00015  -0.00012
           A9          -0.00013   0.00003   0.00003   0.00002  -0.00002
           D1           0.00101  -0.00014  -0.00015  -0.00012   0.00006
           D2          -0.01727   0.00230   0.00256   0.00211  -0.00099
           D3           0.01635  -0.00219  -0.00243  -0.00200   0.00094
                          R6        A1        A2        A3        A4
           R6           0.37082
           A1           0.00051   0.16127
           A2           0.00123   0.00093   0.16067
           A3           0.00259   0.00090   0.00065   0.16061
           A4          -0.00735  -0.00120  -0.00085  -0.00077   0.16088
           A5          -0.00338  -0.00125  -0.00089  -0.00085   0.00107
           A6           0.00658  -0.00056  -0.00044  -0.00048   0.00079
           A7          -0.05551  -0.00104  -0.00050  -0.00007  -0.00107
           A8          -0.00099  -0.00008  -0.00005  -0.00004   0.00004
           A9          -0.00020  -0.00001  -0.00000  -0.00000  -0.00000
           D1           0.00057   0.00009   0.00006   0.00006  -0.00007
           D2          -0.00947  -0.00158  -0.00111  -0.00101   0.00117
           D3           0.00905   0.00149   0.00105   0.00095  -0.00110
                          A5        A6        A7        A8        A9
           A5           0.16118
           A6           0.00066   0.16000
           A7           0.00016   0.00250   0.23436
           A8           0.00006   0.00007  -0.00022   0.01556
           A9           0.00000   0.00001  -0.00005  -0.00000   0.01556
           D1          -0.00008  -0.00006   0.00009  -0.00000   0.00000
           D2           0.00141   0.00103  -0.00134   0.00005  -0.00000
           D3          -0.00133  -0.00097   0.00130  -0.00005   0.00000
                          D1        D2        D3
           D1           0.00354
           D2          -0.00009   0.00507
           D3           0.00008  -0.00145   0.00490
 ITU=  1  0
 Use linear search instead of GDIIS.
 Eigenvectors of the second derivative matrix:
                           1         2         3         4         5
     Eigenvalues --     0.00353   0.01554   0.01556   0.02056   0.10018
   1         R1         0.00021  -0.00491  -0.00022   0.03887  -0.02467
   2         R2        -0.00010   0.00206   0.00005  -0.02063   0.00683
   3         R3        -0.00007   0.00159   0.00005  -0.01504   0.00613
   4         R4        -0.00006   0.00122   0.00004  -0.01133   0.00486
   5         R5         0.00132  -0.05232  -0.00086   0.99095   0.01642
   6         R6         0.00043  -0.00849  -0.00015   0.08822  -0.02185
   7         A1        -0.00003   0.00031  -0.00006  -0.00995   0.08492
   8         A2        -0.00004   0.00055  -0.00005  -0.01159  -0.39069
   9         A3        -0.00005   0.00073  -0.00004  -0.01320   0.56068
  10         A4         0.00007  -0.00123   0.00003   0.01830  -0.27881
  11         A5         0.00004  -0.00056   0.00005   0.01134   0.19234
  12         A6         0.00000   0.00025   0.00007   0.00400  -0.16364
  13         A7         0.00029  -0.00572  -0.00008   0.06246  -0.01678
  14         A8         0.00010  -0.97686  -0.20729  -0.05238   0.00024
  15         A9         0.00002  -0.20704   0.97828  -0.01020   0.00009
  16         D1        -0.57734  -0.00031  -0.00001   0.00288  -0.48157
  17         D2        -0.57731  -0.00044   0.00007   0.01204   0.10900
  18         D3        -0.57740   0.00043  -0.00007  -0.01254   0.37250
                           6         7         8         9        10
     Eigenvalues --     0.10217   0.15808   0.16000   0.16022   0.20550
   1         R1        -0.07745   0.07769  -0.00000  -0.02869   0.14784
   2         R2         0.01747  -0.03448   0.00000   0.00845  -0.11714
   3         R3         0.01702  -0.02708   0.00000   0.00759  -0.08190
   4         R4         0.01370  -0.02082   0.00000   0.00602  -0.06110
   5         R5         0.03540  -0.04281   0.00000   0.00861  -0.09161
   6         R6        -0.05061   0.11149  -0.00000  -0.02397   0.35880
   7         A1         0.26264   0.01581   0.46008   0.70253   0.04775
   8         A2         0.43055  -0.33284  -0.00272  -0.41685   0.06677
   9         A3         0.12746  -0.16120  -0.50806  -0.09485   0.05442
  10         A4        -0.06148   0.66230  -0.45606   0.15815  -0.13627
  11         A5        -0.19839   0.32450   0.56502  -0.51462  -0.09321
  12         A6        -0.53595  -0.52624  -0.05439   0.17731   0.06643
  13         A7        -0.03446   0.13934  -0.00000  -0.02672   0.87926
  14         A8        -0.00002  -0.00142  -0.00000   0.00014  -0.00404
  15         A9         0.00015  -0.00031  -0.00000   0.00005  -0.00075
  16         D1         0.14887  -0.00292  -0.00000   0.00082  -0.00351
  17         D2        -0.49521  -0.00168  -0.00000  -0.00578  -0.03215
  18         D3         0.34619   0.00484   0.00000   0.00491   0.03621
                          11        12        13        14        15
     Eigenvalues --     0.33840   0.35655   0.35790   0.39233   0.52655
   1         R1        -0.09546  -0.02189   0.04572   0.33977  -0.91434
   2         R2         0.62771   0.15814  -0.59898   0.45220   0.04408
   3         R3         0.40992   0.41107   0.76181   0.26502   0.06590
   4         R4         0.30745  -0.89745   0.24213   0.18368   0.05614
   5         R5         0.04127   0.00072  -0.00075  -0.04190   0.00031
   6         R6        -0.44507  -0.00978   0.01129   0.70672   0.38680
   7         A1        -0.02241   0.00028  -0.00102   0.02094  -0.02788
   8         A2        -0.02293   0.00008  -0.00060   0.02146  -0.02049
   9         A3        -0.02100   0.00008  -0.00056   0.01982  -0.01889
  10         A4         0.03836   0.00002   0.00067  -0.03520   0.02574
  11         A5         0.02982  -0.00017   0.00091  -0.02731   0.02753
  12         A6        -0.00405  -0.00027   0.00052   0.00236   0.01178
  13         A7         0.36038   0.00471  -0.00402  -0.26622   0.02404
  14         A8         0.00221   0.00001   0.00001  -0.00224   0.00122
  15         A9         0.00037   0.00000  -0.00000  -0.00038   0.00010
  16         D1         0.00092   0.00004  -0.00006  -0.00090  -0.00090
  17         D2         0.01937  -0.00024   0.00088  -0.01856   0.02536
  18         D3        -0.02055   0.00020  -0.00081   0.01973  -0.02450
 Iter=   1 RLamda= 0.00000000D+00 Sum=-1.49228017D-03.
 Iter=   2 RLamda=-1.49228017D-03 Sum=-1.46946153D-03.
 Iter=   3 RLamda=-1.46946153D-03 Sum=-1.46979401D-03.
 Iter=   4 RLamda=-1.46979401D-03 Sum=-1.46978916D-03.
 RFO step:  Lambda=-1.46979401D-03 EMin= 3.53269765D-03
 Quartic linear search produced a step of  0.79475.
 Iteration  1 RMS(Cart)=  0.11044425 RMS(Int)=  0.00431555
 Iteration  2 RMS(Cart)=  0.00457205 RMS(Int)=  0.00015021
 Iteration  3 RMS(Cart)=  0.00000263 RMS(Int)=  0.00015019
 Iteration  4 RMS(Cart)=  0.00000000 RMS(Int)=  0.00015019
 ITry= 1 IFail=0 DXMaxC= 3.22D-01 DCOld= 1.00D+10 DXMaxT= 5.05D-01 DXLimC= 3.00D+00 Rises=F
 Variable       Old X    -DE/DX   Delta X   Delta X   Delta X     New X
                                 (Linear)    (Quad)   (Total)
    R1        2.62819  -0.00210  -0.04597   0.02018  -0.02579   2.60240
    R2        2.05933   0.00294   0.01307   0.00625   0.01932   2.07864
    R3        2.05941   0.00181   0.01137   0.00175   0.01312   2.07253
    R4        2.05790   0.00129   0.00894   0.00075   0.00968   2.06758
    R5        4.21302  -0.00367  -0.12529  -0.08911  -0.21441   3.99861
    R6        1.75255  -0.02191  -0.04908  -0.03981  -0.08889   1.66366
    A1        1.90862   0.00103  -0.00663   0.02091   0.01426   1.92288
    A2        1.89331   0.00106  -0.00405   0.01911   0.01504   1.90835
    A3        1.88677   0.00101  -0.00267   0.01834   0.01564   1.90241
    A4        1.91160  -0.00163   0.00004  -0.02073  -0.02089   1.89071
    A5        1.92359  -0.00125   0.00388  -0.01880  -0.01512   1.90846
    A6        1.93934  -0.00013   0.00913  -0.01699  -0.00825   1.93110
    A7        1.65177  -0.00733  -0.02860  -0.03329  -0.06190   1.58987
    A8        3.14040  -0.00019  -0.00473  -0.01276  -0.01749   3.12291
    A9        2.88343  -0.00004  -0.00145  -0.00160  -0.00304   2.88039
    D1        3.07285  -0.00004   0.00061  -0.00060   0.00000   3.07285
    D2        1.00023  -0.00098   0.00953  -0.02399  -0.01416   0.98607
    D3       -1.13852   0.00108  -0.00437   0.02334   0.01867  -1.11985
         Item               Value     Threshold  Converged?
 Maximum Force            0.021912     0.000450     NO 
 RMS     Force            0.005652     0.000300     NO 
 Maximum Displacement     0.322076     0.001800     NO 
 RMS     Displacement     0.113386     0.001200     NO 
 Predicted change in Energy=-1.950184D-03
 Lowest energy point so far.  Saving SCF results.
 Largest change from initial coordinates is atom    7       0.291 Angstoms.
 GradGradGradGradGradGradGradGradGradGradGradGradGradGradGradGradGradGrad

 Leave Link  103 at Wed Oct 21 14:29:42 2020, MaxMem=  2684354560 cpu:               6.6 elap:               1.2
 (Enter /udrive/faculty/rpeverati/g16/g16/l202.exe)
                          Input orientation:                          
 ---------------------------------------------------------------------
 Center     Atomic      Atomic             Coordinates (Angstroms)
 Number     Number       Type             X           Y           Z
 ---------------------------------------------------------------------
      1          9           0        1.785680   -0.025012    0.006519
      2          6           0        0.413858    0.095719    0.002448
      3          1           0       -0.047298   -0.829975   -0.372201
      4          1           0        0.061245    0.266651    1.026789
      5          1           0        0.131603    0.929843   -0.646905
      6          8           0       -1.983995   -0.066580    0.006981
      7          1           0       -2.814451    0.225597    0.001991
 ---------------------------------------------------------------------
                    Distance matrix (angstroms):
                    1          2          3          4          5
     1  F    0.000000
     2  C    1.377130   0.000000
     3  H    2.037450   1.099971   0.000000
     4  H    2.024770   1.096735   1.780882   0.000000
     5  H    2.018583   1.094117   1.790092   1.801672   0.000000
     6  O    3.769904   2.403343   2.115974   2.309557   2.428206
     7  H    4.606955   3.230921   2.985195   3.053117   3.097784
                    6          7
     6  O    0.000000
     7  H    0.880370   0.000000
 Stoichiometry    CH4FO(1-)
 Framework group  C1[X(CH4FO)]
 Deg. of freedom    15
 Full point group                 C1      NOp   1
 RotChk:  IX=0 Diff= 1.68D-01
 Largest Abelian subgroup         C1      NOp   1
 Largest concise Abelian subgroup C1      NOp   1
                         Standard orientation:                         
 ---------------------------------------------------------------------
 Center     Atomic      Atomic             Coordinates (Angstroms)
 Number     Number       Type             X           Y           Z
 ---------------------------------------------------------------------
      1          9           0        1.784886   -0.051313   -0.006338
      2          6           0        0.413874    0.077385    0.009414
      3          1           0       -0.053194   -0.776493   -0.503107
      4          1           0        0.062214    0.090573    1.048157
      5          1           0        0.137113    1.003455   -0.503313
      6          8           0       -1.984978   -0.068310   -0.009112
      7          1           0       -2.813529    0.226455    0.031712
 ---------------------------------------------------------------------
 Rotational constants (GHZ):         144.7050487           3.7479060           3.7409642
 Leave Link  202 at Wed Oct 21 14:29:43 2020, MaxMem=  2684354560 cpu:               2.0 elap:               0.8
 (Enter /udrive/faculty/rpeverati/g16/g16/l301.exe)
 Standard basis: VSTO-6G (5D, 7F)
 Ernie: Thresh=  0.10000D-02 Tol=  0.10000D-05 Strict=F.
  NNHCO=     0 NNPyr=     0 NCTC=     0               EPep=         0.000000000
    EC=        36.382944049  ECS=         1.065666222   EG=         0.057481962
   EHC=         0.001088424  EAt=       -33.643058334  AtH=         0.729466277
 EPDDG=         0.000000000  ECC=        37.507180657 EAtT=        34.372524611
 There are    16 symmetry adapted cartesian basis functions of A   symmetry.
 There are    16 symmetry adapted basis functions of A   symmetry.
    16 basis functions,    96 primitive gaussians,    16 cartesian basis functions
    11 alpha electrons       11 beta electrons
       nuclear repulsion energy        71.8797052683 Hartrees.
 IExCor=    0 DFT=F Ex=HF Corr=None ExCW=0 ScaHFX=  1.000000
 ScaDFX=  1.000000  1.000000  1.000000  1.000000 ScalE2=  1.000000  1.000000
 IRadAn=      5 IRanWt=     -1 IRanGd=            0 ICorTp=0 IEmpDi=  4
 Integral buffers will be    131072 words long.
 Regular integral format.
 Two-electron integral symmetry is turned off.
 Leave Link  301 at Wed Oct 21 14:29:45 2020, MaxMem=  2684354560 cpu:               5.2 elap:               1.1
 (Enter /udrive/faculty/rpeverati/g16/g16/l302.exe)
 Do NDO integrals.
 NPDir=0 NMtPBC=     1 NCelOv=     1 NCel=       1 NClECP=     1 NCelD=      1
         NCelK=      1 NCelE2=     1 NClLst=     1 CellRange=     0.0.
 One-electron integrals computed using PRISM.
 NBasis=    16 RedAO= F EigKep=  0.00D+00  NBF=    16
 NBsUse=    16 1.00D-04 EigRej=  0.00D+00 NBFU=    16
 Leave Link  302 at Wed Oct 21 14:29:46 2020, MaxMem=  2684354560 cpu:               3.8 elap:               1.0
 (Enter /udrive/faculty/rpeverati/g16/g16/l303.exe)
 DipDrv:  MaxL=1.
 Leave Link  303 at Wed Oct 21 14:29:47 2020, MaxMem=  2684354560 cpu:               3.2 elap:               0.9
 (Enter /udrive/faculty/rpeverati/g16/g16/l401.exe)
 Initial guess from the checkpoint file:  "MN_62_hoch3fcomp2_BH76_PM6_SE.chk"
 SCF N**3 symmetry information disabled.
 B after Tr=    -0.000000   -0.000000    0.000000
         Rot=    0.998332   -0.057718    0.000355   -0.001189 Ang=  -6.62 deg.
 Guess basis will be translated and rotated to current coordinates.
 JPrj=0 DoOrth=T DoCkMO=T.
 Leave Link  401 at Wed Oct 21 14:29:49 2020, MaxMem=  2684354560 cpu:               3.2 elap:               0.9
 (Enter /udrive/faculty/rpeverati/g16/g16/l502.exe)
 Keep J ints in memory in canonical form, NReq=859789.
 FoFCou: FMM=F IPFlag=           0 FMFlag=           0 FMFlg1=           0
         NFxFlg=           0 DoJE=F BraDBF=F KetDBF=F FulRan=T
         wScrn=  0.000000 ICntrl=       600 IOpCl=  2 I1Cent=           0 NGrid=           0
         NMat0=    1 NMatS0=     34 NMatT0=    0 NMatD0=    1 NMtDS0=    0 NMtDT0=    0
 Symmetry not used in FoFCou.
 Two-electron integral symmetry not used.
 Closed shell SCF:
 Using DIIS extrapolation, IDIIS=  1040.
 Overlap will be assumed to be unity.
 NGot=  2684354560 LenX=  2684293466 LenY=  2684292584
 Requested convergence on RMS density matrix=1.00D-08 within 120 cycles.
 Requested convergence on MAX density matrix=1.00D-06.
 Requested convergence on             energy=1.00D-06.
 No special actions if energy rises.

 Cycle   1  Pass 1  IDiag  1:
 E=-0.155896832057735    
 DIIS: error= 6.59D-03 at cycle   1 NSaved=   1.
 NSaved= 1 IEnMin= 1 EnMin=-0.155896832057735     IErMin= 1 ErrMin= 6.59D-03
 ErrMax= 6.59D-03  0.00D+00 EMaxC= 1.00D-01 BMatC= 6.79D-04 BMatP= 6.79D-04
 IDIUse=3 WtCom= 9.34D-01 WtEn= 6.59D-02
 Coeff-Com:  0.100D+01
 Coeff-En:   0.100D+01
 Coeff:      0.100D+01
 GapD=    2.000 DampG=2.000 DampE=1.000 DampFc=2.0000 IDamp=-1.
 RMSDP=2.85D-03 MaxDP=1.17D-02              OVMax= 0.00D+00

 Cycle   2  Pass 1  IDiag  3:
 E=-0.158084509419538     Delta-E=       -0.002187677362 Rises=F Damp=F
 DIIS: error= 1.89D-03 at cycle   2 NSaved=   2.
 NSaved= 2 IEnMin= 2 EnMin=-0.158084509419538     IErMin= 2 ErrMin= 1.89D-03
 ErrMax= 1.89D-03  0.00D+00 EMaxC= 1.00D-01 BMatC= 8.84D-05 BMatP= 6.79D-04
 IDIUse=3 WtCom= 9.81D-01 WtEn= 1.89D-02
 Coeff-Com: -0.466D+00 0.147D+01
 Coeff-En:   0.000D+00 0.100D+01
 Coeff:     -0.457D+00 0.146D+01
 Gap=     0.405 Goal=   None    Shift=    0.000
 RMSDP=1.68D-03 MaxDP=8.09D-03 DE=-2.19D-03 OVMax= 7.65D-03

 Cycle   3  Pass 1  IDiag  3:
 E=-0.158489618473155     Delta-E=       -0.000405109054 Rises=F Damp=F
 DIIS: error= 5.40D-04 at cycle   3 NSaved=   3.
 NSaved= 3 IEnMin= 3 EnMin=-0.158489618473155     IErMin= 3 ErrMin= 5.40D-04
 ErrMax= 5.40D-04  0.00D+00 EMaxC= 1.00D-01 BMatC= 3.72D-06 BMatP= 8.84D-05
 IDIUse=3 WtCom= 9.95D-01 WtEn= 5.40D-03
 Coeff-Com:  0.206D+00-0.769D+00 0.156D+01
 Coeff-En:   0.000D+00 0.000D+00 0.100D+01
 Coeff:      0.205D+00-0.764D+00 0.156D+01
 Gap=     0.406 Goal=   None    Shift=    0.000
 RMSDP=4.19D-04 MaxDP=2.51D-03 DE=-4.05D-04 OVMax= 2.84D-03

 Cycle   4  Pass 1  IDiag  3:
 E=-0.158509075069972     Delta-E=       -0.000019456597 Rises=F Damp=F
 DIIS: error= 1.07D-04 at cycle   4 NSaved=   4.
 NSaved= 4 IEnMin= 4 EnMin=-0.158509075069972     IErMin= 4 ErrMin= 1.07D-04
 ErrMax= 1.07D-04  0.00D+00 EMaxC= 1.00D-01 BMatC= 1.36D-07 BMatP= 3.72D-06
 IDIUse=3 WtCom= 9.99D-01 WtEn= 1.07D-03
 Coeff-Com: -0.124D+00 0.468D+00-0.102D+01 0.167D+01
 Coeff-En:   0.000D+00 0.000D+00 0.000D+00 0.100D+01
 Coeff:     -0.124D+00 0.468D+00-0.102D+01 0.167D+01
 Gap=     0.406 Goal=   None    Shift=    0.000
 RMSDP=8.27D-05 MaxDP=5.29D-04 DE=-1.95D-05 OVMax= 6.86D-04

 Cycle   5  Pass 1  IDiag  3:
 E=-0.158509957384794     Delta-E=       -0.000000882315 Rises=F Damp=F
 DIIS: error= 3.53D-05 at cycle   5 NSaved=   5.
 NSaved= 5 IEnMin= 5 EnMin=-0.158509957384794     IErMin= 5 ErrMin= 3.53D-05
 ErrMax= 3.53D-05  0.00D+00 EMaxC= 1.00D-01 BMatC= 1.50D-08 BMatP= 1.36D-07
 IDIUse=1 WtCom= 1.00D+00 WtEn= 0.00D+00
 Coeff-Com:  0.634D-01-0.239D+00 0.529D+00-0.116D+01 0.181D+01
 Coeff:      0.634D-01-0.239D+00 0.529D+00-0.116D+01 0.181D+01
 Gap=     0.406 Goal=   None    Shift=    0.000
 RMSDP=3.85D-05 MaxDP=2.48D-04 DE=-8.82D-07 OVMax= 2.90D-04

 Cycle   6  Pass 1  IDiag  3:
 E=-0.158510074870677     Delta-E=       -0.000000117486 Rises=F Damp=F
 DIIS: error= 3.87D-06 at cycle   6 NSaved=   6.
 NSaved= 6 IEnMin= 6 EnMin=-0.158510074870677     IErMin= 6 ErrMin= 3.87D-06
 ErrMax= 3.87D-06  0.00D+00 EMaxC= 1.00D-01 BMatC= 5.05D-10 BMatP= 1.50D-08
 IDIUse=1 WtCom= 1.00D+00 WtEn= 0.00D+00
 Coeff-Com: -0.168D-01 0.635D-01-0.142D+00 0.357D+00-0.717D+00 0.145D+01
 Coeff:     -0.168D-01 0.635D-01-0.142D+00 0.357D+00-0.717D+00 0.145D+01
 Gap=     0.406 Goal=   None    Shift=    0.000
 RMSDP=6.20D-06 MaxDP=3.13D-05 DE=-1.17D-07 OVMax= 5.33D-05

 Cycle   7  Pass 1  IDiag  3:
 E=-0.158510078330707     Delta-E=       -0.000000003460 Rises=F Damp=F
 DIIS: error= 9.95D-07 at cycle   7 NSaved=   7.
 NSaved= 7 IEnMin= 7 EnMin=-0.158510078330707     IErMin= 7 ErrMin= 9.95D-07
 ErrMax= 9.95D-07  0.00D+00 EMaxC= 1.00D-01 BMatC= 2.65D-11 BMatP= 5.05D-10
 IDIUse=1 WtCom= 1.00D+00 WtEn= 0.00D+00
 Coeff-Com:  0.423D-02-0.159D-01 0.353D-01-0.970D-01 0.212D+00-0.573D+00
 Coeff-Com:  0.143D+01
 Coeff:      0.423D-02-0.159D-01 0.353D-01-0.970D-01 0.212D+00-0.573D+00
 Coeff:      0.143D+01
 Gap=     0.406 Goal=   None    Shift=    0.000
 RMSDP=1.25D-06 MaxDP=4.34D-06 DE=-3.46D-09 OVMax= 8.15D-06

 Cycle   8  Pass 1  IDiag  3:
 E=-0.158510078496349     Delta-E=       -0.000000000166 Rises=F Damp=F
 DIIS: error= 3.68D-07 at cycle   8 NSaved=   8.
 NSaved= 8 IEnMin= 8 EnMin=-0.158510078496349     IErMin= 8 ErrMin= 3.68D-07
 ErrMax= 3.68D-07  0.00D+00 EMaxC= 1.00D-01 BMatC= 1.94D-12 BMatP= 2.65D-11
 IDIUse=1 WtCom= 1.00D+00 WtEn= 0.00D+00
 Coeff-Com: -0.519D-03 0.191D-02-0.429D-02 0.164D-01-0.438D-01 0.157D+00
 Coeff-Com: -0.654D+00 0.153D+01
 Coeff:     -0.519D-03 0.191D-02-0.429D-02 0.164D-01-0.438D-01 0.157D+00
 Coeff:     -0.654D+00 0.153D+01
 Gap=     0.406 Goal=   None    Shift=    0.000
 RMSDP=3.48D-07 MaxDP=1.84D-06 DE=-1.66D-10 OVMax= 1.83D-06

 Cycle   9  Pass 1  IDiag  3:
 E=-0.158510078508485     Delta-E=       -0.000000000012 Rises=F Damp=F
 DIIS: error= 8.00D-08 at cycle   9 NSaved=   9.
 NSaved= 9 IEnMin= 9 EnMin=-0.158510078508485     IErMin= 9 ErrMin= 8.00D-08
 ErrMax= 8.00D-08  0.00D+00 EMaxC= 1.00D-01 BMatC= 1.27D-13 BMatP= 1.94D-12
 IDIUse=1 WtCom= 1.00D+00 WtEn= 0.00D+00
 Coeff-Com: -0.229D-04 0.111D-03-0.227D-03-0.246D-02 0.107D-01-0.540D-01
 Coeff-Com:  0.295D+00-0.883D+00 0.163D+01
 Coeff:     -0.229D-04 0.111D-03-0.227D-03-0.246D-02 0.107D-01-0.540D-01
 Coeff:      0.295D+00-0.883D+00 0.163D+01
 Gap=     0.406 Goal=   None    Shift=    0.000
 RMSDP=8.65D-08 MaxDP=5.00D-07 DE=-1.21D-11 OVMax= 5.59D-07

 Cycle  10  Pass 1  IDiag  3:
 E=-0.158510078509238     Delta-E=       -0.000000000001 Rises=F Damp=F
 DIIS: error= 1.58D-08 at cycle  10 NSaved=  10.
 NSaved=10 IEnMin=10 EnMin=-0.158510078509238     IErMin=10 ErrMin= 1.58D-08
 ErrMax= 1.58D-08  0.00D+00 EMaxC= 1.00D-01 BMatC= 6.79D-15 BMatP= 1.27D-13
 IDIUse=1 WtCom= 1.00D+00 WtEn= 0.00D+00
 Coeff-Com: -0.216D-05-0.550D-06-0.154D-05 0.913D-03-0.352D-02 0.166D-01
 Coeff-Com: -0.923D-01 0.290D+00-0.725D+00 0.151D+01
 Coeff:     -0.216D-05-0.550D-06-0.154D-05 0.913D-03-0.352D-02 0.166D-01
 Coeff:     -0.923D-01 0.290D+00-0.725D+00 0.151D+01
 Gap=     0.406 Goal=   None    Shift=    0.000
 RMSDP=2.13D-08 MaxDP=1.22D-07 DE=-7.53D-13 OVMax= 1.12D-07

 Cycle  11  Pass 1  IDiag  3:
 E=-0.158510078509224     Delta-E=        0.000000000000 Rises=F Damp=F
 DIIS: error= 2.32D-09 at cycle  11 NSaved=  11.
 NSaved=11 IEnMin=10 EnMin=-0.158510078509238     IErMin=11 ErrMin= 2.32D-09
 ErrMax= 2.32D-09  0.00D+00 EMaxC= 1.00D-01 BMatC= 1.57D-16 BMatP= 6.79D-15
 IDIUse=1 WtCom= 1.00D+00 WtEn= 0.00D+00
 Coeff-Com:  0.276D-05-0.743D-05 0.173D-04-0.345D-03 0.124D-02-0.563D-02
 Coeff-Com:  0.312D-01-0.995D-01 0.264D+00-0.651D+00 0.146D+01
 Coeff:      0.276D-05-0.743D-05 0.173D-04-0.345D-03 0.124D-02-0.563D-02
 Coeff:      0.312D-01-0.995D-01 0.264D+00-0.651D+00 0.146D+01
 Gap=     0.406 Goal=   None    Shift=    0.000
 RMSDP=2.80D-09 MaxDP=1.33D-08 DE= 1.42D-14 OVMax= 1.35D-08

 Cycle  12  Pass 2  IDiag  1:
 SCF Done:  E(RPM6) = -0.158510078509     A.U. after   12 cycles
            NFock= 11  Conv=0.28D-08     -V/T= 0.9974
 KE=-5.999085788001D+01 PE=-7.394331561829D+01 EE= 6.189595815146D+01
 Leave Link  502 at Wed Oct 21 14:29:50 2020, MaxMem=  2684354560 cpu:               9.1 elap:               1.4
 (Enter /udrive/faculty/rpeverati/g16/g16/l508.exe)
 QCSCF skips out because SCF is already converged.
 Leave Link  508 at Wed Oct 21 14:29:51 2020, MaxMem=  2684354560 cpu:               0.9 elap:               0.7
[...]
           A8           0.00972  -0.00078  -0.00087  -0.00362  -0.00031
           A9          -0.00082   0.00006   0.00010   0.00025   0.00037
           D1           0.00724  -0.00267   0.00505  -0.00884   0.00654
           D2          -0.01067  -0.00911  -0.01052  -0.00533   0.00814
           D3           0.00392   0.01186   0.01063   0.00991  -0.01954
                          A5        A6        A7        A8        A9
           A5           0.12283
           A6          -0.01025   0.14523
           A7           0.00368  -0.01086   0.11145
           A8           0.00233   0.00309  -0.00355   0.00467
           A9           0.00076  -0.00155   0.00079  -0.00008   0.00033
           D1           0.00040  -0.00029   0.00256  -0.00065  -0.00011
           D2           0.00939   0.00725   0.01340  -0.00013   0.00003
           D3          -0.00567  -0.00683  -0.01502  -0.00007   0.00006
                          D1        D2        D3
           D1           0.00992
           D2           0.00083   0.01430
           D3          -0.00139  -0.01113   0.01811
 ITU=  0 -1  0  0  1  1  0  0  0  0  1  1  1  1  1  1  0  1  1
 Eigenvectors of the second derivative matrix:
                           1         2         3         4         5
     Eigenvalues --     0.00029   0.00318   0.00364   0.00615   0.06750
   1         R1         0.00017   0.01393   0.02184  -0.01714  -0.16572
   2         R2         0.00206  -0.02057  -0.00812   0.00372   0.10275
   3         R3        -0.00032   0.01165   0.00543   0.01871   0.06009
   4         R4        -0.00105  -0.00114  -0.00848  -0.01336  -0.04144
   5         R5        -0.06494   0.88162  -0.07722  -0.25613   0.17204
   6         R6        -0.00271  -0.00007   0.02633  -0.00421   0.13857
   7         A1         0.00369  -0.04418  -0.00918   0.02282   0.24853
   8         A2        -0.00080   0.01702  -0.00931   0.03054   0.22869
   9         A3         0.00028   0.00449  -0.03613  -0.01573   0.29901
  10         A4        -0.00108   0.02506  -0.00118  -0.05300  -0.56441
  11         A5         0.00418   0.03558   0.02913   0.01329  -0.00139
  12         A6        -0.00617  -0.03877   0.02521   0.00349  -0.18742
  13         A7         0.03116  -0.35219   0.00392   0.12629   0.35779
  14         A8        -0.01087  -0.00654  -0.97049   0.22678  -0.05751
  15         A9        -0.99728  -0.06968   0.01434   0.01366   0.00529
  16         D1         0.00141  -0.16742  -0.11931  -0.53015  -0.11972
  17         D2         0.00082  -0.17651  -0.10188  -0.54965  -0.21360
  18         D3         0.00654  -0.16797  -0.15181  -0.52735   0.39924
                           6         7         8         9        10
     Eigenvalues --     0.08108   0.11619   0.11792   0.14248   0.16508
   1         R1        -0.04528   0.00883  -0.06764   0.04542  -0.05272
   2         R2         0.11067   0.05594   0.07011  -0.12582   0.05963
   3         R3        -0.11114  -0.07296   0.10708   0.02682   0.03987
   4         R4         0.07793   0.04316   0.03072   0.02061   0.03073
   5         R5        -0.01041  -0.03267  -0.31540   0.06265  -0.05874
   6         R6         0.11001   0.01724  -0.16599   0.02453  -0.09967
   7         A1         0.08478  -0.03704  -0.10829   0.27954   0.78289
   8         A2         0.29035  -0.53177   0.19521  -0.27654  -0.28666
   9         A3         0.08168   0.61625   0.14757  -0.18952  -0.27423
  10         A4         0.41955   0.19832  -0.09556   0.40829  -0.16955
  11         A5        -0.64498  -0.25026   0.23577   0.38605  -0.21697
  12         A6        -0.21722   0.00001  -0.36834  -0.61232   0.17459
  13         A7        -0.01350  -0.07134  -0.71203   0.25326  -0.31693
  14         A8        -0.03426  -0.01542  -0.00396  -0.00497   0.00224
  15         A9        -0.00081  -0.00001   0.00290   0.01047  -0.00442
  16         D1         0.27879  -0.40825  -0.04268  -0.03474  -0.00151
  17         D2        -0.36951   0.14209  -0.15897  -0.10492  -0.01953
  18         D3         0.04558   0.17375   0.21202   0.13688   0.01711
                          11        12        13        14        15
     Eigenvalues --     0.23913   0.31275   0.33829   0.38062   0.52440
   1         R1         0.19901  -0.02096   0.04842   0.08602  -0.95406
   2         R2        -0.07372  -0.66902  -0.30657  -0.62463  -0.10994
   3         R3        -0.08161   0.69290  -0.48165  -0.48222  -0.11457
   4         R4        -0.19099   0.16995   0.79944  -0.52995  -0.04975
   5         R5         0.06950  -0.00920  -0.00060  -0.06210   0.02367
   6         R6        -0.91860  -0.01464  -0.08431   0.20871  -0.18677
   7         A1         0.01431  -0.00278   0.01665   0.06450  -0.06137
   8         A2         0.06098   0.02816   0.05326   0.03707  -0.05195
   9         A3         0.07831   0.09166   0.00849   0.04245  -0.03634
  10         A4        -0.01058   0.01510  -0.13338  -0.07818   0.10047
  11         A5        -0.10644  -0.17244   0.05091  -0.04225   0.02350
  12         A6        -0.03224   0.04328   0.00663  -0.01921   0.02106
  13         A7         0.17993   0.01245   0.00640  -0.14265   0.03529
  14         A8        -0.03392  -0.00313  -0.00594   0.01201  -0.02122
  15         A9         0.00417  -0.00157  -0.00033  -0.00111  -0.00067
  16         D1         0.01164   0.01683  -0.02556  -0.00942   0.00950
  17         D2        -0.06457  -0.02451  -0.02181  -0.04682   0.05002
  18         D3         0.05272   0.02424   0.02557   0.05719  -0.05890
 DoSqrt=T IScMMF=    -3 MM Scaling Factor =       0.00000
 En-DIIS/RFO-DIIS/Sim-DIIS IScMMF=       -3 using points:    25   24   23   22   21   20   19   18   17   16
 Iter=   1 RLamda=-4.97140989D-02 Sum=-6.07829948D-10.
 Iter=   2 RLamda=-6.07829948D-10 Sum=-4.11414761D-09.
 RFO step:  Lambda=-6.07829948D-10.
 NNeg= 0 NGDIIS=10 SimSw=  2.50D-03 Rises=F DC= -3.06D-08 SmlDif=  1.00D-05
 NRisDI= 0 DoIntr=F SqrtH=F CThrHd= 10.0 CDAdj=  3.0
 RMS Error=  0.5913505773D-03 NUsed=10 OKEnD=F EnDIS=F
 Total RFO-DIIS matrix:
                 1             2             3             4             5 
      1   0.000000D+00 -0.100000D+01 -0.100000D+01 -0.100000D+01 -0.100000D+01
      2  -0.100000D+01  0.629452D-05 -0.211425D-04 -0.135633D-04 -0.386505D-04
      3  -0.100000D+01 -0.211425D-04  0.727661D-04  0.477618D-04  0.131475D-03
      4  -0.100000D+01 -0.135633D-04  0.477618D-04  0.343275D-04  0.786225D-04
      5  -0.100000D+01 -0.386505D-04  0.131475D-03  0.786225D-04  0.276218D-03
      6  -0.100000D+01 -0.763071D-04  0.254175D-03  0.150026D-03  0.530642D-03
      7  -0.100000D+01 -0.257173D-03  0.848526D-03  0.506383D-03  0.168043D-02
      8  -0.100000D+01 -0.335806D-03  0.110488D-02  0.658375D-03  0.217511D-02
      9  -0.100000D+01 -0.375843D-03  0.123709D-02  0.737680D-03  0.243460D-02
     10  -0.100000D+01 -0.383517D-03  0.126398D-02  0.754865D-03  0.248638D-02
     11  -0.100000D+01 -0.404406D-03  0.133176D-02  0.789619D-03  0.264545D-02
                 6             7             8             9            10 
      1  -0.100000D+01 -0.100000D+01 -0.100000D+01 -0.100000D+01 -0.100000D+01
      2  -0.763071D-04 -0.257173D-03 -0.335806D-03 -0.375843D-03 -0.383517D-03
      3   0.254175D-03  0.848526D-03  0.110488D-02  0.123709D-02  0.126398D-02
      4   0.150026D-03  0.506383D-03  0.658375D-03  0.737680D-03  0.754865D-03
      5   0.530642D-03  0.168043D-02  0.217511D-02  0.243460D-02  0.248638D-02
      6   0.105653D-02  0.338419D-02  0.439224D-02  0.494807D-02  0.506091D-02
      7   0.338419D-02  0.111779D-01  0.145783D-01  0.163956D-01  0.167494D-01
      8   0.439224D-02  0.145783D-01  0.190293D-01  0.213950D-01  0.218512D-01
      9   0.494807D-02  0.163956D-01  0.213950D-01  0.241193D-01  0.246593D-01
     10   0.506091D-02  0.167494D-01  0.218512D-01  0.246593D-01  0.252228D-01
     11   0.541949D-02  0.178520D-01  0.232756D-01  0.263400D-01  0.269701D-01
                11 
      1  -0.100000D+01
      2  -0.404406D-03
      3   0.133176D-02
      4   0.789619D-03
      5   0.264545D-02
      6   0.541949D-02
      7   0.178520D-01
      8   0.232756D-01
      9   0.263400D-01
     10   0.269701D-01
     11   0.289391D-01
 InvSVX:  RCond= 2.01D-11 Info=           0 Equed=N FErr=  1.11D-07 BErr=  8.12D-17
 DIIS inversion failure, remove point  10.
 InvSVX:  RCond= 2.32D-11 Info=           0 Equed=N FErr=  1.05D-07 BErr=  5.94D-17
 DIIS inversion failure, remove point   9.
 InvSVX:  RCond= 6.38D-10 Info=           0 Equed=N FErr=  1.11D-09 BErr=  1.22D-16
 DIIS inversion failure, remove point   8.
 InvSVX:  RCond= 1.34D-09 Info=           0 Equed=N FErr=  3.74D-10 BErr=  1.80D-16
 DIIS inversion failure, remove point   7.
 InvSVX:  RCond= 1.14D-08 Info=           0 Equed=N FErr=  2.58D-12 BErr=  8.83D-17
 DIIS inversion failure, remove point   6.
 InvSVX:  RCond= 1.00D-07 Info=           0 Equed=N FErr=  1.09D-13 BErr=  6.38D-17
 DIIS inversion failure, remove point   5.
 InvSVX:  RCond= 1.33D-07 Info=           0 Equed=N FErr=  7.29D-14 BErr=  3.32D-17
 RFO-DIIS uses    4 points instead of   10
 DidBck=T Rises=F RFO-DIIS coefs:    0.79517    0.33362   -0.11395   -0.01484    0.00000
                  RFO-DIIS coefs:    0.00000    0.00000    0.00000    0.00000    0.00000
 Iteration  1 RMS(Cart)=  0.00062464 RMS(Int)=  0.00000079
 Iteration  2 RMS(Cart)=  0.00000068 RMS(Int)=  0.00000000
 ITry= 1 IFail=0 DXMaxC= 1.57D-03 DCOld= 1.00D+10 DXMaxT= 3.71D-01 DXLimC= 3.00D+00 Rises=F
 Variable       Old X    -DE/DX   Delta X   Delta X   Delta X     New X
                                 (Linear)    (Quad)   (Total)
    R1        2.63518   0.00001  -0.00001   0.00002   0.00000   2.63519
    R2        2.06892   0.00001  -0.00002   0.00004   0.00002   2.06894
    R3        2.06896  -0.00000   0.00000  -0.00002  -0.00001   2.06895
    R4        2.06105   0.00000   0.00001  -0.00000   0.00001   2.06106
    R5        4.21212   0.00000   0.00026  -0.00010   0.00017   4.21229
    R6        1.64778  -0.00000  -0.00002  -0.00001  -0.00003   1.64775
    A1        1.90008  -0.00000  -0.00001   0.00000  -0.00001   1.90007
    A2        1.90006   0.00000  -0.00001   0.00003   0.00001   1.90007
    A3        1.89008   0.00000   0.00000   0.00004   0.00004   1.89012
    A4        1.91146   0.00000   0.00002  -0.00000   0.00002   1.91148
    A5        1.93078  -0.00000  -0.00001  -0.00004  -0.00005   1.93073
    A6        1.93076  -0.00000   0.00001  -0.00003  -0.00002   1.93074
    A7        1.45772   0.00000  -0.00009   0.00004  -0.00005   1.45767
    A8        2.68355   0.00000   0.00073  -0.00001   0.00072   2.68427
    A9        2.54858   0.00000   0.00227   0.00006   0.00233   2.55091
    D1        3.07714   0.00000   0.00024  -0.00012   0.00012   3.07726
    D2        1.00150  -0.00000   0.00026  -0.00016   0.00010   1.00160
    D3       -1.13112   0.00000   0.00023  -0.00010   0.00014  -1.13098
         Item               Value     Threshold  Converged?
 Maximum Force            0.000010     0.000450     YES
 RMS     Force            0.000003     0.000300     YES
 Maximum Displacement     0.001567     0.001800     YES
 RMS     Displacement     0.000625     0.001200     YES
 Predicted change in Energy=-2.053526D-09
 Optimization completed.
    -- Stationary point found.
                           ----------------------------
                           !   Optimized Parameters   !
                           ! (Angstroms and Degrees)  !
 --------------------------                            --------------------------
 ! Name  Definition              Value          Derivative Info.                !
 --------------------------------------------------------------------------------
 ! R1    R(1,2)                  1.3945         -DE/DX =    0.0                 !
 ! R2    R(2,3)                  1.0948         -DE/DX =    0.0                 !
 ! R3    R(2,4)                  1.0948         -DE/DX =    0.0                 !
 ! R4    R(2,5)                  1.0907         -DE/DX =    0.0                 !
 ! R5    R(3,6)                  2.229          -DE/DX =    0.0                 !
 ! R6    R(6,7)                  0.872          -DE/DX =    0.0                 !
 ! A1    A(1,2,3)              108.8665         -DE/DX =    0.0                 !
 ! A2    A(1,2,4)              108.8654         -DE/DX =    0.0                 !
 ! A3    A(1,2,5)              108.2935         -DE/DX =    0.0                 !
 ! A4    A(3,2,4)              109.5186         -DE/DX =    0.0                 !
 ! A5    A(3,2,5)              110.6254         -DE/DX =    0.0                 !
 ! A6    A(4,2,5)              110.6242         -DE/DX =    0.0                 !
 ! A7    A(2,3,6)               83.5209         -DE/DX =    0.0                 !
 ! A8    L(3,6,7,5,-1)         153.7558         -DE/DX =    0.0                 !
 ! A9    L(3,6,7,5,-2)         146.0231         -DE/DX =    0.0                 !
 ! D1    D(1,2,3,6)            176.3073         -DE/DX =    0.0                 !
 ! D2    D(4,2,3,6)             57.3817         -DE/DX =    0.0                 !
 ! D3    D(5,2,3,6)            -64.8084         -DE/DX =    0.0                 !
 --------------------------------------------------------------------------------
 Lowest energy point so far.  Saving SCF results.
 Largest change from initial coordinates is atom    4       0.579 Angstoms.
 GradGradGradGradGradGradGradGradGradGradGradGradGradGradGradGradGradGrad

 Leave Link  103 at Wed Oct 21 14:35:38 2020, MaxMem=  2684354560 cpu:               6.4 elap:               1.2
 (Enter /udrive/faculty/rpeverati/g16/g16/l202.exe)
                          Input orientation:                          
 ---------------------------------------------------------------------
 Center     Atomic      Atomic             Coordinates (Angstroms)
 Number     Number       Type             X           Y           Z
 ---------------------------------------------------------------------
      1          9           0        1.763268    0.085129   -0.036904
      2          6           0        0.369490    0.067394    0.003549
      3          1           0        0.016327   -0.894437   -0.382196
      4          1           0        0.043919    0.186837    1.042022
      5          1           0       -0.001331    0.887772   -0.612091
      6          8           0       -1.988831   -0.094164    0.172020
      7          1           0       -2.656200    0.357713   -0.160777
 ---------------------------------------------------------------------
                    Distance matrix (angstroms):
                    1          2          3          4          5
     1  F    0.000000
     2  C    1.394478   0.000000
     3  H    2.032383   1.094825   0.000000
     4  H    2.032385   1.094847   1.788383   0.000000
     5  H    2.022099   1.090661   1.797062   1.797067   0.000000
     6  O    3.762186   2.369844   2.228958   2.228887   2.351422
     7  H    4.429598   3.044024   2.959612   2.960839   2.744626
                    6          7
     6  O    0.000000
     7  H    0.871967   0.000000
 Stoichiometry    CH4FO(1-)
 Framework group  C1[X(CH4FO)]
 Deg. of freedom    15
 Full point group                 C1      NOp   1
 RotChk:  IX=2 Diff= 1.69D-14
 Largest Abelian subgroup         C1      NOp   1
 Largest concise Abelian subgroup C1      NOp   1
                         Standard orientation:                         
 ---------------------------------------------------------------------
 Center     Atomic      Atomic             Coordinates (Angstroms)
 Number     Number       Type             X           Y           Z
 ---------------------------------------------------------------------
      1          9           0        1.781025   -0.007629   -0.000078
      2          6           0        0.386928    0.024970    0.000097
      3          1           0        0.020719   -0.486960   -0.895705
      4          1           0        0.020824   -0.492692    0.892669
      5          1           0        0.068888    1.068225    0.003468
      6          8           0       -1.980368   -0.084912   -0.000016
      7          1           0       -2.618277    0.509561   -0.000191
 ---------------------------------------------------------------------
 Rotational constants (GHZ):         139.9687788           3.8006620           3.7896237
 Leave Link  202 at Wed Oct 21 14:35:39 2020, MaxMem=  2684354560 cpu:               2.1 elap:               0.8
 (Enter /udrive/faculty/rpeverati/g16/g16/l601.exe)
 Copying SCF densities to generalized density rwf, IOpCl= 0 IROHF=0.

 **********************************************************************

            Population analysis using the SCF density.

 **********************************************************************

 Orbital symmetries:
       Occupied  (A) (A) (A) (A) (A) (A) (A) (A) (A) (A) (A)
       Virtual   (A) (A) (A) (A) (A)
 The electronic state is 1-A.
 Alpha  occ. eigenvalues --   -1.31154  -0.72443  -0.70040  -0.44255  -0.44127
 Alpha  occ. eigenvalues --   -0.40357  -0.29864  -0.29284  -0.23042  -0.11382
 Alpha  occ. eigenvalues --   -0.11288
 Alpha virt. eigenvalues --    0.29082   0.39579   0.39945   0.42248   0.53032
          Condensed to atoms (all electrons):
               1          2          3          4          5          6
     1  F    7.325322   0.000000   0.000000   0.000000   0.000000   0.000000
     2  C    0.000000   4.145074   0.000000   0.000000   0.000000   0.000000
     3  H    0.000000   0.000000   0.841385   0.000000   0.000000   0.000000
     4  H    0.000000   0.000000   0.000000   0.841358   0.000000   0.000000
     5  H    0.000000   0.000000   0.000000   0.000000   0.864030   0.000000
     6  O    0.000000   0.000000   0.000000   0.000000   0.000000   7.242069
     7  H    0.000000   0.000000   0.000000   0.000000   0.000000   0.000000
               7
     1  F    0.000000
     2  C    0.000000
     3  H    0.000000
     4  H    0.000000
     5  H    0.000000
     6  O    0.000000
     7  H    0.740762
 Mulliken charges:
               1
     1  F   -0.325322
     2  C   -0.145074
     3  H    0.158615
     4  H    0.158642
     5  H    0.135970
     6  O   -1.242069
     7  H    0.259238
 Sum of Mulliken charges =  -1.00000
 Mulliken charges with hydrogens summed into heavy atoms:
               1
     1  F   -0.325322
     2  C    0.308154
     6  O   -0.982831
 Charge=             -1.0000 electrons
 Dipole moment (field-independent basis, Debye):
    X=              5.4913    Y=              1.3616    Z=             -0.0000  Tot=              5.6576
 N-N= 7.199465595031D+01 E-N=-7.415480784367D+01  KE=-6.000761540053D+01
 Leave Link  601 at Wed Oct 21 14:35:40 2020, MaxMem=  2684354560 cpu:               2.8 elap:               0.9
 (Enter /udrive/faculty/rpeverati/g16/g16/l9999.exe)

 Test job not archived.
 1\1\GINC-NODE41\FOpt\RPM6\ZDO\C1H4F1O1(1-)\RPEVERATI\21-Oct-2020\0\\#P
  Opt(MaxCyc=150) PM6 5D 7F Integral=UltraFineGrid SCF=(NoSymm,XQC,MaxC
 yc=120) IOp(1/33=1)\\TS search on BH76.\\-1,1\F,1.7632681833,0.0851289
 039,-0.0369038636\C,0.369489821,0.067393952,0.0035492306\H,0.016326744
 2,-0.8944372462,-0.3821957464\H,0.043918767,0.1868367628,1.0420224155\
 H,-0.0013310038,0.8877716114,-0.6120910925\O,-1.9888314556,-0.09416350
 58,0.172019654\H,-2.6561996349,0.3577125357,-0.1607771331\\Version=ES6
 4L-G16RevA.03\State=1-A\HF=-0.1589379\RMSD=5.846e-09\RMSF=3.583e-06\Di
 pole=2.1300073,0.4930822,-0.4176365\PG=C01 [X(C1H4F1O1)]\\@


 DIATOMIC MOLECULES ARE PECULIAR BECAUSE THEY ONLY HAVE TWO ENDS,
 AND THESE ENDS ARE VERY CLOSE TOGETHER.
 KLAUS RUEDENBERG, REV.MOD.PHYS. PG 176, 32, (1960)
 Job cpu time:       0 days  0 hours 19 minutes  0.6 seconds.
 Elapsed time:       0 days  0 hours  4 minutes 55.2 seconds.
 File lengths (MBytes):  RWF=      5 Int=      0 D2E=      0 Chk=      2 Scr=      1
 Normal termination of Gaussian 16 at Wed Oct 21 14:35:43 2020.
