 Entering Gaussian System, Link 0=g16
 Input=MN_79_RKT02_BH76_PM6_SE.in
 Output=MN_79_RKT02_BH76_PM6_SE.log
 Initial command:
 /udrive/faculty/rpeverati/g16/g16/l1.exe "/udrive/scratch-directories/gaussian09/rpeverati/Gau-1733.inp" -scrdir="/udrive/scratch-directories/gaussian09/rpeverati/"
 Entering Link 1 = /udrive/faculty/rpeverati/g16/g16/l1.exe PID=      1764.
  
 Copyright (c) 1988,1990,1992,1993,1995,1998,2003,2009,2016,
            Gaussian, Inc.  All Rights Reserved.
  
 This is part of the Gaussian(R) 16 program.  It is based on
 the Gaussian(R) 09 system (copyright 2009, Gaussian, Inc.),
 the Gaussian(R) 03 system (copyright 2003, Gaussian, Inc.),
 the Gaussian(R) 98 system (copyright 1998, Gaussian, Inc.),
 the Gaussian(R) 94 system (copyright 1995, Gaussian, Inc.),
 the Gaussian 92(TM) system (copyright 1992, Gaussian, Inc.),
 the Gaussian 90(TM) system (copyright 1990, Gaussian, Inc.),
 the Gaussian 88(TM) system (copyright 1988, Gaussian, Inc.),
 the Gaussian 86(TM) system (copyright 1986, Carnegie Mellon
 University), and the Gaussian 82(TM) system (copyright 1983,
 Carnegie Mellon University). Gaussian is a federally registered
 trademark of Gaussian, Inc.
  
 This software contains proprietary and confidential information,
 including trade secrets, belonging to Gaussian, Inc.
  
 This software is provided under written license and may be
 used, copied, transmitted, or stored only in accord with that
 written license.
  
 The following legend is applicable only to US Government
 contracts under FAR:
  
                    RESTRICTED RIGHTS LEGEND
  
 Use, reproduction and disclosure by the US Government is
 subject to restrictions as set forth in subparagraphs (a)
 and (c) of the Commercial Computer Software - Restricted
 Rights clause in FAR 52.227-19.
  
 Gaussian, Inc.
 340 Quinnipiac St., Bldg. 40, Wallingford CT 06492
  
  
 ---------------------------------------------------------------
 Warning -- This program may not be used in any manner that
 competes with the business of Gaussian, Inc. or will provide
 assistance to any competitor of Gaussian, Inc.  The licensee
 of this program is prohibited from giving any competitor of
 Gaussian, Inc. access to this program.  By using this program,
 the user acknowledges that Gaussian, Inc. is engaged in the
 business of creating and licensing software in the field of
 computational chemistry and represents and warrants to the
 licensee that it is not a competitor of Gaussian, Inc. and that
 it will not use this program in any manner prohibited above.
 ---------------------------------------------------------------
  

 Cite this work as:
 Gaussian 16, Revision A.03,
 M. J. Frisch, G. W. Trucks, H. B. Schlegel, G. E. Scuseria, 
 M. A. Robb, J. R. Cheeseman, G. Scalmani, V. Barone, 
 G. A. Petersson, H. Nakatsuji, X. Li, M. Caricato, A. V. Marenich, 
 J. Bloino, B. G. Janesko, R. Gomperts, B. Mennucci, H. P. Hratchian, 
 J. V. Ortiz, A. F. Izmaylov, J. L. Sonnenberg, D. Williams-Young, 
 F. Ding, F. Lipparini, F. Egidi, J. Goings, B. Peng, A. Petrone, 
 T. Henderson, D. Ranasinghe, V. G. Zakrzewski, J. Gao, N. Rega, 
 G. Zheng, W. Liang, M. Hada, M. Ehara, K. Toyota, R. Fukuda, 
 J. Hasegawa, M. Ishida, T. Nakajima, Y. Honda, O. Kitao, H. Nakai, 
 T. Vreven, K. Throssell, J. A. Montgomery, Jr., J. E. Peralta, 
 F. Ogliaro, M. J. Bearpark, J. J. Heyd, E. N. Brothers, K. N. Kudin, 
 V. N. Staroverov, T. A. Keith, R. Kobayashi, J. Normand, 
 K. Raghavachari, A. P. Rendell, J. C. Burant, S. S. Iyengar, 
 J. Tomasi, M. Cossi, J. M. Millam, M. Klene, C. Adamo, R. Cammi, 
 J. W. Ochterski, R. L. Martin, K. Morokuma, O. Farkas, 
 J. B. Foresman, and D. J. Fox, Gaussian, Inc., Wallingford CT, 2016.
 
 ******************************************
 Gaussian 16:  ES64L-G16RevA.03 25-Dec-2016
                28-Oct-2020 
 ******************************************
 %NoSave
 %nproc=12
 Will use up to   12 processors via shared memory.
 %mem=20GB
 %chk=MN_79_RKT02_BH76_PM6_SE
 ----------------------------------------------------------------------
 #P Opt(TS,MaxCyc=50,NoEigenTest,MaxStep=10,AddRedundant) PM6 5D 7F Int
 egral=UltraFineGrid SCF=(NoSymm,XQC,MaxCyc=120) IOp(1/33=1)
 ----------------------------------------------------------------------
 1/5=1,6=50,8=10,11=1,18=120,26=1,33=1,38=1/1,3;
 2/9=110,12=2,17=6,18=5,40=1/2;
 3/5=2,8=11,25=1,41=3900000,71=1,75=-5/1,2,3;
 4/9=2,35=1/1;
 5/5=2,7=120,8=3,13=1,35=1,38=5/2,8;
 6/7=2,8=2,9=2,10=2,28=1/1;
 7//1,2,3,16;
 1/5=1,6=50,8=10,11=1,18=20,26=1,33=1/3(2);
 2/9=110/2;
 99//99;
 2/9=110/2;
 3/5=2,8=11,25=1,41=3900000,71=1,75=-5,135=20/1,2,3;
 4/5=5,9=2,16=3,35=1/1;
 5/5=2,7=120,8=3,13=1,35=1,38=5/2,8;
 7//1,2,3,16;
 1/5=1,6=50,8=10,11=1,18=20,26=1,33=1/3(-5);
 2/9=110/2;
 6/7=2,8=2,9=2,10=2,19=2,28=1/1;
 99/9=1/99;
 Leave Link    1 at Wed Oct 28 15:46:39 2020, MaxMem=  2684354560 cpu:               2.1 elap:               0.2
 (Enter /udrive/faculty/rpeverati/g16/g16/l101.exe)
 ONIOM results not found on unit 2.
 ------------------
 TS search on BH76.
 ------------------
 TstMul:  ICh=     0
 TstMul:  Mul=     2
 TstMul:  ICh=     0
 TstMul:  Mul=     2
 Symbolic Z-matrix:
 Charge =  0 Multiplicity = 2
 O                    -0.30106  -0.10805  -0.00001 
 H                    -0.42794   0.85157   0.00002 
 H                     1.01549  -0.10037   0.00012 
 H                     1.82097   0.11319  -0.00007 
 
 RdStrC is calling ZToCFu for IStruc=1 NZ=     4.
 PrtBox:  NBox=     1 Levels=  1 BoxLen=    8.00 SMaxX=        4.25
          Shift=            0.808697            0.204183            0.000138
 Box      1 Number                   0 centers from      1 to      4:
 After GenITR:
 ITRead=  0  0  0  0
 MicOpt= -1 -1 -1 -1
 Add virtual bond connecting atoms H3         and O1         Dist= 2.49D+00.
 The following ModRedundant input section has been read:
 B       1       3 D                                                           
 B       3       4 D                                                           
 
 ITRead=  0  0  0  0
 MicOpt= -1 -1 -1 -1
 NAtoms=      4 NQM=        4 NQMF=       0 NMMI=      0 NMMIF=      0
                NMic=       0 NMicF=      0.
                    Isotopes and Nuclear Properties:
 (Nuclear quadrupole moments (NQMom) in fm**2, nuclear magnetic moments (NMagM)
  in nuclear magnetons)

  Atom         1           2           3           4
 IAtWgt=          16           1           1           1
 AtmWgt=  15.9949146   1.0078250   1.0078250   1.0078250
 NucSpn=           0           1           1           1
 AtZEff=   0.0000000   0.0000000   0.0000000   0.0000000
 NQMom=    0.0000000   0.0000000   0.0000000   0.0000000
 NMagM=    0.0000000   2.7928460   2.7928460   2.7928460
 AtZNuc=   8.0000000   1.0000000   1.0000000   1.0000000
 No MM parameters found.
 Leave Link  101 at Wed Oct 28 15:46:39 2020, MaxMem=  2684354560 cpu:               6.3 elap:               0.6
 (Enter /udrive/faculty/rpeverati/g16/g16/l103.exe)

 GradGradGradGradGradGradGradGradGradGradGradGradGradGradGradGradGradGrad
 Berny optimization.
 Optmz: redundant internal coordinate code flag= 1
 Initialization pass.
                           ----------------------------
                           !    Initial Parameters    !
                           ! (Angstroms and Degrees)  !
 --------------------------                            --------------------------
 ! Name  Definition              Value          Derivative Info.                !
 --------------------------------------------------------------------------------
 ! R1    R(1,2)                  0.968          estimate D2E/DX2                !
 ! R2    R(1,3)                  1.3166         calc D2E/DXDY, step=    0.0026  !
 ! R3    R(3,4)                  0.8333         calc D2E/DXDY, step=    0.0026  !
 ! A1    A(2,1,3)               97.1976         estimate D2E/DX2                !
 ! A2    L(1,3,4,2,-1)         165.4853         estimate D2E/DX2                !
 ! A3    L(1,3,4,2,-2)         180.0256         estimate D2E/DX2                !
 --------------------------------------------------------------------------------
 Maximum allowed force set to 1.00D+20.
 Trust Radius=1.00D-01 FncErr=1.00D-07 GrdErr=1.00D-07 EigMax=2.50D+02 EigMin=1.00D-04
 Number of steps in this run=     50 maximum allowed number of steps=    100.
 Search for a saddle point of order  1.
 GradGradGradGradGradGradGradGradGradGradGradGradGradGradGradGradGradGrad

 Leave Link  103 at Wed Oct 28 15:46:40 2020, MaxMem=  2684354560 cpu:               0.2 elap:               0.1
 (Enter /udrive/faculty/rpeverati/g16/g16/l202.exe)
                          Input orientation:                          
 ---------------------------------------------------------------------
 Center     Atomic      Atomic             Coordinates (Angstroms)
 Number     Number       Type             X           Y           Z
 ---------------------------------------------------------------------
      1          8           0       -0.301064   -0.108049   -0.000008
      2          1           0       -0.427944    0.851568    0.000016
      3          1           0        1.015486   -0.100367    0.000119
      4          1           0        1.820968    0.113187   -0.000073
 ---------------------------------------------------------------------
                    Distance matrix (angstroms):
                    1          2          3          4
     1  O    0.000000
     2  H    0.967968   0.000000
     3  H    1.316572   1.729066   0.000000
     4  H    2.133533   2.367025   0.833310   0.000000
 Stoichiometry    H3O(2)
 Framework group  C1[X(H3O)]
 Deg. of freedom     6
 Full point group                 C1      NOp   1
 Largest Abelian subgroup         C1      NOp   1
 Largest concise Abelian subgroup C1      NOp   1
                         Standard orientation:                         
 ---------------------------------------------------------------------
 Center     Atomic      Atomic             Coordinates (Angstroms)
 Number     Number       Type             X           Y           Z
 ---------------------------------------------------------------------
      1          8           0       -0.301064   -0.108048   -0.000008
      2          1           0       -0.427943    0.851569    0.000016
      3          1           0        1.015486   -0.100367    0.000119
      4          1           0        1.820968    0.113186   -0.000073
 ---------------------------------------------------------------------
 Rotational constants (GHZ):         563.2097353          88.3481783          76.3685828
 Leave Link  202 at Wed Oct 28 15:46:40 2020, MaxMem=  2684354560 cpu:               0.2 elap:               0.1
 (Enter /udrive/faculty/rpeverati/g16/g16/l301.exe)
 Standard basis: VSTO-6G (5D, 7F)
 Ernie: Thresh=  0.10000D-02 Tol=  0.10000D-05 Strict=F.
  NNHCO=     0 NNPyr=     0 NCTC=     0               EPep=         0.000000000
    EC=         6.146954086  ECS=         0.429997167   EG=         0.003024123
   EHC=         0.000309135  EAt=       -11.791685415  AtH=         0.344002774
 EPDDG=         0.000000000  ECC=         6.580284511 EAtT=        12.135688189
 There are     7 symmetry adapted cartesian basis functions of A   symmetry.
 There are     7 symmetry adapted basis functions of A   symmetry.
     7 basis functions,    42 primitive gaussians,     7 cartesian basis functions
     5 alpha electrons        4 beta electrons
       nuclear repulsion energy        18.7159727003 Hartrees.
 IExCor=    0 DFT=F Ex=HF Corr=None ExCW=0 ScaHFX=  1.000000
 ScaDFX=  1.000000  1.000000  1.000000  1.000000 ScalE2=  1.000000  1.000000
 IRadAn=      5 IRanWt=     -1 IRanGd=            0 ICorTp=0 IEmpDi=  4
 Integral buffers will be    131072 words long.
 Regular integral format.
 Two-electron integral symmetry is turned off.
 Leave Link  301 at Wed Oct 28 15:46:40 2020, MaxMem=  2684354560 cpu:               0.8 elap:               0.1
 (Enter /udrive/faculty/rpeverati/g16/g16/l302.exe)
 Do NDO integrals.
 NPDir=0 NMtPBC=     1 NCelOv=     1 NCel=       1 NClECP=     1 NCelD=      1
         NCelK=      1 NCelE2=     1 NClLst=     1 CellRange=     0.0.
 One-electron integrals computed using PRISM.
 NBasis=     7 RedAO= F EigKep=  0.00D+00  NBF=     7
 NBsUse=     7 1.00D-04 EigRej=  0.00D+00 NBFU=     7
 Leave Link  302 at Wed Oct 28 15:46:40 2020, MaxMem=  2684354560 cpu:               0.9 elap:               0.1
 (Enter /udrive/faculty/rpeverati/g16/g16/l303.exe)
 DipDrv:  MaxL=1.
 Leave Link  303 at Wed Oct 28 15:46:40 2020, MaxMem=  2684354560 cpu:               0.4 elap:               0.1
 (Enter /udrive/faculty/rpeverati/g16/g16/l401.exe)
 SCF N**3 symmetry information disabled.
 Simple Huckel Guess.
 JPrj=0 DoOrth=F DoCkMO=F.
 Initial guess <Sx>= 0.0000 <Sy>= 0.0000 <Sz>= 0.5000 <S**2>= 0.7500 S= 0.5000
 Leave Link  401 at Wed Oct 28 15:46:40 2020, MaxMem=  2684354560 cpu:               0.5 elap:               0.1
 (Enter /udrive/faculty/rpeverati/g16/g16/l502.exe)
 Keep J ints in memory in canonical form, NReq=859173.
 FoFCou: FMM=F IPFlag=           0 FMFlag=           0 FMFlg1=           0
         NFxFlg=           0 DoJE=F BraDBF=F KetDBF=F FulRan=T
         wScrn=  0.000000 ICntrl=       600 IOpCl=  2 I1Cent=           0 NGrid=           0
         NMat0=    1 NMatS0=     13 NMatT0=    0 NMatD0=    1 NMtDS0=    0 NMtDT0=    0
 Symmetry not used in FoFCou.
 Two-electron integral symmetry not used.
 UHF open shell SCF:
 Using DIIS extrapolation, IDIIS=  1040.
 Overlap will be assumed to be unity.
 NGot=  2684354560 LenX=  2684294088 LenY=  2684293206
 Requested convergence on RMS density matrix=1.00D-08 within 120 cycles.
 Requested convergence on MAX density matrix=1.00D-06.
 Requested convergence on             energy=1.00D-06.
 No special actions if energy rises.

 Cycle   1  Pass 1  IDiag  1:
 E= 0.788178424270107E-01
 DIIS: error= 7.68D-02 at cycle   1 NSaved=   1.
 NSaved= 1 IEnMin= 1 EnMin= 0.788178424270107E-01 IErMin= 1 ErrMin= 7.68D-02
 ErrMax= 7.68D-02  0.00D+00 EMaxC= 1.00D-01 BMatC= 1.27D-01 BMatP= 1.27D-01
 IDIUse=3 WtCom= 2.32D-01 WtEn= 7.68D-01
 Coeff-Com:  0.100D+01
 Coeff-En:   0.100D+01
 Coeff:      0.100D+01
 GapD=    2.000 DampG=2.000 DampE=0.500 DampFc=1.0000 IDamp=-1.
 RMSDP=3.86D-02 MaxDP=1.26D-01              OVMax= 0.00D+00

 Cycle   2  Pass 1  IDiag  1:
 E=-0.764106954099120E-02 Delta-E=       -0.086458911968 Rises=F Damp=F
 DIIS: error= 2.09D-02 at cycle   2 NSaved=   2.
 NSaved= 2 IEnMin= 2 EnMin=-0.764106954099120E-02 IErMin= 2 ErrMin= 2.09D-02
 ErrMax= 2.09D-02  0.00D+00 EMaxC= 1.00D-01 BMatC= 1.34D-02 BMatP= 1.27D-01
 IDIUse=3 WtCom= 7.91D-01 WtEn= 2.09D-01
 Coeff-Com: -0.326D+00 0.133D+01
 Coeff-En:   0.000D+00 0.100D+01
 Coeff:     -0.258D+00 0.126D+01
 RMSDP=1.80D-02 MaxDP=5.91D-02 DE=-8.65D-02 OVMax= 0.00D+00

 Cycle   3  Pass 1  IDiag  1:
 E=-0.208218839486882E-01 Delta-E=       -0.013180814408 Rises=F Damp=F
 DIIS: error= 6.74D-03 at cycle   3 NSaved=   3.
 NSaved= 3 IEnMin= 3 EnMin=-0.208218839486882E-01 IErMin= 3 ErrMin= 6.74D-03
 ErrMax= 6.74D-03  0.00D+00 EMaxC= 1.00D-01 BMatC= 1.35D-03 BMatP= 1.34D-02
 IDIUse=3 WtCom= 9.33D-01 WtEn= 6.74D-02
 Coeff-Com:  0.157D+00-0.874D+00 0.172D+01
 Coeff-En:   0.000D+00 0.000D+00 0.100D+01
 Coeff:      0.146D+00-0.815D+00 0.167D+01
 RMSDP=9.21D-03 MaxDP=3.61D-02 DE=-1.32D-02 OVMax= 0.00D+00

 Cycle   4  Pass 1  IDiag  3:
 E=-0.227340118743768E-01 Delta-E=       -0.001912127926 Rises=F Damp=F
 DIIS: error= 1.40D-03 at cycle   4 NSaved=   4.
 NSaved= 4 IEnMin= 4 EnMin=-0.227340118743768E-01 IErMin= 4 ErrMin= 1.40D-03
 ErrMax= 1.40D-03  0.00D+00 EMaxC= 1.00D-01 BMatC= 6.39D-05 BMatP= 1.35D-03
 IDIUse=3 WtCom= 9.86D-01 WtEn= 1.40D-02
 Coeff-Com: -0.120D+00 0.701D+00-0.156D+01 0.198D+01
 Coeff-En:   0.000D+00 0.000D+00 0.000D+00 0.100D+01
 Coeff:     -0.118D+00 0.691D+00-0.154D+01 0.196D+01
 Gap=     0.598 Goal=   None    Shift=    0.000
 Gap=     0.343 Goal=   None    Shift=    0.000
 RMSDP=3.02D-03 MaxDP=1.08D-02 DE=-1.91D-03 OVMax= 1.80D-02

 Cycle   5  Pass 1  IDiag  3:
 E=-0.228674285013319E-01 Delta-E=       -0.000133416627 Rises=F Damp=F
 DIIS: error= 3.21D-04 at cycle   5 NSaved=   5.
 NSaved= 5 IEnMin= 5 EnMin=-0.228674285013319E-01 IErMin= 5 ErrMin= 3.21D-04
 ErrMax= 3.21D-04  0.00D+00 EMaxC= 1.00D-01 BMatC= 3.36D-06 BMatP= 6.39D-05
 IDIUse=3 WtCom= 9.97D-01 WtEn= 3.21D-03
 Coeff-Com:  0.556D-02-0.543D-01 0.175D+00-0.452D+00 0.133D+01
 Coeff-En:   0.000D+00 0.000D+00 0.000D+00 0.000D+00 0.100D+01
 Coeff:      0.554D-02-0.541D-01 0.175D+00-0.451D+00 0.132D+01
 Gap=     0.598 Goal=   None    Shift=    0.000
 Gap=     0.344 Goal=   None    Shift=    0.000
 RMSDP=5.90D-04 MaxDP=2.24D-03 DE=-1.33D-04 OVMax= 3.35D-03

 Cycle   6  Pass 1  IDiag  3:
 E=-0.228730452597432E-01 Delta-E=       -0.000005616758 Rises=F Damp=F
 DIIS: error= 8.46D-05 at cycle   6 NSaved=   6.
 NSaved= 6 IEnMin= 6 EnMin=-0.228730452597432E-01 IErMin= 6 ErrMin= 8.46D-05
 ErrMax= 8.46D-05  0.00D+00 EMaxC= 1.00D-01 BMatC= 2.20D-07 BMatP= 3.36D-06
 IDIUse=1 WtCom= 1.00D+00 WtEn= 0.00D+00
 Coeff-Com: -0.205D-02 0.268D-01-0.909D-01 0.251D+00-0.877D+00 0.169D+01
 Coeff:     -0.205D-02 0.268D-01-0.909D-01 0.251D+00-0.877D+00 0.169D+01
 Gap=     0.598 Goal=   None    Shift=    0.000
 Gap=     0.344 Goal=   None    Shift=    0.000
 RMSDP=1.37D-04 MaxDP=4.27D-04 DE=-5.62D-06 OVMax= 6.08D-04

 Cycle   7  Pass 1  IDiag  3:
 E=-0.228733657465554E-01 Delta-E=       -0.000000320487 Rises=F Damp=F
 DIIS: error= 1.38D-05 at cycle   7 NSaved=   7.
 NSaved= 7 IEnMin= 7 EnMin=-0.228733657465554E-01 IErMin= 7 ErrMin= 1.38D-05
 ErrMax= 1.38D-05  0.00D+00 EMaxC= 1.00D-01 BMatC= 8.57D-09 BMatP= 2.20D-07
 IDIUse=1 WtCom= 1.00D+00 WtEn= 0.00D+00
 Coeff-Com:  0.148D-02-0.169D-01 0.522D-01-0.137D+00 0.479D+00-0.101D+01
 Coeff-Com:  0.163D+01
 Coeff:      0.148D-02-0.169D-01 0.522D-01-0.137D+00 0.479D+00-0.101D+01
 Coeff:      0.163D+01
 Gap=     0.598 Goal=   None    Shift=    0.000
 Gap=     0.344 Goal=   None    Shift=    0.000
 RMSDP=2.78D-05 MaxDP=9.44D-05 DE=-3.20D-07 OVMax= 9.84D-05

 Cycle   8  Pass 1  IDiag  3:
 E=-0.228733761310025E-01 Delta-E=       -0.000000010384 Rises=F Damp=F
 DIIS: error= 5.91D-06 at cycle   8 NSaved=   8.
 NSaved= 8 IEnMin= 8 EnMin=-0.228733761310025E-01 IErMin= 8 ErrMin= 5.91D-06
 ErrMax= 5.91D-06  0.00D+00 EMaxC= 1.00D-01 BMatC= 9.55D-10 BMatP= 8.57D-09
 IDIUse=1 WtCom= 1.00D+00 WtEn= 0.00D+00
 Coeff-Com: -0.209D-03 0.230D-02-0.550D-02 0.132D-01-0.503D-01 0.124D+00
 Coeff-Com: -0.312D+00 0.123D+01
 Coeff:     -0.209D-03 0.230D-02-0.550D-02 0.132D-01-0.503D-01 0.124D+00
 Coeff:     -0.312D+00 0.123D+01
 Gap=     0.598 Goal=   None    Shift=    0.000
 Gap=     0.344 Goal=   None    Shift=    0.000
 RMSDP=7.06D-06 MaxDP=2.62D-05 DE=-1.04D-08 OVMax= 3.02D-05

 Cycle   9  Pass 1  IDiag  3:
 E=-0.228733770409448E-01 Delta-E=       -0.000000000910 Rises=F Damp=F
 DIIS: error= 9.82D-07 at cycle   9 NSaved=   9.
 NSaved= 9 IEnMin= 9 EnMin=-0.228733770409448E-01 IErMin= 9 ErrMin= 9.82D-07
 ErrMax= 9.82D-07  0.00D+00 EMaxC= 1.00D-01 BMatC= 4.38D-11 BMatP= 9.55D-10
 IDIUse=1 WtCom= 1.00D+00 WtEn= 0.00D+00
 Coeff-Com: -0.405D-04 0.478D-03-0.225D-02 0.638D-02-0.201D-01 0.324D-01
 Coeff-Com: -0.183D-01-0.428D+00 0.143D+01
 Coeff:     -0.405D-04 0.478D-03-0.225D-02 0.638D-02-0.201D-01 0.324D-01
 Coeff:     -0.183D-01-0.428D+00 0.143D+01
 Gap=     0.598 Goal=   None    Shift=    0.000
 Gap=     0.344 Goal=   None    Shift=    0.000
 RMSDP=1.78D-06 MaxDP=6.05D-06 DE=-9.10D-10 OVMax= 8.44D-06

 Cycle  10  Pass 1  IDiag  3:
 E=-0.228733771040943E-01 Delta-E=       -0.000000000063 Rises=F Damp=F
 DIIS: error= 2.54D-07 at cycle  10 NSaved=  10.
 NSaved=10 IEnMin=10 EnMin=-0.228733771040943E-01 IErMin=10 ErrMin= 2.54D-07
 ErrMax= 2.54D-07  0.00D+00 EMaxC= 1.00D-01 BMatC= 2.80D-12 BMatP= 4.38D-11
 IDIUse=1 WtCom= 1.00D+00 WtEn= 0.00D+00
 Coeff-Com:  0.583D-05-0.777D-04 0.886D-03-0.271D-02 0.768D-02-0.800D-02
 Coeff-Com: -0.118D-01 0.369D+00-0.132D+01 0.197D+01
 Coeff:      0.583D-05-0.777D-04 0.886D-03-0.271D-02 0.768D-02-0.800D-02
 Coeff:     -0.118D-01 0.369D+00-0.132D+01 0.197D+01
 Gap=     0.598 Goal=   None    Shift=    0.000
 Gap=     0.344 Goal=   None    Shift=    0.000
 RMSDP=6.12D-07 MaxDP=2.18D-06 DE=-6.31D-11 OVMax= 2.30D-06

 Cycle  11  Pass 1  IDiag  3:
 E=-0.228733771102796E-01 Delta-E=       -0.000000000006 Rises=F Damp=F
 DIIS: error= 1.03D-07 at cycle  11 NSaved=  11.
 NSaved=11 IEnMin=11 EnMin=-0.228733771102796E-01 IErMin=11 ErrMin= 1.03D-07
 ErrMax= 1.03D-07  0.00D+00 EMaxC= 1.00D-01 BMatC= 4.28D-13 BMatP= 2.80D-12
 IDIUse=1 WtCom= 1.00D+00 WtEn= 0.00D+00
 Coeff-Com: -0.151D-04 0.186D-03-0.899D-03 0.256D-02-0.815D-02 0.127D-01
 Coeff-Com: -0.107D-01-0.158D+00 0.741D+00-0.145D+01 0.187D+01
 Coeff:     -0.151D-04 0.186D-03-0.899D-03 0.256D-02-0.815D-02 0.127D-01
 Coeff:     -0.107D-01-0.158D+00 0.741D+00-0.145D+01 0.187D+01
 Gap=     0.598 Goal=   None    Shift=    0.000
 Gap=     0.344 Goal=   None    Shift=    0.000
 RMSDP=2.40D-07 MaxDP=7.72D-07 DE=-6.19D-12 OVMax= 9.57D-07

 Cycle  12  Pass 1  IDiag  3:
 E=-0.228733771111500E-01 Delta-E=       -0.000000000001 Rises=F Damp=F
 DIIS: error= 2.95D-08 at cycle  12 NSaved=  12.
 NSaved=12 IEnMin=12 EnMin=-0.228733771111500E-01 IErMin=12 ErrMin= 2.95D-08
 ErrMax= 2.95D-08  0.00D+00 EMaxC= 1.00D-01 BMatC= 4.89D-14 BMatP= 4.28D-13
 IDIUse=1 WtCom= 1.00D+00 WtEn= 0.00D+00
 Coeff-Com:  0.117D-05-0.130D-04 0.449D-04-0.114D-03 0.392D-03-0.531D-03
 Coeff-Com:  0.159D-02 0.349D-03-0.506D-01 0.170D+00-0.530D+00 0.141D+01
 Coeff:      0.117D-05-0.130D-04 0.449D-04-0.114D-03 0.392D-03-0.531D-03
 Coeff:      0.159D-02 0.349D-03-0.506D-01 0.170D+00-0.530D+00 0.141D+01
 Gap=     0.598 Goal=   None    Shift=    0.000
 Gap=     0.344 Goal=   None    Shift=    0.000
 RMSDP=8.27D-08 MaxDP=2.89D-07 DE=-8.70D-13 OVMax= 0.00D+00

 Cycle  13  Pass 1  IDiag  3:
 E=-0.228733771112353E-01 Delta-E=       -0.000000000000 Rises=F Damp=F
 DIIS: error= 2.03D-08 at cycle  13 NSaved=  13.
 NSaved=13 IEnMin=13 EnMin=-0.228733771112353E-01 IErMin=13 ErrMin= 2.03D-08
 ErrMax= 2.03D-08  0.00D+00 EMaxC= 1.00D-01 BMatC= 7.65D-15 BMatP= 4.89D-14
 IDIUse=1 WtCom= 1.00D+00 WtEn= 0.00D+00
 Coeff-Com: -0.390D-07 0.100D-05-0.448D-05 0.921D-05-0.452D-04-0.118D-03
 Coeff-Com: -0.472D-03-0.191D-03 0.363D-01-0.113D+00 0.398D+00-0.140D+01
 Coeff-Com:  0.208D+01
 Coeff:     -0.390D-07 0.100D-05-0.448D-05 0.921D-05-0.452D-04-0.118D-03
 Coeff:     -0.472D-03-0.191D-03 0.363D-01-0.113D+00 0.398D+00-0.140D+01
 Coeff:      0.208D+01
 Gap=     0.598 Goal=   None    Shift=    0.000
 Gap=     0.344 Goal=   None    Shift=    0.000
 RMSDP=4.94D-08 MaxDP=2.66D-07 DE=-8.53D-14 OVMax= 5.75D-08

 Cycle  14  Pass 1  IDiag  3:
 E=-0.228733771112744E-01 Delta-E=       -0.000000000000 Rises=F Damp=F
 DIIS: error= 1.30D-08 at cycle  14 NSaved=  14.
 NSaved=14 IEnMin=14 EnMin=-0.228733771112744E-01 IErMin=14 ErrMin= 1.30D-08
 ErrMax= 1.30D-08  0.00D+00 EMaxC= 1.00D-01 BMatC= 2.09D-15 BMatP= 7.65D-15
 IDIUse=1 WtCom= 1.00D+00 WtEn= 0.00D+00
 Coeff-Com:  0.471D-06-0.636D-05 0.250D-04-0.620D-04 0.234D-03-0.153D-04
 Coeff-Com:  0.124D-02 0.195D-02-0.808D-01 0.239D+00-0.808D+00 0.283D+01
 Coeff-Com: -0.454D+01 0.335D+01
 Coeff:      0.471D-06-0.636D-05 0.250D-04-0.620D-04 0.234D-03-0.153D-04
 Coeff:      0.124D-02 0.195D-02-0.808D-01 0.239D+00-0.808D+00 0.283D+01
 Coeff:     -0.454D+01 0.335D+01
 Gap=     0.598 Goal=   None    Shift=    0.000
 Gap=     0.344 Goal=   None    Shift=    0.000
 RMSDP=5.18D-08 MaxDP=2.97D-07 DE=-3.91D-14 OVMax= 3.56D-07

 Cycle  15  Pass 1  IDiag  3:
 E=-0.228733771112779E-01 Delta-E=       -0.000000000000 Rises=F Damp=F
 DIIS: error= 5.34D-09 at cycle  15 NSaved=  15.
 NSaved=15 IEnMin=15 EnMin=-0.228733771112779E-01 IErMin=15 ErrMin= 5.34D-09
 ErrMax= 5.34D-09  0.00D+00 EMaxC= 1.00D-01 BMatC= 5.24D-16 BMatP= 2.09D-15
 IDIUse=1 WtCom= 1.00D+00 WtEn= 0.00D+00
 Coeff-Com: -0.242D-06 0.292D-05-0.900D-05 0.122D-04-0.755D-04-0.396D-03
 Coeff-Com: -0.114D-02-0.129D-03 0.938D-01-0.289D+00 0.104D+01-0.374D+01
 Coeff-Com:  0.613D+01-0.514D+01 0.290D+01
 Coeff:     -0.242D-06 0.292D-05-0.900D-05 0.122D-04-0.755D-04-0.396D-03
 Coeff:     -0.114D-02-0.129D-03 0.938D-01-0.289D+00 0.104D+01-0.374D+01
 Coeff:      0.613D+01-0.514D+01 0.290D+01
 Gap=     0.598 Goal=   None    Shift=    0.000
 Gap=     0.344 Goal=   None    Shift=    0.000
 RMSDP=3.31D-08 MaxDP=1.89D-07 DE=-3.55D-15 OVMax= 2.25D-07

 Cycle  16  Pass 1  IDiag  3:
 E=-0.228733771112921E-01 Delta-E=       -0.000000000000 Rises=F Damp=F
 DIIS: error= 1.11D-09 at cycle  16 NSaved=  16.
 NSaved=16 IEnMin=16 EnMin=-0.228733771112921E-01 IErMin=16 ErrMin= 1.11D-09
 ErrMax= 1.11D-09  0.00D+00 EMaxC= 1.00D-01 BMatC= 3.37D-17 BMatP= 5.24D-16
 IDIUse=1 WtCom= 1.00D+00 WtEn= 0.00D+00
 Large coefficients: NSaved= 16 BigCof=    0.00 CofMax=   10.00 Det=-3.14D-19
 Inversion failed.  Reducing to 15 matrices.
 Coeff-Com: -0.565D-07 0.204D-06 0.842D-05-0.372D-05 0.446D-03 0.665D-03
 Coeff-Com:  0.538D-03-0.744D-01 0.227D+00-0.818D+00 0.296D+01-0.490D+01
 Coeff-Com:  0.420D+01-0.250D+01 0.191D+01
 Coeff:     -0.565D-07 0.204D-06 0.842D-05-0.372D-05 0.446D-03 0.665D-03
 Coeff:      0.538D-03-0.744D-01 0.227D+00-0.818D+00 0.296D+01-0.490D+01
 Coeff:      0.420D+01-0.250D+01 0.191D+01
 Gap=     0.598 Goal=   None    Shift=    0.000
 Gap=     0.344 Goal=   None    Shift=    0.000
 RMSDP=2.35D-09 MaxDP=1.10D-08 DE=-1.42D-14 OVMax= 0.00D+00

 SCF Done:  E(UPM6) = -0.228733771113E-01 A.U. after   16 cycles
            NFock= 16  Conv=0.24D-08     -V/T= 0.9989
 <Sx>= 0.0000 <Sy>= 0.0000 <Sz>= 0.5000 <S**2>= 0.7692 S= 0.5096
 <L.S>= 0.000000000000E+00
 KE=-2.027610298399D+01 PE=-1.146525899002D+01 EE= 1.300251589656D+01
 Annihilation of the first spin contaminant:
 S**2 before annihilation     0.7692,   after     0.7501
 Leave Link  502 at Wed Oct 28 15:46:40 2020, MaxMem=  2684354560 cpu:               0.8 elap:               0.1
 (Enter /udrive/faculty/rpeverati/g16/g16/l508.exe)
 QCSCF skips out because SCF is already converged.
 Leave Link  508 at Wed Oct 28 15:46:40 2020, MaxMem=  2684354560 cpu:               0.1 elap:               0.1
 (Enter /udrive/faculty/rpeverati/g16/g16/l601.exe)
 Copying SCF densities to generalized density rwf, IOpCl= 1 IROHF=0.

 **********************************************************************

            Population analysis using the SCF density.

 **********************************************************************

 Orbital symmetries:
 Alpha Orbitals:
       Occupied  (A) (A) (A) (A) (A)
       Virtual   (A) (A)
 Beta  Orbitals:
       Occupied  (A) (A) (A) (A)
       Virtual   (A) (A) (A)
 The electronic state is 2-A.
 Alpha  occ. eigenvalues --   -1.10568  -0.67493  -0.58736  -0.43553  -0.42785
 Alpha virt. eigenvalues --    0.16967   0.21580
  Beta  occ. eigenvalues --   -0.99420  -0.60039  -0.53074  -0.37966
  Beta virt. eigenvalues --   -0.03599   0.19901   0.23990
          Condensed to atoms (all electrons):
               1          2          3          4
     1  O    6.471139   0.000000   0.000000   0.000000
     2  H    0.000000   0.734503   0.000000   0.000000
     3  H    0.000000   0.000000   0.881246   0.000000
     4  H    0.000000   0.000000   0.000000   0.913112
          Atomic-Atomic Spin Densities.
               1          2          3          4
     1  O    0.766700   0.000000   0.000000   0.000000
     2  H    0.000000  -0.054048   0.000000   0.000000
     3  H    0.000000   0.000000  -0.082330   0.000000
     4  H    0.000000   0.000000   0.000000   0.369678
 Mulliken charges and spin densities:
               1          2
     1  O   -0.471139   0.766700
     2  H    0.265497  -0.054048
     3  H    0.118754  -0.082330
     4  H    0.086888   0.369678
 Sum of Mulliken charges =   0.00000   1.00000
 Mulliken charges and spin densities with hydrogens summed into heavy atoms:
               1          2
     1  O    0.000000   1.000000
 Charge=              0.0000 electrons
 Dipole moment (field-independent basis, Debye):
    X=              1.5398    Y=              1.6085    Z=              0.0001  Tot=              2.2267
 N-N= 1.871597270034D+01 E-N=-1.146525898750D+01  KE=-2.027610298399D+01
 Leave Link  601 at Wed Oct 28 15:46:40 2020, MaxMem=  2684354560 cpu:               0.3 elap:               0.1
 (Enter /udrive/faculty/rpeverati/g16/g16/l701.exe)
 ... and contract with generalized density number  0.
 Compute integral first derivatives.
 Leave Link  701 at Wed Oct 28 15:46:41 2020, MaxMem=  2684354560 cpu:               0.9 elap:               0.1
 (Enter /udrive/faculty/rpeverati/g16/g16/l702.exe)
 L702 exits ... SP integral derivatives will be done elsewhere.
 Leave Link  702 at Wed Oct 28 15:46:41 2020, MaxMem=  2684354560 cpu:               0.3 elap:               0.1
 (Enter /udrive/faculty/rpeverati/g16/g16/l703.exe)
 Integral derivatives from FoFJK, PRISM(SPDF).
 Compute integral first derivatives, UseDBF=F ICtDFT=           0.
 Calling FoFJK, ICntrl=      2127 FMM=F ISym2X=0 I1Cent= 0 IOpClX= 1 NMat=1 NMatS=1 NMatT=0.
 FoFJK:  IHMeth=40 ICntrl=    2127 DoSepK=F KAlg= 0 I1Cent=           0 FoldK=F
 IRaf=         0 NMat=       1 IRICut=       1 DoRegI=T DoRafI=F ISym2E= 0 IDoP0=3 IntGTp=3.
 FoFCou: FMM=F IPFlag=           0 FMFlag=      100000 FMFlg1=         800
         NFxFlg=           0 DoJE=F BraDBF=F KetDBF=F FulRan=T
         wScrn=  0.000000 ICntrl=      2127 IOpCl=  1 I1Cent=           0 NGrid=           0
         NMat0=    1 NMatS0=      1 NMatT0=    0 NMatD0=    1 NMtDS0=    0 NMtDT0=    0
 Symmetry not used in FoFCou.
 Leave Link  703 at Wed Oct 28 15:46:41 2020, MaxMem=  2684354560 cpu:               0.4 elap:               0.1
 (Enter /udrive/faculty/rpeverati/g16/g16/l716.exe)
 Dipole        = 6.05789298D-01 6.32844376D-01 3.59370474D-05
 ***** Axes restored to original set *****
 -------------------------------------------------------------------
 Center     Atomic                   Forces (Hartrees/Bohr)
 Number     Number              X              Y              Z
 -------------------------------------------------------------------
      1        8          -0.001458502    0.002594013   -0.000001275
      2        1          -0.004536333    0.001087246   -0.000000255
      3        1           0.016531071   -0.001728844    0.000000751
      4        1          -0.010536236   -0.001952415    0.000000780
 -------------------------------------------------------------------
 Cartesian Forces:  Max     0.016531071 RMS     0.005928083
 Leave Link  716 at Wed Oct 28 15:46:41 2020, MaxMem=  2684354560 cpu:               0.4 elap:               0.1
 (Enter /udrive/faculty/rpeverati/g16/g16/l103.exe)

 GradGradGradGradGradGradGradGradGradGradGradGradGradGradGradGradGradGrad
 Berny optimization.
 Optmz: redundant internal coordinate code flag= 1
 FormGI is forming the generalized inverse of G from B-inverse, IUseBI=4.
 Internal  Forces:  Max     0.010684725 RMS     0.006023968
 Numerically estimating second derivatives.
 Iteration  1 RMS(Cart)=  0.00200600 RMS(Int)=  0.00000028
 Iteration  2 RMS(Cart)=  0.00000023 RMS(Int)=  0.00000000
 Largest change from initial coordinates is atom    1       0.001 Angstoms.
 GradGradGradGradGradGradGradGradGradGradGradGradGradGradGradGradGradGrad

 Leave Link  103 at Wed Oct 28 15:46:41 2020, MaxMem=  2684354560 cpu:               0.3 elap:               0.1
 (Enter /udrive/faculty/rpeverati/g16/g16/l202.exe)
                          Input orientation:                          
 ---------------------------------------------------------------------
 Center     Atomic      Atomic             Coordinates (Angstroms)
 Number     Number       Type             X           Y           Z
 ---------------------------------------------------------------------
      1          8           0       -0.302459   -0.107857   -0.000008
      2          1           0       -0.429108    0.851790    0.000016
      3          1           0        1.016739   -0.100477    0.000119
      4          1           0        1.822272    0.112883   -0.000073
 ---------------------------------------------------------------------
                    Distance matrix (angstroms):
                    1          2          3          4
     1  O    0.000000
     2  H    0.967968   0.000000
     3  H    1.319218   1.731267   0.000000
     4  H    2.136167   2.369535   0.833310   0.000000
 Stoichiometry    H3O(2)
 Framework group  C1[X(H3O)]
 Deg. of freedom     6
 Full point group                 C1      NOp   1
 RotChk:  IX=0 Diff= 3.15D-04
 Largest Abelian subgroup         C1      NOp   1
 Largest concise Abelian subgroup C1      NOp   1
                         Standard orientation:                         
 ---------------------------------------------------------------------
 Center     Atomic      Atomic             Coordinates (Angstroms)
 Number     Number       Type             X           Y           Z
 ---------------------------------------------------------------------
      1          8           0       -0.301547   -0.108046   -0.000008
      2          1           0       -0.428409    0.851573    0.000016
      3          1           0        1.017649   -0.100373    0.000119
      4          1           0        1.823135    0.113167   -0.000073
 ---------------------------------------------------------------------
 Rotational constants (GHZ):         563.2102922          88.0943338          76.1788475
 Leave Link  202 at Wed Oct 28 15:46:41 2020, MaxMem=  2684354560 cpu:               0.2 elap:               0.1
 (Enter /udrive/faculty/rpeverati/g16/g16/l301.exe)
 Standard basis: VSTO-6G (5D, 7F)
 Ernie: Thresh=  0.10000D-02 Tol=  0.10000D-05 Strict=F.
  NNHCO=     0 NNPyr=     0 NCTC=     0               EPep=         0.000000000
    EC=         6.143149206  ECS=         0.429166800   EG=         0.003020630
   EHC=         0.000308963  EAt=       -11.791685415  AtH=         0.344002774
 EPDDG=         0.000000000  ECC=         6.575645599 EAtT=        12.135688189
 There are     7 symmetry adapted cartesian basis functions of A   symmetry.
 There are     7 symmetry adapted basis functions of A   symmetry.
     7 basis functions,    42 primitive gaussians,     7 cartesian basis functions
     5 alpha electrons        4 beta electrons
       nuclear repulsion energy        18.7113337880 Hartrees.
 IExCor=    0 DFT=F Ex=HF Corr=None ExCW=0 ScaHFX=  1.000000
 ScaDFX=  1.000000  1.000000  1.000000  1.000000 ScalE2=  1.000000  1.000000
 IRadAn=      5 IRanWt=     -1 IRanGd=            0 ICorTp=0 IEmpDi=  4
 Integral buffers will be    131072 words long.
 Regular integral format.
 Two-electron integral symmetry is turned off.
 Leave Link  301 at Wed Oct 28 15:46:41 2020, MaxMem=  2684354560 cpu:               0.9 elap:               0.1
 (Enter /udrive/faculty/rpeverati/g16/g16/l302.exe)
 Do NDO integrals.
 NPDir=0 NMtPBC=     1 NCelOv=     1 NCel=       1 NClECP=     1 NCelD=      1
         NCelK=      1 NCelE2=     1 NClLst=     1 CellRange=     0.0.
 One-electron integrals computed using PRISM.
 NBasis=     7 RedAO= F EigKep=  0.00D+00  NBF=     7
 NBsUse=     7 1.00D-04 EigRej=  0.00D+00 NBFU=     7
 Leave Link  302 at Wed Oct 28 15:46:41 2020, MaxMem=  2684354560 cpu:               0.9 elap:               0.1
 (Enter /udrive/faculty/rpeverati/g16/g16/l303.exe)
 DipDrv:  MaxL=1.
 Leave Link  303 at Wed Oct 28 15:46:41 2020, MaxMem=  2684354560 cpu:               0.4 elap:               0.1
 (Enter /udrive/faculty/rpeverati/g16/g16/l401.exe)
 Initial guess from the checkpoint file:  "MN_79_RKT02_BH76_PM6_SE.chk"
 SCF N**3 symmetry information disabled.
 B after Tr=    -0.000000    0.000000    0.000000
         Rot=    1.000000   -0.000000   -0.000000    0.000008 Ang=  -0.00 deg.
 Guess basis will be translated and rotated to current coordinates.
 JPrj=0 DoOrth=T DoCkMO=T.
 Initial guess <Sx>= 0.0000 <Sy>= 0.0000 <Sz>= 0.5000 <S**2>= 0.7692 S= 0.5096
 Leave Link  401 at Wed Oct 28 15:46:42 2020, MaxMem=  2684354560 cpu:               1.1 elap:               0.1
 (Enter /udrive/faculty/rpeverati/g16/g16/l502.exe)
 Keep J ints in memory in canonical form, NReq=859173.
 FoFCou: FMM=F IPFlag=           0 FMFlag=           0 FMFlg1=           0
         NFxFlg=           0 DoJE=F BraDBF=F KetDBF=F FulRan=T
         wScrn=  0.000000 ICntrl=       600 IOpCl=  2 I1Cent=           0 NGrid=           0
         NMat0=    1 NMatS0=     13 NMatT0=    0 NMatD0=    1 NMtDS0=    0 NMtDT0=    0
 Symmetry not used in FoFCou.
 Two-electron integral symmetry not used.
 UHF open shell SCF:
 Using DIIS extrapolation, IDIIS=  1040.
 Overlap will be assumed to be unity.
 NGot=  2684354560 LenX=  2684294088 LenY=  2684293206
 Requested convergence on RMS density matrix=1.00D-08 within 120 cycles.
 Requested convergence on MAX density matrix=1.00D-06.
 Requested convergence on             energy=1.00D-06.
 No special actions if energy rises.

 Cycle   1  Pass 1  IDiag  1:
 E=-0.229007595827220E-01
 DIIS: error= 1.68D-04 at cycle   1 NSaved=   1.
 NSaved= 1 IEnMin= 1 EnMin=-0.229007595827220E-01 IErMin= 1 ErrMin= 1.68D-04
 ErrMax= 1.68D-04  0.00D+00 EMaxC= 1.00D-01 BMatC= 1.23D-06 BMatP= 1.23D-06
 IDIUse=3 WtCom= 9.98D-01 WtEn= 1.68D-03
 Coeff-Com:  0.100D+01
 Coeff-En:   0.100D+01
 Coeff:      0.100D+01
 RMSDP=1.52D-04 MaxDP=6.58D-04              OVMax= 0.00D+00

 Cycle   2  Pass 1  IDiag  3:
 E=-0.229019424455856E-01 Delta-E=       -0.000001182863 Rises=F Damp=F
 DIIS: error= 9.32D-05 at cycle   2 NSaved=   2.
 NSaved= 2 IEnMin= 2 EnMin=-0.229019424455856E-01 IErMin= 2 ErrMin= 9.32D-05
 ErrMax= 9.32D-05  0.00D+00 EMaxC= 1.00D-01 BMatC= 2.89D-07 BMatP= 1.23D-06
 IDIUse=1 WtCom= 1.00D+00 WtEn= 0.00D+00
 Coeff-Com: -0.565D+00 0.156D+01
 Coeff:     -0.565D+00 0.156D+01
 Gap=     0.598 Goal=   None    Shift=    0.000
 Gap=     0.343 Goal=   None    Shift=    0.000
 RMSDP=1.39D-04 MaxDP=6.34D-04 DE=-1.18D-06 OVMax= 6.44D-04

 Cycle   3  Pass 1  IDiag  3:
 E=-0.229024558380537E-01 Delta-E=       -0.000000513392 Rises=F Damp=F
 DIIS: error= 4.61D-05 at cycle   3 NSaved=   3.
 NSaved= 3 IEnMin= 3 EnMin=-0.229024558380537E-01 IErMin= 3 ErrMin= 4.61D-05
 ErrMax= 4.61D-05  0.00D+00 EMaxC= 1.00D-01 BMatC= 5.93D-08 BMatP= 2.89D-07
 IDIUse=1 WtCom= 1.00D+00 WtEn= 0.00D+00
 Coeff-Com:  0.511D+00-0.178D+01 0.227D+01
 Coeff:      0.511D+00-0.178D+01 0.227D+01
 Gap=     0.598 Goal=   None    Shift=    0.000
 Gap=     0.343 Goal=   None    Shift=    0.000
 RMSDP=1.10D-04 MaxDP=4.53D-04 DE=-5.13D-07 OVMax= 4.77D-04

 Cycle   4  Pass 1  IDiag  3:
 E=-0.229026051417307E-01 Delta-E=       -0.000000149304 Rises=F Damp=F
 DIIS: error= 1.62D-05 at cycle   4 NSaved=   4.
 NSaved= 4 IEnMin= 4 EnMin=-0.229026051417307E-01 IErMin= 4 ErrMin= 1.62D-05
 ErrMax= 1.62D-05  0.00D+00 EMaxC= 1.00D-01 BMatC= 4.27D-09 BMatP= 5.93D-08
 IDIUse=1 WtCom= 1.00D+00 WtEn= 0.00D+00
 Coeff-Com: -0.481D+00 0.172D+01-0.236D+01 0.212D+01
 Coeff:     -0.481D+00 0.172D+01-0.236D+01 0.212D+01
 Gap=     0.598 Goal=   None    Shift=    0.000
 Gap=     0.343 Goal=   None    Shift=    0.000
 RMSDP=2.46D-05 MaxDP=1.22D-04 DE=-1.49D-07 OVMax= 8.62D-05

 Cycle   5  Pass 1  IDiag  3:
 E=-0.229026130541605E-01 Delta-E=       -0.000000007912 Rises=F Damp=F
 DIIS: error= 1.44D-06 at cycle   5 NSaved=   5.
 NSaved= 5 IEnMin= 5 EnMin=-0.229026130541605E-01 IErMin= 5 ErrMin= 1.44D-06
 ErrMax= 1.44D-06  0.00D+00 EMaxC= 1.00D-01 BMatC= 9.28D-11 BMatP= 4.27D-09
 IDIUse=1 WtCom= 1.00D+00 WtEn= 0.00D+00
 Coeff-Com:  0.275D+00-0.987D+00 0.136D+01-0.129D+01 0.165D+01
 Coeff:      0.275D+00-0.987D+00 0.136D+01-0.129D+01 0.165D+01
 Gap=     0.598 Goal=   None    Shift=    0.000
 Gap=     0.343 Goal=   None    Shift=    0.000
 RMSDP=2.59D-06 MaxDP=1.01D-05 DE=-7.91D-09 OVMax= 8.74D-06

 Cycle   6  Pass 1  IDiag  3:
 E=-0.229026131741783E-01 Delta-E=       -0.000000000120 Rises=F Damp=F
 DIIS: error= 1.29D-07 at cycle   6 NSaved=   6.
 NSaved= 6 IEnMin= 6 EnMin=-0.229026131741783E-01 IErMin= 6 ErrMin= 1.29D-07
 ErrMax= 1.29D-07  0.00D+00 EMaxC= 1.00D-01 BMatC= 9.12D-13 BMatP= 9.28D-11
 IDIUse=1 WtCom= 1.00D+00 WtEn= 0.00D+00
 Coeff-Com: -0.136D+00 0.486D+00-0.669D+00 0.638D+00-0.847D+00 0.153D+01
 Coeff:     -0.136D+00 0.486D+00-0.669D+00 0.638D+00-0.847D+00 0.153D+01
 Gap=     0.598 Goal=   None    Shift=    0.000
 Gap=     0.343 Goal=   None    Shift=    0.000
 RMSDP=2.16D-07 MaxDP=6.93D-07 DE=-1.20D-10 OVMax= 0.00D+00

 Cycle   7  Pass 1  IDiag  3:
 E=-0.229026131752867E-01 Delta-E=       -0.000000000001 Rises=F Damp=F
 DIIS: error= 3.96D-08 at cycle   7 NSaved=   7.
 NSaved= 7 IEnMin= 7 EnMin=-0.229026131752867E-01 IErMin= 7 ErrMin= 3.96D-08
 ErrMax= 3.96D-08  0.00D+00 EMaxC= 1.00D-01 BMatC= 4.24D-14 BMatP= 9.12D-13
 IDIUse=1 WtCom= 1.00D+00 WtEn= 0.00D+00
 Coeff-Com:  0.659D-01-0.236D+00 0.325D+00-0.309D+00 0.413D+00-0.862D+00
 Coeff-Com:  0.160D+01
 Coeff:      0.659D-01-0.236D+00 0.325D+00-0.309D+00 0.413D+00-0.862D+00
 Coeff:      0.160D+01
 Gap=     0.598 Goal=   None    Shift=    0.000
 Gap=     0.343 Goal=   None    Shift=    0.000
 RMSDP=5.43D-08 MaxDP=2.07D-07 DE=-1.11D-12 OVMax= 0.00D+00

 Cycle   8  Pass 1  IDiag  3:
 E=-0.229026131753542E-01 Delta-E=       -0.000000000000 Rises=F Damp=F
 DIIS: error= 6.76D-09 at cycle   8 NSaved=   8.
 NSaved= 8 IEnMin= 8 EnMin=-0.229026131753542E-01 IErMin= 8 ErrMin= 6.76D-09
 ErrMax= 6.76D-09  0.00D+00 EMaxC= 1.00D-01 BMatC= 1.20D-15 BMatP= 4.24D-14
 IDIUse=1 WtCom= 1.00D+00 WtEn= 0.00D+00
 Coeff-Com: -0.247D-01 0.884D-01-0.122D+00 0.116D+00-0.155D+00 0.331D+00
 Coeff-Com: -0.720D+00 0.149D+01
 Coeff:     -0.247D-01 0.884D-01-0.122D+00 0.116D+00-0.155D+00 0.331D+00
 Coeff:     -0.720D+00 0.149D+01
 Gap=     0.598 Goal=   None    Shift=    0.000
 Gap=     0.343 Goal=   None    Shift=    0.000
 RMSDP=8.75D-09 MaxDP=3.86D-08 DE=-6.75D-14 OVMax= 0.00D+00

 SCF Done:  E(UPM6) = -0.229026131754E-01 A.U. after    8 cycles
            NFock=  8  Conv=0.88D-08     -V/T= 0.9989
 <Sx>= 0.0000 <Sy>= 0.0000 <Sz>= 0.5000 <S**2>= 0.7692 S= 0.5095
 <L.S>= 0.000000000000E+00
 KE=-2.027273610683D+01 PE=-1.146003202252D+01 EE= 1.299853172822D+01
 Annihilation of the first spin contaminant:
 S**2 before annihilation     0.7692,   after     0.7501
 Leave Link  502 at Wed Oct 28 15:46:42 2020, MaxMem=  2684354560 cpu:               0.6 elap:               0.1
 (Enter /udrive/faculty/rpeverati/g16/g16/l508.exe)
 QCSCF skips out because SCF is already converged.
 Leave Link  508 at Wed Oct 28 15:46:42 2020, MaxMem=  2684354560 cpu:               0.1 elap:               0.0
 (Enter /udrive/faculty/rpeverati/g16/g16/l701.exe)
 ... and contract with generalized density number  0.
 Compute integral first derivatives.
 Leave Link  701 at Wed Oct 28 15:46:42 2020, MaxMem=  2684354560 cpu:               0.9 elap:               0.1
 (Enter /udrive/faculty/rpeverati/g16/g16/l702.exe)
 L702 exits ... SP integral derivatives will be done elsewhere.
 Leave Link  702 at Wed Oct 28 15:46:42 2020, MaxMem=  2684354560 cpu:               0.3 elap:               0.1
 (Enter /udrive/faculty/rpeverati/g16/g16/l703.exe)
 Integral derivatives from FoFJK, PRISM(SPDF).
 Compute integral first derivatives, UseDBF=F ICtDFT=           0.
 Calling FoFJK, ICntrl=      2127 FMM=F ISym2X=0 I1Cent= 0 IOpClX= 1 NMat=1 NMatS=1 NMatT=0.
 FoFJK:  IHMeth=40 ICntrl=    2127 DoSepK=F KAlg= 0 I1Cent=           0 FoldK=F
 IRaf=         0 NMat=       1 IRICut=       1 DoRegI=T DoRafI=F ISym2E= 0 IDoP0=3 IntGTp=3.
 FoFCou: FMM=F IPFlag=           0 FMFlag=      100000 FMFlg1=         800
         NFxFlg=           0 DoJE=F BraDBF=F KetDBF=F FulRan=T
         wScrn=  0.000000 ICntrl=      2127 IOpCl=  1 I1Cent=           0 NGrid=           0
         NMat0=    1 NMatS0=      1 NMatT0=    0 NMatD0=    1 NMtDS0=    0 NMtDT0=    0
 Symmetry not used in FoFCou.
 Leave Link  703 at Wed Oct 28 15:46:42 2020, MaxMem=  2684354560 cpu:               0.4 elap:               0.1
 (Enter /udrive/faculty/rpeverati/g16/g16/l716.exe)
 Dipole        = 6.03486434D-01 6.32595281D-01 3.56897110D-05
 ***** Axes restored to original set *****
 -------------------------------------------------------------------
 Center     Atomic                   Forces (Hartrees/Bohr)
 Number     Number              X              Y              Z
 -------------------------------------------------------------------
      1        8          -0.001254293    0.002538681   -0.000001257
      2        1          -0.004488063    0.001105673   -0.000000250
      3        1           0.016773104   -0.001570635    0.000000613
      4        1          -0.011030748   -0.002073719    0.000000894
 -------------------------------------------------------------------
 Cartesian Forces:  Max     0.016773104 RMS     0.006049552
 Leave Link  716 at Wed Oct 28 15:46:42 2020, MaxMem=  2684354560 cpu:               0.3 elap:               0.1
 (Enter /udrive/faculty/rpeverati/g16/g16/l103.exe)

 GradGradGradGradGradGradGradGradGradGradGradGradGradGradGradGradGradGrad
 Berny optimization.
 Optmz: redundant internal coordinate code flag= 1
 Red2BG:  D1=  3.36D-01 OD1=  1.73D-03 B2RMS=  0.00D+00 IAprox=0
 FormGI is forming the generalized inverse of G from B-inverse, IUseBI=4.
 Internal  Forces:  Max     0.011194006 RMS     0.006117612
 Numerically estimating second derivatives.
 Iteration  1 RMS(Cart)=  0.00172029 RMS(Int)=  0.00000034
 Iteration  2 RMS(Cart)=  0.00000031 RMS(Int)=  0.00000000
 Largest change from initial coordinates is atom    3       0.001 Angstoms.
 GradGradGradGradGradGradGradGradGradGradGradGradGradGradGradGradGradGrad

 Leave Link  103 at Wed Oct 28 15:46:42 2020, MaxMem=  2684354560 cpu:               0.3 elap:               0.1
 (Enter /udrive/faculty/rpeverati/g16/g16/l202.exe)
                          Input orientation:                          
 ---------------------------------------------------------------------
 Center     Atomic      Atomic             Coordinates (Angstroms)
 Number     Number       Type             X           Y           Z
 ---------------------------------------------------------------------
      1          8           0       -0.300348   -0.108094   -0.000008
      2          1           0       -0.427477    0.851489    0.000016
      3          1           0        1.016200   -0.100070    0.000119
      4          1           0        1.819069    0.113015   -0.000073
 ---------------------------------------------------------------------
                    Distance matrix (angstroms):
                    1          2          3          4
     1  O    0.000000
     2  H    0.967968   0.000000
     3  H    1.316572   1.729066   0.000000
     4  H    2.130919   2.364807   0.830665   0.000000
 Stoichiometry    H3O(2)
 Framework group  C1[X(H3O)]
 Deg. of freedom     6
 Full point group                 C1      NOp   1
 RotChk:  IX=0 Diff= 1.94D-04
 Largest Abelian subgroup         C1      NOp   1
 Largest concise Abelian subgroup C1      NOp   1
                         Standard orientation:                         
 ---------------------------------------------------------------------
 Center     Atomic      Atomic             Coordinates (Angstroms)
 Number     Number       Type             X           Y           Z
 ---------------------------------------------------------------------
      1          8           0       -0.300794   -0.108091   -0.000008
      2          1           0       -0.428005    0.851482    0.000016
      3          1           0        1.015753   -0.099955    0.000119
      4          1           0        1.818604    0.113198   -0.000073
 ---------------------------------------------------------------------
 Rotational constants (GHZ):         563.2835068          88.5048581          76.4869854
 Leave Link  202 at Wed Oct 28 15:46:42 2020, MaxMem=  2684354560 cpu:               0.2 elap:               0.1
 (Enter /udrive/faculty/rpeverati/g16/g16/l301.exe)
 Standard basis: VSTO-6G (5D, 7F)
 Ernie: Thresh=  0.10000D-02 Tol=  0.10000D-05 Strict=F.
  NNHCO=     0 NNPyr=     0 NCTC=     0               EPep=         0.000000000
    EC=         6.148906085  ECS=         0.431049744   EG=         0.003028838
   EHC=         0.000309658  EAt=       -11.791685415  AtH=         0.344002774
 EPDDG=         0.000000000  ECC=         6.583294324 EAtT=        12.135688189
 There are     7 symmetry adapted cartesian basis functions of A   symmetry.
 There are     7 symmetry adapted basis functions of A   symmetry.
     7 basis functions,    42 primitive gaussians,     7 cartesian basis functions
     5 alpha electrons        4 beta electrons
       nuclear repulsion energy        18.7189825130 Hartrees.
 IExCor=    0 DFT=F Ex=HF Corr=None ExCW=0 ScaHFX=  1.000000
 ScaDFX=  1.000000  1.000000  1.000000  1.000000 ScalE2=  1.000000  1.000000
 IRadAn=      5 IRanWt=     -1 IRanGd=            0 ICorTp=0 IEmpDi=  4
 Integral buffers will be    131072 words long.
 Regular integral format.
 Two-electron integral symmetry is turned off.
 Leave Link  301 at Wed Oct 28 15:46:43 2020, MaxMem=  2684354560 cpu:               0.9 elap:               0.1
 (Enter /udrive/faculty/rpeverati/g16/g16/l302.exe)
 Do NDO integrals.
 NPDir=0 NMtPBC=     1 NCelOv=     1 NCel=       1 NClECP=     1 NCelD=      1
         NCelK=      1 NCelE2=     1 NClLst=     1 CellRange=     0.0.
 One-electron integrals computed using PRISM.
 NBasis=     7 RedAO= F EigKep=  0.00D+00  NBF=     7
 NBsUse=     7 1.00D-04 EigRej=  0.00D+00 NBFU=     7
 Leave Link  302 at Wed Oct 28 15:46:43 2020, MaxMem=  2684354560 cpu:               0.9 elap:               0.1
 (Enter /udrive/faculty/rpeverati/g16/g16/l303.exe)
 DipDrv:  MaxL=1.
 Leave Link  303 at Wed Oct 28 15:46:43 2020, MaxMem=  2684354560 cpu:               0.4 elap:               0.1
 (Enter /udrive/faculty/rpeverati/g16/g16/l401.exe)
 Initial guess from the checkpoint file:  "MN_79_RKT02_BH76_PM6_SE.chk"
 SCF N**3 symmetry information disabled.
 B after Tr=     0.000000   -0.000000    0.000000
         Rot=    1.000000    0.000000    0.000000   -0.000103 Ang=   0.01 deg.
 Guess basis will be translated and rotated to current coordinates.
 JPrj=0 DoOrth=T DoCkMO=T.
 Initial guess <Sx>= 0.0000 <Sy>= 0.0000 <Sz>= 0.5000 <S**2>= 0.7692 S= 0.5095
 Leave Link  401 at Wed Oct 28 15:46:43 2020, MaxMem=  2684354560 cpu:               1.1 elap:               0.1
 (Enter /udrive/faculty/rpeverati/g16/g16/l502.exe)
 Keep J ints in memory in canonical form, NReq=859173.
 FoFCou: FMM=F IPFlag=           0 FMFlag=           0 FMFlg1=           0
         NFxFlg=           0 DoJE=F BraDBF=F KetDBF=F FulRan=T
         wScrn=  0.000000 ICntrl=       600 IOpCl=  2 I1Cent=           0 NGrid=           0
         NMat0=    1 NMatS0=     13 NMatT0=    0 NMatD0=    1 NMtDS0=    0 NMtDT0=    0
 Symmetry not used in FoFCou.
 Two-electron integral symmetry not used.
 UHF open shell SCF:
 Using DIIS extrapolation, IDIIS=  1040.
 Overlap will be assumed to be unity.
 NGot=  2684354560 LenX=  2684294088 LenY=  2684293206
 Requested convergence on RMS density matrix=1.00D-08 within 120 cycles.
 Requested convergence on MAX density matrix=1.00D-06.
 Requested convergence on             energy=1.00D-06.
 No special actions if energy rises.

 Cycle   1  Pass 1  IDiag  1:
 E=-0.229222629675014E-01
 DIIS: error= 1.29D-04 at cycle   1 NSaved=   1.
 NSaved= 1 IEnMin= 1 EnMin=-0.229222629675014E-01 IErMin= 1 ErrMin= 1.29D-04
 ErrMax= 1.29D-04  0.00D+00 EMaxC= 1.00D-01 BMatC= 5.88D-07 BMatP= 5.88D-07
 IDIUse=3 WtCom= 9.99D-01 WtEn= 1.29D-03
 Coeff-Com:  0.100D+01
 Coeff-En:   0.100D+01
 Coeff:      0.100D+01
 RMSDP=8.64D-05 MaxDP=2.89D-04              OVMax= 0.00D+00

 Cycle   2  Pass 1  IDiag  3:
 E=-0.229226940543725E-01 Delta-E=       -0.000000431087 Rises=F Damp=F
 DIIS: error= 4.94D-05 at cycle   2 NSaved=   2.
 NSaved= 2 IEnMin= 2 EnMin=-0.229226940543725E-01 IErMin= 2 ErrMin= 4.94D-05
 ErrMax= 4.94D-05  0.00D+00 EMaxC= 1.00D-01 BMatC= 7.96D-08 BMatP= 5.88D-07
 IDIUse=1 WtCom= 1.00D+00 WtEn= 0.00D+00
 Coeff-Com: -0.436D+00 0.144D+01
 Coeff:     -0.436D+00 0.144D+01
 Gap=     0.598 Goal=   None    Shift=    0.000
 Gap=     0.344 Goal=   None    Shift=    0.000
 RMSDP=5.49D-05 MaxDP=2.34D-04 DE=-4.31D-07 OVMax= 1.81D-04

 Cycle   3  Pass 1  IDiag  3:
 E=-0.229227871034396E-01 Delta-E=       -0.000000093049 Rises=F Damp=F
 DIIS: error= 1.62D-05 at cycle   3 NSaved=   3.
 NSaved= 3 IEnMin= 3 EnMin=-0.229227871034396E-01 IErMin= 3 ErrMin= 1.62D-05
 ErrMax= 1.62D-05  0.00D+00 EMaxC= 1.00D-01 BMatC= 6.53D-09 BMatP= 7.96D-08
 IDIUse=1 WtCom= 1.00D+00 WtEn= 0.00D+00
 Coeff-Com:  0.274D+00-0.108D+01 0.181D+01
 Coeff:      0.274D+00-0.108D+01 0.181D+01
 Gap=     0.598 Goal=   None    Shift=    0.000
 Gap=     0.344 Goal=   None    Shift=    0.000
 RMSDP=2.48D-05 MaxDP=1.15D-04 DE=-9.30D-08 OVMax= 9.26D-05

 Cycle   4  Pass 1  IDiag  3:
 E=-0.229227974243393E-01 Delta-E=       -0.000000010321 Rises=F Damp=F
 DIIS: error= 1.71D-06 at cycle   4 NSaved=   4.
 NSaved= 4 IEnMin= 4 EnMin=-0.229227974243393E-01 IErMin= 4 ErrMin= 1.71D-06
 ErrMax= 1.71D-06  0.00D+00 EMaxC= 1.00D-01 BMatC= 1.61D-10 BMatP= 6.53D-09
 IDIUse=1 WtCom= 1.00D+00 WtEn= 0.00D+00
 Coeff-Com: -0.187D+00 0.743D+00-0.128D+01 0.172D+01
 Coeff:     -0.187D+00 0.743D+00-0.128D+01 0.172D+01
 Gap=     0.598 Goal=   None    Shift=    0.000
 Gap=     0.344 Goal=   None    Shift=    0.000
 RMSDP=3.52D-06 MaxDP=1.24D-05 DE=-1.03D-08 OVMax= 1.81D-05

 Cycle   5  Pass 1  IDiag  3:
 E=-0.229227976950135E-01 Delta-E=       -0.000000000271 Rises=F Damp=F
 DIIS: error= 9.72D-07 at cycle   5 NSaved=   5.
 NSaved= 5 IEnMin= 5 EnMin=-0.229227976950135E-01 IErMin= 5 ErrMin= 9.72D-07
 ErrMax= 9.72D-07  0.00D+00 EMaxC= 1.00D-01 BMatC= 2.26D-11 BMatP= 1.61D-10
 IDIUse=1 WtCom= 1.00D+00 WtEn= 0.00D+00
 Coeff-Com:  0.199D+00-0.788D+00 0.136D+01-0.207D+01 0.230D+01
 Coeff:      0.199D+00-0.788D+00 0.136D+01-0.207D+01 0.230D+01
 Gap=     0.598 Goal=   None    Shift=    0.000
 Gap=     0.344 Goal=   None    Shift=    0.000
 RMSDP=1.98D-06 MaxDP=6.93D-06 DE=-2.71D-10 OVMax= 9.68D-06

 Cycle   6  Pass 1  IDiag  3:
 E=-0.229227977455331E-01 Delta-E=       -0.000000000051 Rises=F Damp=F
 DIIS: error= 2.04D-07 at cycle   6 NSaved=   6.
 NSaved= 6 IEnMin= 6 EnMin=-0.229227977455331E-01 IErMin= 6 ErrMin= 2.04D-07
 ErrMax= 2.04D-07  0.00D+00 EMaxC= 1.00D-01 BMatC= 9.56D-13 BMatP= 2.26D-11
 IDIUse=1 WtCom= 1.00D+00 WtEn= 0.00D+00
 Coeff-Com: -0.137D+00 0.543D+00-0.939D+00 0.143D+01-0.170D+01 0.180D+01
 Coeff:     -0.137D+00 0.543D+00-0.939D+00 0.143D+01-0.170D+01 0.180D+01
 Gap=     0.598 Goal=   None    Shift=    0.000
 Gap=     0.344 Goal=   None    Shift=    0.000
 RMSDP=3.68D-07 MaxDP=1.64D-06 DE=-5.05D-11 OVMax= 1.42D-06

 Cycle   7  Pass 1  IDiag  3:
 E=-0.229227977475048E-01 Delta-E=       -0.000000000002 Rises=F Damp=F
 DIIS: error= 3.63D-08 at cycle   7 NSaved=   7.
 NSaved= 7 IEnMin= 7 EnMin=-0.229227977475048E-01 IErMin= 7 ErrMin= 3.63D-08
 ErrMax= 3.63D-08  0.00D+00 EMaxC= 1.00D-01 BMatC= 7.11D-14 BMatP= 9.56D-13
 IDIUse=1 WtCom= 1.00D+00 WtEn= 0.00D+00
 Coeff-Com:  0.806D-01-0.320D+00 0.553D+00-0.847D+00 0.102D+01-0.129D+01
 Coeff-Com:  0.181D+01
 Coeff:      0.806D-01-0.320D+00 0.553D+00-0.847D+00 0.102D+01-0.129D+01
 Coeff:      0.181D+01
 Gap=     0.598 Goal=   None    Shift=    0.000
 Gap=     0.344 Goal=   None    Shift=    0.000
 RMSDP=1.03D-07 MaxDP=4.01D-07 DE=-1.97D-12 OVMax= 4.09D-07

 Cycle   8  Pass 1  IDiag  3:
 E=-0.229227977476540E-01 Delta-E=       -0.000000000000 Rises=F Damp=F
 DIIS: error= 1.04D-08 at cycle   8 NSaved=   8.
 NSaved= 8 IEnMin= 8 EnMin=-0.229227977476540E-01 IErMin= 8 ErrMin= 1.04D-08
 ErrMax= 1.04D-08  0.00D+00 EMaxC= 1.00D-01 BMatC= 3.35D-15 BMatP= 7.11D-14
 IDIUse=1 WtCom= 1.00D+00 WtEn= 0.00D+00
 Coeff-Com: -0.616D-01 0.244D+00-0.422D+00 0.648D+00-0.779D+00 0.100D+01
 Coeff-Com: -0.150D+01 0.187D+01
 Coeff:     -0.616D-01 0.244D+00-0.422D+00 0.648D+00-0.779D+00 0.100D+01
 Coeff:     -0.150D+01 0.187D+01
 Gap=     0.598 Goal=   None    Shift=    0.000
 Gap=     0.344 Goal=   None    Shift=    0.000
 RMSDP=2.13D-08 MaxDP=7.37D-08 DE=-1.49D-13 OVMax= 0.00D+00

 Cycle   9  Pass 1  IDiag  3:
 E=-0.229227977476576E-01 Delta-E=       -0.000000000000 Rises=F Damp=F
 DIIS: error= 1.92D-09 at cycle   9 NSaved=   9.
 NSaved= 9 IEnMin= 9 EnMin=-0.229227977476576E-01 IErMin= 9 ErrMin= 1.92D-09
 ErrMax= 1.92D-09  0.00D+00 EMaxC= 1.00D-01 BMatC= 1.85D-16 BMatP= 3.35D-15
 IDIUse=1 WtCom= 1.00D+00 WtEn= 0.00D+00
 Coeff-Com:  0.278D-01-0.110D+00 0.191D+00-0.293D+00 0.352D+00-0.450D+00
 Coeff-Com:  0.661D+00-0.937D+00 0.156D+01
 Coeff:      0.278D-01-0.110D+00 0.191D+00-0.293D+00 0.352D+00-0.450D+00
 Coeff:      0.661D+00-0.937D+00 0.156D+01
 Gap=     0.598 Goal=   None    Shift=    0.000
 Gap=     0.344 Goal=   None    Shift=    0.000
 RMSDP=5.31D-09 MaxDP=1.80D-08 DE=-3.55D-15 OVMax= 2.12D-08

 Cycle  10  Pass 2  IDiag  1:
 SCF Done:  E(UPM6) = -0.229227977477E-01 A.U. after   10 cycles
            NFock=  9  Conv=0.53D-08     -V/T= 0.9989
 <Sx>= 0.0000 <Sy>= 0.0000 <Sz>= 0.5000 <S**2>= 0.7690 S= 0.5094
 <L.S>= 0.000000000000E+00
 KE=-2.027540756222D+01 PE=-1.147015401977D+01 EE= 1.300365627120D+01
 Annihilation of the first spin contaminant:
 S**2 before annihilation     0.7690,   after     0.7501
 Leave Link  502 at Wed Oct 28 15:46:43 2020, MaxMem=  2684354560 cpu:               0.7 elap:               0.1
 (Enter /udrive/faculty/rpeverati/g16/g16/l508.exe)
 QCSCF skips out because SCF is already converged.
 Leave Link  508 at Wed Oct 28 15:46:43 2020, MaxMem=  2684354560 cpu:               0.1 elap:               0.1
 (Enter /udrive/faculty/rpeverati/g16/g16/l701.exe)
 ... and contract with generalized density number  0.
 Compute integral first derivatives.
 Leave Link  701 at Wed Oct 28 15:46:43 2020, MaxMem=  2684354560 cpu:               0.9 elap:               0.1
 (Enter /udrive/faculty/rpeverati/g16/g16/l702.exe)
 L702 exits ... SP integral derivatives will be done elsewhere.
 Leave Link  702 at Wed Oct 28 15:46:43 2020, MaxMem=  2684354560 cpu:               0.3 elap:               0.1
 (Enter /udrive/faculty/rpeverati/g16/g16/l703.exe)
 Integral derivatives from FoFJK, PRISM(SPDF).
 Compute integral first derivatives, UseDBF=F ICtDFT=           0.
 Calling FoFJK, ICntrl=      2127 FMM=F ISym2X=0 I1Cent= 0 IOpClX= 1 NMat=1 NMatS=1 NMatT=0.
 FoFJK:  IHMeth=40 ICntrl=    2127 DoSepK=F KAlg= 0 I1Cent=           0 FoldK=F
 IRaf=         0 NMat=       1 IRICut=       1 DoRegI=T DoRafI=F ISym2E= 0 IDoP0=3 IntGTp=3.
 FoFCou: FMM=F IPFlag=           0 FMFlag=      100000 FMFlg1=         800
         NFxFlg=           0 DoJE=F BraDBF=F KetDBF=F FulRan=T
         wScrn=  0.000000 ICntrl=      2127 IOpCl=  1 I1Cent=           0 NGrid=           0
         NMat0=    1 NMatS0=      1 NMatT0=    0 NMatD0=    1 NMtDS0=    0 NMtDT0=    0
 Symmetry not used in FoFCou.
 Leave Link  703 at Wed Oct 28 15:46:43 2020, MaxMem=  2684354560 cpu:               0.4 elap:               0.1
 (Enter /udrive/faculty/rpeverati/g16/g16/l716.exe)
 Dipole        = 6.03189195D-01 6.32816384D-01 3.57719355D-05
 ***** Axes restored to original set *****
 -------------------------------------------------------------------
 Center     Atomic                   Forces (Hartrees/Bohr)
 Number     Number              X              Y              Z
 -------------------------------------------------------------------
      1        8          -0.001947907    0.002569148   -0.000001323
      2        1          -0.004557816    0.001117066   -0.000000255
      3        1           0.015488475   -0.002141252    0.000001167
      4        1          -0.008982752   -0.001544962    0.000000411
 -------------------------------------------------------------------
 Cartesian Forces:  Max     0.015488475 RMS     0.005477005
 Leave Link  716 at Wed Oct 28 15:46:44 2020, MaxMem=  2684354560 cpu:               0.3 elap:               0.1
 (Enter /udrive/faculty/rpeverati/g16/g16/l103.exe)

 GradGradGradGradGradGradGradGradGradGradGradGradGradGradGradGradGradGrad
 Berny optimization.
 Optmz: redundant internal coordinate code flag= 1
 Red2BG:  D1=  3.37D-01 OD1=  4.74D-03 B2RMS=  0.00D+00 IAprox=0
 FormGI is forming the generalized inverse of G from B-inverse, IUseBI=4.
 Internal  Forces:  Max     0.009078490 RMS     0.005670480
 Search for a saddle point.
 Step number   1 out of a maximum of   50
 All quantities printed in internal units (Hartrees-Bohrs-Radians)
 Swapping is turned off.
 Second derivative matrix not updated -- first step.
 The second derivative matrix:
                          R1        R2        R3        A1        A2
           R1           0.53794
           R2          -0.00218   0.05027
           R3           0.00670   0.10198   0.32125
           A1           0.00000   0.01824   0.00620   0.16000
           A2          -0.00000   0.00214   0.00141  -0.00000   0.00230
           A3          -0.00000   0.00000  -0.00000  -0.00000  -0.00000
                          A3
           A3           0.00230
 ITU=  0
 Eigenvectors of the second derivative matrix:
                           1         2         3         4         5
     Eigenvalues --     0.00209   0.00230   0.01473   0.16092   0.35587
   1         R1         0.00091   0.00000   0.00788   0.00207   0.03098
   2         R2         0.12054   0.00000   0.93649   0.08080  -0.31926
   3         R3        -0.03390  -0.00000  -0.31021  -0.08987  -0.94526
   4         A1        -0.01259  -0.00000  -0.10436   0.99267  -0.05965
   5         A2        -0.99205   0.00013   0.12572   0.00029  -0.00570
   6         A3        -0.00012  -1.00000   0.00002   0.00000   0.00000
                           6
     Eigenvalues --     0.53815
   1         R1        -0.99949
   2         R2        -0.00224
   3         R3        -0.03196
   4         A1        -0.00063
   5         A2        -0.00009
   6         A3         0.00000
 Eigenvalue     1 is   2.09D-03 should be less than     0.000000 Eigenvector:
                          A2        R2        R3        A1        R1
   1                   -0.99205   0.12054  -0.03390  -0.01259   0.00091
                          A3
   1                   -0.00012
 RLam0= 3.53D-03.
 Iter=   1 RLamda= 0.00000000D+00 Sum=-4.98503177D-03.
 Iter=   2 RLamda=-4.98503177D-03 Sum=-3.88717805D-03.
 Iter=   3 RLamda=-3.88717805D-03 Sum=-4.07924892D-03.
 Iter=   4 RLamda=-4.07924892D-03 Sum=-4.04405814D-03.
 Iter=   5 RLamda=-4.04405814D-03 Sum=-4.05045281D-03.
 Iter=   6 RLamda=-4.05045281D-03 Sum=-4.04928906D-03.
 Iter=   7 RLamda=-4.04928906D-03 Sum=-4.04950079D-03.
 Iter=   8 RLamda=-4.04950079D-03 Sum=-4.04946227D-03.
 Iter=   9 RLamda=-4.04946227D-03 Sum=-4.04946927D-03.
 RFO step:  Lambda0=3.527932530D-03 Lambda=-4.04946227D-03.
 Linear search not attempted -- option 19 set.
 Maximum step size (   0.100) exceeded in Quadratic search.
    -- Step size scaled by   0.166
 Iteration  1 RMS(Cart)=  0.04358605 RMS(Int)=  0.00126390
 Iteration  2 RMS(Cart)=  0.00130679 RMS(Int)=  0.00000042
 Iteration  3 RMS(Cart)=  0.00000040 RMS(Int)=  0.00000000
 ITry= 1 IFail=0 DXMaxC= 5.51D-02 DCOld= 1.00D+10 DXMaxT= 1.00D-01 DXLimC= 3.00D+00 Rises=F
 Variable       Old X    -DE/DX   Delta X   Delta X   Delta X     New X
                                 (Linear)    (Quad)   (Total)
    R1        1.82920   0.00167   0.00000   0.00103   0.00103   1.83022
    R2        2.48796   0.00597   0.00000   0.05664   0.05664   2.54460
    R3        1.57473  -0.01068   0.00000  -0.02353  -0.02353   1.55120
    A1        1.69642   0.00797   0.00000   0.00270   0.00270   1.69912
    A2        2.88826  -0.00128   0.00000   0.07893   0.07893   2.96719
    A3        3.14204   0.00000   0.00000   0.00006   0.00006   3.14210
         Item               Value     Threshold  Converged?
 Maximum Force            0.010685     0.000450     NO 
 RMS     Force            0.006024     0.000300     NO 
 Maximum Displacement     0.055143     0.001800     NO 
 RMS     Displacement     0.042850     0.001200     NO 
 Predicted change in Energy=-4.612163D-04
 Lowest energy point so far.  Saving SCF results.
 Largest change from initial coordinates is atom    4       0.033 Angstoms.
 GradGradGradGradGradGradGradGradGradGradGradGradGradGradGradGradGradGrad

 Leave Link  103 at Wed Oct 28 15:46:44 2020, MaxMem=  2684354560 cpu:               0.3 elap:               0.1
 (Enter /udrive/faculty/rpeverati/g16/g16/l202.exe)
                          Input orientation:                          
 ---------------------------------------------------------------------
 Center     Atomic      Atomic             Coordinates (Angstroms)
 Number     Number       Type             X           Y           Z
 ---------------------------------------------------------------------
      1          8           0       -0.310890   -0.106212   -0.000015
      2          1           0       -0.457125    0.851198    0.000021
      3          1           0        1.035291   -0.074915    0.000121
      4          1           0        1.840168    0.086268   -0.000074
 ---------------------------------------------------------------------
                    Distance matrix (angstroms):
                    1          2          3          4
     1  O    0.000000
     2  H    0.968513   0.000000
     3  H    1.346544   1.756414   0.000000
     4  H    2.159653   2.421296   0.820858   0.000000
 Stoichiometry    H3O(2)
 Framework group  C1[X(H3O)]
 Deg. of freedom     6
 Full point group                 C1      NOp   1
 RotChk:  IX=0 Diff= 1.33D-02
 Largest Abelian subgroup         C1      NOp   1
 Largest concise Abelian subgroup C1      NOp   1
                         Standard orientation:                         
 ---------------------------------------------------------------------
 Center     Atomic      Atomic             Coordinates (Angstroms)
 Number     Number       Type             X           Y           Z
 ---------------------------------------------------------------------
      1          8           0       -0.303606   -0.110260   -0.000010
      2          1           0       -0.458900    0.845722    0.000026
      3          1           0        1.042218   -0.066219    0.000125
      4          1           0        1.845533    0.102578   -0.000069
 ---------------------------------------------------------------------
 Rotational constants (GHZ):         570.8370269          85.4580892          74.3303442
 Leave Link  202 at Wed Oct 28 15:46:44 2020, MaxMem=  2684354560 cpu:               0.2 elap:               0.1
 (Enter /udrive/faculty/rpeverati/g16/g16/l301.exe)
 Standard basis: VSTO-6G (5D, 7F)
 Ernie: Thresh=  0.10000D-02 Tol=  0.10000D-05 Strict=F.
  NNHCO=     0 NNPyr=     0 NCTC=     0               EPep=         0.000000000
    EC=         6.105814788  ECS=         0.425513895   EG=         0.002956720
   EHC=         0.000308146  EAt=       -11.791685415  AtH=         0.344002774
 EPDDG=         0.000000000  ECC=         6.534593550 EAtT=        12.135688189
 There are     7 symmetry adapted cartesian basis functions of A   symmetry.
 There are     7 symmetry adapted basis functions of A   symmetry.
     7 basis functions,    42 primitive gaussians,     7 cartesian basis functions
     5 alpha electrons        4 beta electrons
       nuclear repulsion energy        18.6702817385 Hartrees.
 IExCor=    0 DFT=F Ex=HF Corr=None ExCW=0 ScaHFX=  1.000000
 ScaDFX=  1.000000  1.000000  1.000000  1.000000 ScalE2=  1.000000  1.000000
 IRadAn=      5 IRanWt=     -1 IRanGd=            0 ICorTp=0 IEmpDi=  4
 Integral buffers will be    131072 words long.
 Regular integral format.
 Two-electron integral symmetry is turned off.
 Leave Link  301 at Wed Oct 28 15:46:44 2020, MaxMem=  2684354560 cpu:               0.9 elap:               0.1
 (Enter /udrive/faculty/rpeverati/g16/g16/l302.exe)
 Do NDO integrals.
 NPDir=0 NMtPBC=     1 NCelOv=     1 NCel=       1 NClECP=     1 NCelD=      1
         NCelK=      1 NCelE2=     1 NClLst=     1 CellRange=     0.0.
 One-electron integrals computed using PRISM.
 NBasis=     7 RedAO= F EigKep=  0.00D+00  NBF=     7
 NBsUse=     7 1.00D-04 EigRej=  0.00D+00 NBFU=     7
 Leave Link  302 at Wed Oct 28 15:46:44 2020, MaxMem=  2684354560 cpu:               0.9 elap:               0.1
 (Enter /udrive/faculty/rpeverati/g16/g16/l303.exe)
 DipDrv:  MaxL=1.
 Leave Link  303 at Wed Oct 28 15:46:44 2020, MaxMem=  2684354560 cpu:               0.8 elap:               0.1
 (Enter /udrive/faculty/rpeverati/g16/g16/l401.exe)
 Initial guess from the checkpoint file:  "MN_79_RKT02_BH76_PM6_SE.chk"
 SCF N**3 symmetry information disabled.
 B after Tr=    -0.000000    0.000000   -0.000000
         Rot=    0.999993   -0.000003    0.000001   -0.003733 Ang=  -0.43 deg.
 Guess basis will be translated and rotated to current coordinates.
 JPrj=0 DoOrth=T DoCkMO=T.
 Initial guess <Sx>= 0.0000 <Sy>= 0.0000 <Sz>= 0.5000 <S**2>= 0.7690 S= 0.5094
 Leave Link  401 at Wed Oct 28 15:46:44 2020, MaxMem=  2684354560 cpu:               1.1 elap:               0.1
 (Enter /udrive/faculty/rpeverati/g16/g16/l502.exe)
 Keep J ints in memory in canonical form, NReq=859173.
 FoFCou: FMM=F IPFlag=           0 FMFlag=           0 FMFlg1=           0
         NFxFlg=           0 DoJE=F BraDBF=F KetDBF=F FulRan=T
         wScrn=  0.000000 ICntrl=       600 IOpCl=  2 I1Cent=           0 NGrid=           0
         NMat0=    1 NMatS0=     13 NMatT0=    0 NMatD0=    1 NMtDS0=    0 NMtDT0=    0
 Symmetry not used in FoFCou.
 Two-electron integral symmetry not used.
 UHF open shell SCF:
 Using DIIS extrapolation, IDIIS=  1040.
 Overlap will be assumed to be unity.
 NGot=  2684354560 LenX=  2684294088 LenY=  2684293206
 Requested convergence on RMS density matrix=1.00D-08 within 120 cycles.
 Requested convergence on MAX density matrix=1.00D-06.
 Requested convergence on             energy=1.00D-06.
 No special actions if energy rises.

 Cycle   1  Pass 1  IDiag  1:
 E=-0.228969530396199E-01
 DIIS: error= 2.06D-03 at cycle   1 NSaved=   1.
 NSaved= 1 IEnMin= 1 EnMin=-0.228969530396199E-01 IErMin= 1 ErrMin= 2.06D-03
 ErrMax= 2.06D-03  0.00D+00 EMaxC= 1.00D-01 BMatC= 3.02D-04 BMatP= 3.02D-04
 IDIUse=3 WtCom= 9.79D-01 WtEn= 2.06D-02
 Coeff-Com:  0.100D+01
 Coeff-En:   0.100D+01
 Coeff:      0.100D+01
 GapD=    2.000 DampG=2.000 DampE=1.000 DampFc=2.0000 IDamp=-1.
 RMSDP=2.51D-03 MaxDP=8.31D-03              OVMax= 0.00D+00

 Cycle   2  Pass 1  IDiag  3:
 E=-0.232067091101236E-01 Delta-E=       -0.000309756071 Rises=F Damp=F
 DIIS: error= 1.29D-03 at cycle   2 NSaved=   2.
 NSaved= 2 IEnMin= 2 EnMin=-0.232067091101236E-01 IErMin= 2 ErrMin= 1.29D-03
 ErrMax= 1.29D-03  0.00D+00 EMaxC= 1.00D-01 BMatC= 6.99D-05 BMatP= 3.02D-04
 IDIUse=3 WtCom= 9.87D-01 WtEn= 1.29D-02
 Coeff-Com: -0.634D+00 0.163D+01
 Coeff-En:   0.000D+00 0.100D+01
 Coeff:     -0.626D+00 0.163D+01
 Gap=     0.599 Goal=   None    Shift=    0.000
 Gap=     0.340 Goal=   None    Shift=    0.000
 RMSDP=2.23D-03 MaxDP=7.87D-03 DE=-3.10D-04 OVMax= 9.26D-03

 Cycle   3  Pass 1  IDiag  3:
 E=-0.233278729140949E-01 Delta-E=       -0.000121163804 Rises=F Damp=F
 DIIS: error= 6.55D-04 at cycle   3 NSaved=   3.
 NSaved= 3 IEnMin= 3 EnMin=-0.233278729140949E-01 IErMin= 3 ErrMin= 6.55D-04
 ErrMax= 6.55D-04  0.00D+00 EMaxC= 1.00D-01 BMatC= 1.16D-05 BMatP= 6.99D-05
 IDIUse=3 WtCom= 9.93D-01 WtEn= 6.55D-03
 Coeff-Com:  0.679D+00-0.199D+01 0.231D+01
 Coeff-En:   0.000D+00 0.000D+00 0.100D+01
 Coeff:      0.675D+00-0.198D+01 0.230D+01
 Gap=     0.600 Goal=   None    Shift=    0.000
 Gap=     0.340 Goal=   None    Shift=    0.000
 RMSDP=1.51D-03 MaxDP=5.29D-03 DE=-1.21D-04 OVMax= 6.71D-03

 Cycle   4  Pass 1  IDiag  3:
 E=-0.233569607896911E-01 Delta-E=       -0.000029087876 Rises=F Damp=F
 DIIS: error= 2.11D-04 at cycle   4 NSaved=   4.
 NSaved= 4 IEnMin= 4 EnMin=-0.233569607896911E-01 IErMin= 4 ErrMin= 2.11D-04
 ErrMax= 2.11D-04  0.00D+00 EMaxC= 1.00D-01 BMatC= 8.02D-07 BMatP= 1.16D-05
 IDIUse=3 WtCom= 9.98D-01 WtEn= 2.11D-03
 Coeff-Com: -0.436D+00 0.130D+01-0.170D+01 0.183D+01
 Coeff-En:   0.000D+00 0.000D+00 0.000D+00 0.100D+01
 Coeff:     -0.435D+00 0.130D+01-0.170D+01 0.183D+01
 Gap=     0.600 Goal=   None    Shift=    0.000
 Gap=     0.340 Goal=   None    Shift=    0.000
 RMSDP=3.42D-04 MaxDP=1.51D-03 DE=-2.91D-05 OVMax= 1.23D-03

 Cycle   5  Pass 1  IDiag  3:
 E=-0.233584367849176E-01 Delta-E=       -0.000001475995 Rises=F Damp=F
 DIIS: error= 3.42D-05 at cycle   5 NSaved=   5.
 NSaved= 5 IEnMin= 5 EnMin=-0.233584367849176E-01 IErMin= 5 ErrMin= 3.42D-05
 ErrMax= 3.42D-05  0.00D+00 EMaxC= 1.00D-01 BMatC= 3.44D-08 BMatP= 8.02D-07
 IDIUse=1 WtCom= 1.00D+00 WtEn= 0.00D+00
 Coeff-Com:  0.252D+00-0.754D+00 0.101D+01-0.124D+01 0.173D+01
 Coeff:      0.252D+00-0.754D+00 0.101D+01-0.124D+01 0.173D+01
 Gap=     0.600 Goal=   None    Shift=    0.000
 Gap=     0.340 Goal=   None    Shift=    0.000
 RMSDP=4.85D-05 MaxDP=1.97D-04 DE=-1.48D-06 OVMax= 1.51D-04

 Cycle   6  Pass 1  IDiag  3:
 E=-0.233584824490194E-01 Delta-E=       -0.000000045664 Rises=F Damp=F
 DIIS: error= 4.43D-06 at cycle   6 NSaved=   6.
 NSaved= 6 IEnMin= 6 EnMin=-0.233584824490194E-01 IErMin= 6 ErrMin= 4.43D-06
 ErrMax= 4.43D-06  0.00D+00 EMaxC= 1.00D-01 BMatC= 5.76D-10 BMatP= 3.44D-08
 IDIUse=1 WtCom= 1.00D+00 WtEn= 0.00D+00
 Coeff-Com: -0.776D-01 0.232D+00-0.313D+00 0.393D+00-0.585D+00 0.135D+01
 Coeff:     -0.776D-01 0.232D+00-0.313D+00 0.393D+00-0.585D+00 0.135D+01
 Gap=     0.600 Goal=   None    Shift=    0.000
 Gap=     0.340 Goal=   None    Shift=    0.000
 RMSDP=5.95D-06 MaxDP=2.17D-05 DE=-4.57D-08 OVMax= 2.51D-05

 Cycle   7  Pass 1  IDiag  3:
 E=-0.233584833278222E-01 Delta-E=       -0.000000000879 Rises=F Damp=F
 DIIS: error= 2.06D-06 at cycle   7 NSaved=   7.
 NSaved= 7 IEnMin= 7 EnMin=-0.233584833278222E-01 IErMin= 7 ErrMin= 2.06D-06
 ErrMax= 2.06D-06  0.00D+00 EMaxC= 1.00D-01 BMatC= 1.03D-10 BMatP= 5.76D-10
 IDIUse=1 WtCom= 1.00D+00 WtEn= 0.00D+00
 Coeff-Com:  0.243D-01-0.721D-01 0.993D-01-0.128D+00 0.193D+00-0.825D+00
 Coeff-Com:  0.171D+01
 Coeff:      0.243D-01-0.721D-01 0.993D-01-0.128D+00 0.193D+00-0.825D+00
 Coeff:      0.171D+01
 Gap=     0.600 Goal=   None    Shift=    0.000
 Gap=     0.340 Goal=   None    Shift=    0.000
 RMSDP=3.95D-06 MaxDP=1.64D-05 DE=-8.79D-10 OVMax= 2.48D-05

 Cycle   8  Pass 1  IDiag  3:
 E=-0.233584835544747E-01 Delta-E=       -0.000000000227 Rises=F Damp=F
 DIIS: error= 5.32D-07 at cycle   8 NSaved=   8.
 NSaved= 8 IEnMin= 8 EnMin=-0.233584835544747E-01 IErMin= 8 ErrMin= 5.32D-07
 ErrMax= 5.32D-07  0.00D+00 EMaxC= 1.00D-01 BMatC= 7.37D-12 BMatP= 1.03D-10
 IDIUse=1 WtCom= 1.00D+00 WtEn= 0.00D+00
 Coeff-Com: -0.225D-03 0.422D-03-0.208D-02 0.538D-02-0.102D-01 0.261D+00
 Coeff-Com: -0.916D+00 0.166D+01
 Coeff:     -0.225D-03 0.422D-03-0.208D-02 0.538D-02-0.102D-01 0.261D+00
 Coeff:     -0.916D+00 0.166D+01
 Gap=     0.600 Goal=   None    Shift=    0.000
 Gap=     0.340 Goal=   None    Shift=    0.000
 RMSDP=1.17D-06 MaxDP=3.91D-06 DE=-2.27D-10 OVMax= 0.00D+00

 Cycle   9  Pass 1  IDiag  3:
 E=-0.233584835703837E-01 Delta-E=       -0.000000000016 Rises=F Damp=F
 DIIS: error= 3.68D-08 at cycle   9 NSaved=   9.
 NSaved= 9 IEnMin= 9 EnMin=-0.233584835703837E-01 IErMin= 9 ErrMin= 3.68D-08
 ErrMax= 3.68D-08  0.00D+00 EMaxC= 1.00D-01 BMatC= 8.08D-14 BMatP= 7.37D-12
 IDIUse=1 WtCom= 1.00D+00 WtEn= 0.00D+00
 Coeff-Com:  0.308D-03-0.786D-03 0.185D-02-0.373D-02 0.629D-02-0.133D+00
 Coeff-Com:  0.471D+00-0.887D+00 0.155D+01
 Coeff:      0.308D-03-0.786D-03 0.185D-02-0.373D-02 0.629D-02-0.133D+00
 Coeff:      0.471D+00-0.887D+00 0.155D+01
 Gap=     0.600 Goal=   None    Shift=    0.000
 Gap=     0.340 Goal=   None    Shift=    0.000
 RMSDP=8.05D-08 MaxDP=2.11D-07 DE=-1.59D-11 OVMax= 0.00D+00

 Cycle  10  Pass 1  IDiag  3:
 E=-0.233584835704974E-01 Delta-E=       -0.000000000000 Rises=F Damp=F
 DIIS: error= 1.19D-08 at cycle  10 NSaved=  10.
 NSaved=10 IEnMin=10 EnMin=-0.233584835704974E-01 IErMin=10 ErrMin= 1.19D-08
 ErrMax= 1.19D-08  0.00D+00 EMaxC= 1.00D-01 BMatC= 3.99D-15 BMatP= 8.08D-14
 IDIUse=1 WtCom= 1.00D+00 WtEn= 0.00D+00
 Coeff-Com: -0.289D-04 0.201D-04-0.417D-03 0.124D-02-0.211D-02 0.627D-01
 Coeff-Com: -0.227D+00 0.430D+00-0.796D+00 0.153D+01
 Coeff:     -0.289D-04 0.201D-04-0.417D-03 0.124D-02-0.211D-02 0.627D-01
 Coeff:     -0.227D+00 0.430D+00-0.796D+00 0.153D+01
 Gap=     0.600 Goal=   None    Shift=    0.000
 Gap=     0.340 Goal=   None    Shift=    0.000
 RMSDP=2.28D-08 MaxDP=1.05D-07 DE=-1.14D-13 OVMax= 0.00D+00

 Cycle  11  Pass 1  IDiag  3:
 E=-0.233584835705081E-01 Delta-E=       -0.000000000000 Rises=F Damp=F
 DIIS: error= 9.13D-09 at cycle  11 NSaved=  11.
 NSaved=11 IEnMin=11 EnMin=-0.233584835705081E-01 IErMin=11 ErrMin= 9.13D-09
 ErrMax= 9.13D-09  0.00D+00 EMaxC= 1.00D-01 BMatC= 1.11D-15 BMatP= 3.99D-15
 IDIUse=1 WtCom= 1.00D+00 WtEn= 0.00D+00
 Coeff-Com: -0.360D-04 0.166D-03 0.115D-03-0.768D-03 0.127D-02-0.522D-01
 Coeff-Com:  0.193D+00-0.366D+00 0.683D+00-0.174D+01 0.228D+01
 Coeff:     -0.360D-04 0.166D-03 0.115D-03-0.768D-03 0.127D-02-0.522D-01
 Coeff:      0.193D+00-0.366D+00 0.683D+00-0.174D+01 0.228D+01
 Gap=     0.600 Goal=   None    Shift=    0.000
 Gap=     0.340 Goal=   None    Shift=    0.000
 RMSDP=2.35D-08 MaxDP=1.34D-07 DE=-1.07D-14 OVMax= 1.56D-07

 Cycle  12  Pass 1  IDiag  3:
 E=-0.233584835705116E-01 Delta-E=       -0.000000000000 Rises=F Damp=F
 DIIS: error= 5.86D-09 at cycle  12 NSaved=  12.
 NSaved=12 IEnMin=12 EnMin=-0.233584835705116E-01 IErMin=12 ErrMin= 5.86D-09
 ErrMax= 5.86D-09  0.00D+00 EMaxC= 1.00D-01 BMatC= 4.85D-16 BMatP= 1.11D-15
 IDIUse=1 WtCom= 1.00D+00 WtEn= 0.00D+00
 Coeff-Com:  0.488D-04-0.177D-03 0.616D-04 0.258D-03-0.286D-03 0.253D-01
 Coeff-Com: -0.971D-01 0.182D+00-0.332D+00 0.131D+01-0.266D+01 0.258D+01
 Coeff:      0.488D-04-0.177D-03 0.616D-04 0.258D-03-0.286D-03 0.253D-01
 Coeff:     -0.971D-01 0.182D+00-0.332D+00 0.131D+01-0.266D+01 0.258D+01
 Gap=     0.600 Goal=   None    Shift=    0.000
 Gap=     0.340 Goal=   None    Shift=    0.000
 RMSDP=2.29D-08 MaxDP=1.33D-07 DE=-3.55D-15 OVMax= 0.00D+00

 Cycle  13  Pass 1  IDiag  3:
 E=-0.233584835705187E-01 Delta-E=       -0.000000000000 Rises=F Damp=F
 DIIS: error= 2.79D-09 at cycle  13 NSaved=  13.
 NSaved=13 IEnMin=13 EnMin=-0.233584835705187E-01 IErMin=13 ErrMin= 2.79D-09
 ErrMax= 2.79D-09  0.00D+00 EMaxC= 1.00D-01 BMatC= 1.15D-16 BMatP= 4.85D-16
 IDIUse=1 WtCom= 1.00D+00 WtEn= 0.00D+00
 Coeff-Com:  0.352D-05 0.479D-05 0.760D-04-0.254D-03 0.250D-03-0.115D-01
 Coeff-Com:  0.440D-01-0.799D-01 0.129D+00-0.704D+00 0.150D+01-0.215D+01
 Coeff-Com:  0.228D+01
 Coeff:      0.352D-05 0.479D-05 0.760D-04-0.254D-03 0.250D-03-0.115D-01
 Coeff:      0.440D-01-0.799D-01 0.129D+00-0.704D+00 0.150D+01-0.215D+01
 Coeff:      0.228D+01
 Gap=     0.600 Goal=   None    Shift=    0.000
 Gap=     0.340 Goal=   None    Shift=    0.000
 RMSDP=1.94D-08 MaxDP=1.14D-07 DE=-7.11D-15 OVMax= 1.34D-07

 Cycle  14  Pass 1  IDiag  3:
 E=-0.233584835705187E-01 Delta-E=        0.000000000000 Rises=F Damp=F
 DIIS: error= 5.47D-10 at cycle  14 NSaved=  14.
 NSaved=14 IEnMin=13 EnMin=-0.233584835705187E-01 IErMin=14 ErrMin= 5.47D-10
 ErrMax= 5.47D-10  0.00D+00 EMaxC= 1.00D-01 BMatC= 7.94D-18 BMatP= 1.15D-16
 IDIUse=1 WtCom= 1.00D+00 WtEn= 0.00D+00
 Coeff-Com: -0.120D-05 0.385D-05 0.431D-06-0.686D-05 0.108D-03-0.172D-02
 Coeff-Com:  0.518D-02-0.115D-01 0.316D-01 0.149D+00-0.472D+00 0.967D+00
 Coeff-Com: -0.132D+01 0.166D+01
 Coeff:     -0.120D-05 0.385D-05 0.431D-06-0.686D-05 0.108D-03-0.172D-02
 Coeff:      0.518D-02-0.115D-01 0.316D-01 0.149D+00-0.472D+00 0.967D+00
 Coeff:     -0.132D+01 0.166D+01
 Gap=     0.600 Goal=   None    Shift=    0.000
 Gap=     0.340 Goal=   None    Shift=    0.000
 RMSDP=1.18D-09 MaxDP=5.11D-09 DE= 0.00D+00 OVMax= 6.14D-09

 Cycle  15  Pass 2  IDiag  1:
 SCF Done:  E(UPM6) = -0.233584835705E-01 A.U. after   15 cycles
            NFock= 14  Conv=0.12D-08     -V/T= 0.9988
 <Sx>= 0.0000 <Sy>= 0.0000 <Sz>= 0.5000 <S**2>= 0.7674 S= 0.5087
 <L.S>= 0.000000000000E+00
[...]
                      KCal/Mol        Cal/Mol-Kelvin    Cal/Mol-Kelvin
 Total                   14.352              7.696             52.131
 Electronic               0.000              0.000              1.377
 Translational            0.889              2.981             34.771
 Rotational               0.889              2.981             15.313
 Vibrational             12.574              1.734              0.669
                       Q            Log10(Q)             Ln(Q)
 Total Bot       0.274635D+01          0.438756          1.010272
 Total V=0       0.349581D+10          9.543548         21.974830
 Vib (Bot)       0.849776D-09         -9.070696        -20.886049
 Vib (V=0)       0.108167D+01          0.034096          0.078510
 Electronic      0.200000D+01          0.301030          0.693147
 Translational   0.325998D+07          6.513214         14.997231
 Rotational      0.495686D+03          2.695207          6.205943
 
                                                          TS search on BH76.
                                                             IR Spectrum
 
     4                                                       2                                                                       
     6                                                       6                                                   7  6                
     9                                                       3                                                   3  2                
     4                                                       0                                                   7  8                
 
     X                                                       X                                                   X  X                
     X                                                       X                                                   X  X                
     X                                                       X                                                   X  X                
     X                                                                                                              X                
     X                                                                                                              X                
     X                                                                                                              X                
     X                                                                                                                               
     X                                                                                                                               
     X                                                                                                                               
     X                                                                                                                               
     X                                                                                                                               
     X                                                                                                                               
     X                                                                                                                               
     X                                                                                                                               
     X                                                                                                                               
     X                                                                                                                               
     X                                                                                                                               
     X                                                                                                                               
     X                                                                                                                               
     X                                                                                                                               
 
 ***** Axes restored to original set *****
 -------------------------------------------------------------------
 Center     Atomic                   Forces (Hartrees/Bohr)
 Number     Number              X              Y              Z
 -------------------------------------------------------------------
      1        8           0.000052357    0.000132055    0.000011928
      2        1          -0.000478443   -0.001174071   -0.000119654
      3        1           0.001417624    0.003621991    0.000371854
      4        1          -0.000991537   -0.002579975   -0.000264128
 -------------------------------------------------------------------
 Cartesian Forces:  Max     0.003621991 RMS     0.001432304
 Force constants in Cartesian coordinates: 
                1             2             3             4             5 
      1  0.545674D-01
      2 -0.567299D-01  0.232598D+00
      3 -0.419296D-02  0.205908D-01  0.193747D-02
      4 -0.322079D-01  0.552121D-01  0.452524D-02  0.360750D-01
      5  0.686284D-01 -0.227401D+00 -0.197896D-01 -0.642268D-01  0.227002D+00
      6  0.578020D-02 -0.200631D-01 -0.262448D-02 -0.528317D-02  0.198695D-01
      7  0.233291D-01  0.125108D-01  0.159253D-02 -0.240303D-02 -0.758704D-02
      8 -0.294406D-01 -0.651685D-02 -0.146012D-02  0.647725D-02  0.153460D-02
      9 -0.236027D-02 -0.609182D-03  0.255142D-02  0.549291D-03 -0.404101D-04
     10 -0.456883D-01 -0.109930D-01 -0.192484D-02 -0.146426D-02  0.318538D-02
     11  0.175421D-01  0.132030D-02  0.658989D-03  0.253733D-02 -0.113573D-02
     12  0.772894D-03  0.819180D-04 -0.186431D-02  0.208772D-03 -0.398613D-04
                6             7             8             9            10 
      6  0.232034D-02
      7 -0.765662D-03  0.331221D+00
      8  0.244947D-03 -0.139185D+00  0.610472D-01
      9  0.337572D-03 -0.627851D-02  0.370598D-02 -0.780917D-02
     10  0.268639D-03 -0.352147D+00  0.162148D+00  0.808950D-02  0.399300D+00
     11 -0.513548D-04  0.134261D+00 -0.560649D-01 -0.305639D-02 -0.154341D+00
     12 -0.335869D-04  0.545165D-02 -0.249081D-02  0.492025D-02 -0.643331D-02
               11            12 
     11  0.558804D-01
     12  0.244876D-02 -0.302236D-02
 FormGI is forming the generalized inverse of G from B-inverse, IUseBI=4.
 Force constants in internal coordinates: 
                1             2             3             4             5 
      1  0.248156D+00
      2 -0.256168D-02  0.253816D-01
      3  0.312328D-02  0.522456D-01  0.458572D+00
      4  0.768431D-02  0.339179D-02  0.337712D-02  0.505920D-01
      5  0.156578D-02 -0.102775D-02  0.000000D+00 -0.218106D-02 -0.689751D-02
      6 -0.938289D-03  0.617438D-03 -0.179663D-05  0.131489D-02  0.412790D-02
                6 
      6  0.000000D+00
 Leave Link  716 at Wed Oct 28 15:47:20 2020, MaxMem=  2684354560 cpu:               0.4 elap:               0.1
 (Enter /udrive/faculty/rpeverati/g16/g16/l103.exe)

 GradGradGradGradGradGradGradGradGradGradGradGradGradGradGradGradGradGrad
 Berny optimization.
 Optmz: redundant internal coordinate code flag= 1
 Red2BG:  D1=  3.85D-01 OD1=  5.36D-09 B2RMS=  0.00D+00 IAprox=1
 Red2BG is reusing G-inverse.
 Internal  Forces:  Max     0.000142641 RMS     0.000063726
 Search for a local minimum.
 Step number   1 out of a maximum of    2
 All quantities printed in internal units (Hartrees-Bohrs-Radians)
 Second derivative matrix not updated -- analytic derivatives used.
 The second derivative matrix:
                          R1        R2        R3        A1        A2
           R1           0.24816
           R2          -0.00256   0.02538
           R3           0.00312   0.05225   0.45857
           A1           0.00768   0.00339   0.00338   0.05059
           A2           0.00157  -0.00103  -0.00000  -0.00218  -0.00690
           A3          -0.00094   0.00062  -0.00000   0.00131   0.00413
                          A3
           A3          -0.00000
 ITU=  0
 Eigenvectors of the second derivative matrix:
                           1         2         3         4         5
     Eigenvalues --    -0.00899   0.00193   0.01886   0.05069   0.24846
   1         R1        -0.00788   0.00083   0.01622  -0.03665   0.99908
   2         R2         0.03653  -0.00594   0.98747   0.09697  -0.01375
   3         R3        -0.00433   0.00072  -0.11668  -0.02036  -0.01205
   4         A1         0.04163  -0.00515  -0.09970   0.99335   0.03827
   5         A2         0.90376   0.42539  -0.02697  -0.03860   0.00580
   6         A3        -0.42434   0.90497   0.01867   0.02449  -0.00351
                           6
     Eigenvalues --     0.46486
   1         R1         0.01324
   2         R2         0.11803
   3         R3         0.99288
   4         A1         0.00931
   5         A2        -0.00026
   6         A3         0.00015
 Eigenvalue     1 is  -8.99D-03 should be greater than     0.000000 Eigenvector:
                          A2        A3        A1        R2        R1
   1                    0.90376  -0.42434   0.04163   0.03653  -0.00788
                          R3
   1                   -0.00433
 Angle between quadratic step and forces=  26.96 degrees.
 Linear search not attempted -- first point.
 Iteration  1 RMS(Cart)=  0.00015697 RMS(Int)=  0.00117896
 Iteration  2 RMS(Cart)=  0.00000019 RMS(Int)=  0.00117881
 ITry= 1 IFail=0 DXMaxC= 2.71D-04 DCOld= 1.00D+10 DXMaxT= 3.00D-01 DXLimC= 3.00D+00 Rises=F
 Variable       Old X    -DE/DX   Delta X   Delta X   Delta X     New X
                                 (Linear)    (Quad)   (Total)
    R1        1.84526  -0.00006   0.00000  -0.00036  -0.00004   1.84522
    R2        2.80992  -0.00000   0.00000  -0.00078  -0.00008   2.80984
    R3        1.48671   0.00000   0.00000   0.00008   0.00001   1.48672
    A1        1.66831   0.00014   0.00000   0.00294   0.00029   1.66860
    A2        3.69193   0.00000   0.00000   0.00085   0.00009   3.69201
    A3        4.71133   0.00000   0.00000   0.00049   0.00007   4.71140
         Item               Value     Threshold  Converged?
 Maximum Force            0.000143     0.000450     YES
 RMS     Force            0.000064     0.000300     YES
 Maximum Displacement     0.000271     0.001800     YES
 RMS     Displacement     0.000157     0.001200     YES
 Predicted change in Energy=-4.258563D-08
 Optimization completed.
    -- Stationary point found.
                           ----------------------------
                           !   Optimized Parameters   !
                           ! (Angstroms and Degrees)  !
 --------------------------                            --------------------------
 ! Name  Definition              Value          Derivative Info.                !
 --------------------------------------------------------------------------------
 ! R1    R(1,2)                  0.9765         -DE/DX =   -0.0001              !
 ! R2    R(1,3)                  1.4869         -DE/DX =    0.0                 !
 ! R3    R(3,4)                  0.7867         -DE/DX =    0.0                 !
 ! A1    A(2,1,3)               95.5871         -DE/DX =    0.0001              !
 ! A2    L(1,3,4,2,-1)         211.532          -DE/DX =    0.0                 !
 ! A3    L(1,3,4,2,-2)         269.9393         -DE/DX =    0.0                 !
 --------------------------------------------------------------------------------
 GradGradGradGradGradGradGradGradGradGradGradGradGradGradGradGradGradGrad

 Leave Link  103 at Wed Oct 28 15:47:20 2020, MaxMem=  2684354560 cpu:               0.4 elap:               0.1
 (Enter /udrive/faculty/rpeverati/g16/g16/l9999.exe)

 ----------------------------------------------------------------------

 Electric dipole moment (input orientation):
 (Debye = 10**-18 statcoulomb cm , SI units = C m)
                  (au)            (Debye)         (10**-30 SI)
   Tot        0.686273D+00      0.174433D+01      0.581847D+01
   x          0.330246D+00      0.839401D+00      0.279994D+01
   y          0.598316D+00      0.152077D+01      0.507273D+01
   z          0.626673D-01      0.159285D+00      0.531316D+00

 Dipole polarizability, Alpha (input orientation).
 (esu units = cm**3 , SI units = C**2 m**2 J**-1)
 Alpha(0;0):
               (au)            (10**-24 esu)      (10**-40 SI)
   iso        0.698902D+01      0.103567D+01      0.115233D+01
   aniso      0.143292D+02      0.212336D+01      0.236256D+01
   xx         0.158970D+02      0.235569D+01      0.262105D+01
   yx        -0.164381D+01     -0.243588D+00     -0.271028D+00
   yy         0.498724D+01      0.739032D+00      0.822285D+00
   zx         0.167293D+00      0.247902D-01      0.275829D-01
   zy         0.429907D+00      0.637057D-01      0.708821D-01
   zz         0.828632D-01      0.122791D-01      0.136623D-01

 First dipole hyperpolarizability, Beta (input orientation).
 ||, _|_  parallel and perpendicular components, (z) with respect to z axis,
 vector components x,y,z.  Values do not include the 1/n! factor of 1/2.
 (esu units = statvolt**-1 cm**4 , SI units = C**3 m**3 J**-2)
 Beta(0;0,0):
               (au)            (10**-30 esu)      (10**-50 SI)
   || (z)    -0.330133D+01     -0.285209D-01     -0.105853D-01
   _|_(z)    -0.110044D+01     -0.950697D-02     -0.352842D-02
   x         -0.626814D+03     -0.541518D+01     -0.200979D+01
   y         -0.397086D+02     -0.343051D+00     -0.127320D+00
   z         -0.165066D+02     -0.142605D+00     -0.529263D-01
   ||         0.125657D+03      0.108558D+01      0.402903D+00
   xxx       -0.202512D+03     -0.174954D+01     -0.649326D+00
   xxy       -0.277733D+02     -0.239940D+00     -0.890512D-01
   yxy       -0.586026D+01     -0.506281D-01     -0.187901D-01
   yyy        0.144798D+02      0.125095D+00      0.464276D-01
   xxz       -0.671780D+01     -0.580366D-01     -0.215397D-01
   yxz       -0.108199D+01     -0.934757D-02     -0.346926D-02
   yyz        0.124216D+01      0.107313D-01      0.398283D-02
   zxz       -0.565825D+00     -0.488829D-02     -0.181424D-02
   zyz        0.572468D-01      0.494568D-03      0.183554D-03
   zzz       -0.265800D-01     -0.229630D-03     -0.852250D-04

 ----------------------------------------------------------------------

 Dipole orientation:
     8         -0.35638628          0.24435255         -0.47652654
     1         -1.51361272          0.84253301          0.83037535
     1          1.57451189         -0.75415993          1.30399906
     1          2.88341347         -1.43002934          1.50468977

 Electric dipole moment (dipole orientation):
 (Debye = 10**-18 statcoulomb cm , SI units = C m)
                  (au)            (Debye)         (10**-30 SI)
   Tot        0.686273D+00      0.174433D+01      0.581847D+01
   x          0.000000D+00      0.000000D+00      0.000000D+00
   y          0.000000D+00      0.000000D+00      0.000000D+00
   z          0.686273D+00      0.174433D+01      0.581847D+01

 Dipole polarizability, Alpha (dipole orientation).
 (esu units = cm**3 , SI units = C**2 m**2 J**-1)
 Alpha(0;0):
               (au)            (10**-24 esu)      (10**-40 SI)
   iso        0.698902D+01      0.103567D+01      0.115233D+01
   aniso      0.143292D+02      0.212336D+01      0.236256D+01
   xx         0.116505D+02      0.172642D+01      0.192090D+01
   yx        -0.600035D+01     -0.889160D+00     -0.989324D+00
   yy         0.314004D+01      0.465305D+00      0.517722D+00
   zx         0.330436D+01      0.489655D+00      0.544815D+00
   zy        -0.170786D+01     -0.253079D+00     -0.281589D+00
   zz         0.617656D+01      0.915272D+00      0.101838D+01

 First dipole hyperpolarizability, Beta (dipole orientation).
 ||, _|_  parallel and perpendicular components, (z) with respect to z axis,
 vector components x,y,z.  Values do not include the 1/n! factor of 1/2.
 (esu units = statvolt**-1 cm**4 , SI units = C**3 m**3 J**-2)
 Beta(0;0,0):
               (au)            (10**-30 esu)      (10**-50 SI)
   || (z)    -0.675519D+02     -0.583596D+00     -0.216596D+00
   _|_(z)    -0.225173D+02     -0.194532D+00     -0.721986D-01
   x         -0.470600D+03     -0.406562D+01     -0.150891D+01
   y          0.243308D+03      0.210200D+01      0.780135D+00
   z         -0.337759D+03     -0.291798D+01     -0.108298D+01
   ||         0.125657D+03      0.108558D+01      0.402903D+00
   xxx       -0.775212D+02     -0.669723D+00     -0.248561D+00
   xxy        0.398345D+02      0.344139D+00      0.127724D+00
   yxy       -0.207710D+02     -0.179445D+00     -0.665992D-01
   yyy        0.109863D+02      0.949127D-01      0.352259D-01
   xxz       -0.598122D+02     -0.516731D+00     -0.191780D+00
   yxz        0.308252D+02      0.266306D+00      0.988369D-01
   yyz       -0.161291D+02     -0.139343D+00     -0.517158D-01
   zxz       -0.585745D+02     -0.506038D+00     -0.187811D+00
   zyz        0.302821D+02      0.261614D+00      0.970954D-01
   zzz       -0.366451D+02     -0.316585D+00     -0.117498D+00

 ----------------------------------------------------------------------

 Test job not archived.
 1\1\GINC-NODE18\Freq\UPM6\ZDO\H3O1(2)\RPEVERATI\28-Oct-2020\0\\#P Freq
  PM6 5D 7F Integral=UltraFineGrid SCF=(NoSymm,XQC,MaxCyc=120) IOp(1/33
 =1) Geom=Check Guess=Read\\TS search on BH76.\\0,2\O,-0.319630308,-0.1
 081009261,-0.0450065127\H,-0.5909558849,0.8263366319,0.0368587465\H,1.
 1418814634,0.1601702954,0.0099994116\H,1.8761497966,-0.1220667726,-0.0
 017976456\\Version=ES64L-G16RevA.03\State=2-A\HF=-0.0256273\S2=0.76065
 1\S2-1=0.\S2A=0.750063\RMSD=9.822e-11\RMSF=1.432e-03\ZeroPoint=0.01979
 44\Thermal=0.0228709\Dipole=0.3302458,0.5983157,0.0626673\DipoleDeriv=
 0.2623428,0.0795951,0.0222144,0.2106274,-0.3654513,0.013351,0.034488,0
 .0106943,-0.4606286,0.3326856,0.0039613,0.0005554,-0.1078616,0.2499694
 ,-0.0090498,-0.0098872,-0.0067843,0.3224735,-0.9278504,-0.1137527,-0.0
 307313,0.0856882,0.0520628,0.0011543,-0.0119201,-0.0028794,0.0577519,0
 .3328219,0.0301957,0.0079615,-0.1884535,0.0634189,-0.0054555,-0.012680
 9,-0.0010292,0.0804033\Polar=15.8969591,-1.6438131,4.9872384,0.1672928
 ,0.4299071,0.0828632\HyperPolar=-202.5118661,-27.7732817,-5.8602646,14
 .4798445,-6.7177998,-1.081992,1.2421638,-0.5658252,0.0572468,-0.02658\
 PG=C01 [X(H3O1)]\NImag=2\\0.05456735,-0.05672988,0.23259786,-0.0041929
 6,0.02059076,0.00193747,-0.03220788,0.05521210,0.00452524,0.03607500,0
 .06862843,-0.22740133,-0.01978965,-0.06422678,0.22700247,0.00578020,-0
 .02006312,-0.00262448,-0.00528317,0.01986954,0.00232034,0.02332906,0.0
 1251079,0.00159253,-0.00240303,-0.00758704,-0.00076566,0.33122097,-0.0
 2944061,-0.00651685,-0.00146012,0.00647725,0.00153460,0.00024495,-0.13
 918494,0.06104718,-0.00236027,-0.00060918,0.00255142,0.00054929,-0.000
 04041,0.00033757,-0.00627851,0.00370598,-0.00780917,-0.04568833,-0.010
 99301,-0.00192484,-0.00146426,0.00318538,0.00026864,-0.35214703,0.1621
 4831,0.00808950,0.39929963,0.01754212,0.00132030,0.00065899,0.00253733
 ,-0.00113573,-0.00005135,0.13426125,-0.05606491,-0.00305639,-0.1543407
 1,0.05588036,0.00077289,0.00008192,-0.00186431,0.00020877,-0.00003986,
 -0.00003359,0.00545165,-0.00249081,0.00492025,-0.00643331,0.00244876,-
 0.00302236\\-0.00005236,-0.00013205,-0.00001193,0.00047844,0.00117407,
 0.00011965,-0.00141762,-0.00362199,-0.00037185,0.00099154,0.00257998,0
 .00026413\\\@


 A BIRD IN THE HAND IS SAFER THAN ONE OVERHEAD.

                       -- NEWTON'S SEVENTH LAW
 Job cpu time:       0 days  0 hours  0 minutes 18.9 seconds.
 Elapsed time:       0 days  0 hours  0 minutes  2.6 seconds.
 File lengths (MBytes):  RWF=      5 Int=      0 D2E=      0 Chk=      2 Scr=      1
 Normal termination of Gaussian 16 at Wed Oct 28 15:47:21 2020.
