 Entering Gaussian System, Link 0=g16
 Input=MN_95_RKT21_BH76_PM6_SE.in
 Output=MN_95_RKT21_BH76_PM6_SE.log
 Initial command:
 /udrive/faculty/rpeverati/g16/g16/l1.exe "/udrive/scratch-directories/gaussian09/rpeverati/Gau-30976.inp" -scrdir="/udrive/scratch-directories/gaussian09/rpeverati/"
 Entering Link 1 = /udrive/faculty/rpeverati/g16/g16/l1.exe PID=     30977.
  
 Copyright (c) 1988,1990,1992,1993,1995,1998,2003,2009,2016,
            Gaussian, Inc.  All Rights Reserved.
  
 This is part of the Gaussian(R) 16 program.  It is based on
 the Gaussian(R) 09 system (copyright 2009, Gaussian, Inc.),
 the Gaussian(R) 03 system (copyright 2003, Gaussian, Inc.),
 the Gaussian(R) 98 system (copyright 1998, Gaussian, Inc.),
 the Gaussian(R) 94 system (copyright 1995, Gaussian, Inc.),
 the Gaussian 92(TM) system (copyright 1992, Gaussian, Inc.),
 the Gaussian 90(TM) system (copyright 1990, Gaussian, Inc.),
 the Gaussian 88(TM) system (copyright 1988, Gaussian, Inc.),
 the Gaussian 86(TM) system (copyright 1986, Carnegie Mellon
 University), and the Gaussian 82(TM) system (copyright 1983,
 Carnegie Mellon University). Gaussian is a federally registered
 trademark of Gaussian, Inc.
  
 This software contains proprietary and confidential information,
 including trade secrets, belonging to Gaussian, Inc.
  
 This software is provided under written license and may be
 used, copied, transmitted, or stored only in accord with that
 written license.
  
 The following legend is applicable only to US Government
 contracts under FAR:
  
                    RESTRICTED RIGHTS LEGEND
  
 Use, reproduction and disclosure by the US Government is
 subject to restrictions as set forth in subparagraphs (a)
 and (c) of the Commercial Computer Software - Restricted
 Rights clause in FAR 52.227-19.
  
 Gaussian, Inc.
 340 Quinnipiac St., Bldg. 40, Wallingford CT 06492
  
  
 ---------------------------------------------------------------
 Warning -- This program may not be used in any manner that
 competes with the business of Gaussian, Inc. or will provide
 assistance to any competitor of Gaussian, Inc.  The licensee
 of this program is prohibited from giving any competitor of
 Gaussian, Inc. access to this program.  By using this program,
 the user acknowledges that Gaussian, Inc. is engaged in the
 business of creating and licensing software in the field of
 computational chemistry and represents and warrants to the
 licensee that it is not a competitor of Gaussian, Inc. and that
 it will not use this program in any manner prohibited above.
 ---------------------------------------------------------------
  

 Cite this work as:
 Gaussian 16, Revision A.03,
 M. J. Frisch, G. W. Trucks, H. B. Schlegel, G. E. Scuseria, 
 M. A. Robb, J. R. Cheeseman, G. Scalmani, V. Barone, 
 G. A. Petersson, H. Nakatsuji, X. Li, M. Caricato, A. V. Marenich, 
 J. Bloino, B. G. Janesko, R. Gomperts, B. Mennucci, H. P. Hratchian, 
 J. V. Ortiz, A. F. Izmaylov, J. L. Sonnenberg, D. Williams-Young, 
 F. Ding, F. Lipparini, F. Egidi, J. Goings, B. Peng, A. Petrone, 
 T. Henderson, D. Ranasinghe, V. G. Zakrzewski, J. Gao, N. Rega, 
 G. Zheng, W. Liang, M. Hada, M. Ehara, K. Toyota, R. Fukuda, 
 J. Hasegawa, M. Ishida, T. Nakajima, Y. Honda, O. Kitao, H. Nakai, 
 T. Vreven, K. Throssell, J. A. Montgomery, Jr., J. E. Peralta, 
 F. Ogliaro, M. J. Bearpark, J. J. Heyd, E. N. Brothers, K. N. Kudin, 
 V. N. Staroverov, T. A. Keith, R. Kobayashi, J. Normand, 
 K. Raghavachari, A. P. Rendell, J. C. Burant, S. S. Iyengar, 
 J. Tomasi, M. Cossi, J. M. Millam, M. Klene, C. Adamo, R. Cammi, 
 J. W. Ochterski, R. L. Martin, K. Morokuma, O. Farkas, 
 J. B. Foresman, and D. J. Fox, Gaussian, Inc., Wallingford CT, 2016.
 
 ******************************************
 Gaussian 16:  ES64L-G16RevA.03 25-Dec-2016
                21-Oct-2020 
 ******************************************
 %NoSave
 %nproc=12
 Will use up to   12 processors via shared memory.
 %mem=20GB
 %chk=MN_95_RKT21_BH76_PM6_SE
 ----------------------------------------------------------------------
 #P Opt(TS,MaxCyc=50,NoEigenTest,MaxStep=10,AddRedundant) PM6 5D 7F Int
 egral=UltraFineGrid SCF=(NoSymm,XQC,MaxCyc=120) IOp(1/33=1)
 ----------------------------------------------------------------------
 1/5=1,6=50,8=10,11=1,18=120,26=1,33=1,38=1/1,3;
 2/9=110,12=2,17=6,18=5,40=1/2;
 3/5=2,8=11,25=1,41=3900000,71=1,75=-5/1,2,3;
 4/9=2,35=1/1;
 5/5=2,7=120,8=3,13=1,35=1,38=5/2,8;
 6/7=2,8=2,9=2,10=2,28=1/1;
 7//1,2,3,16;
 1/5=1,6=50,8=10,11=1,18=20,26=1,33=1/3(2);
 2/9=110/2;
 99//99;
 2/9=110/2;
 3/5=2,8=11,25=1,41=3900000,71=1,75=-5,135=20/1,2,3;
 4/5=5,9=2,16=3,35=1/1;
 5/5=2,7=120,8=3,13=1,35=1,38=5/2,8;
 7//1,2,3,16;
 1/5=1,6=50,8=10,11=1,18=20,26=1,33=1/3(-5);
 2/9=110/2;
 6/7=2,8=2,9=2,10=2,19=2,28=1/1;
 99/9=1/99;
 Leave Link    1 at Wed Oct 21 14:32:00 2020, MaxMem=  2684354560 cpu:              11.9 elap:               1.2
 (Enter /udrive/faculty/rpeverati/g16/g16/l101.exe)
 ONIOM data not found on unit 2.
 ------------------
 TS search on BH76.
 ------------------
 TstMul:  ICh=     0
 TstMul:  Mul=     2
 TstMul:  ICh=     0
 TstMul:  Mul=     2
 Symbolic Z-matrix:
 Charge =  0 Multiplicity = 2
 C                    -1.26075  -0.00001   0.01229 
 N                     1.31325  -0.00001  -0.13678 
 H                    -1.58399   0.90854  -0.48474 
 H                    -1.46367  -0.00457   1.0773 
 H                    -1.58475  -0.90388  -0.4927 
 H                     0.04311  -0.00006  -0.15169 
 H                     1.48046   0.80558   0.46775 
 H                     1.48056  -0.80552   0.46781 
 
 RdStrC is calling ZToCFu for IStruc=1 NZ=     8.
 PrtBox:  NBox=     1 Levels=  1 BoxLen=    8.00 SMaxX=        5.79
          Shift=            2.994740            1.708090            0.931068
 Box      1 Number                   0 centers from      1 to      8:
 After GenITR:
 ITRead=  0  0  0  0  0  0  0  0
 MicOpt= -1 -1 -1 -1 -1 -1 -1 -1
 Add virtual bond connecting atoms H6         and N2         Dist= 2.40D+00.
 Add virtual bond connecting atoms H6         and C1         Dist= 2.48D+00.
 The following ModRedundant input section has been read:
 
 ITRead=  0  0  0  0  0  0  0  0
 MicOpt= -1 -1 -1 -1 -1 -1 -1 -1
 NAtoms=      8 NQM=        8 NQMF=       0 NMMI=      0 NMMIF=      0
                NMic=       0 NMicF=      0.
                    Isotopes and Nuclear Properties:
 (Nuclear quadrupole moments (NQMom) in fm**2, nuclear magnetic moments (NMagM)
  in nuclear magnetons)

  Atom         1           2           3           4           5           6           7           8
 IAtWgt=          12          14           1           1           1           1           1           1
 AtmWgt=  12.0000000  14.0030740   1.0078250   1.0078250   1.0078250   1.0078250   1.0078250   1.0078250
 NucSpn=           0           2           1           1           1           1           1           1
 AtZEff=   0.0000000   0.0000000   0.0000000   0.0000000   0.0000000   0.0000000   0.0000000   0.0000000
 NQMom=    0.0000000   2.0440000   0.0000000   0.0000000   0.0000000   0.0000000   0.0000000   0.0000000
 NMagM=    0.0000000   0.4037610   2.7928460   2.7928460   2.7928460   2.7928460   2.7928460   2.7928460
 AtZNuc=   6.0000000   7.0000000   1.0000000   1.0000000   1.0000000   1.0000000   1.0000000   1.0000000
 No MM parameters found.
 Leave Link  101 at Wed Oct 21 14:32:02 2020, MaxMem=  2684354560 cpu:               5.2 elap:               0.8
 (Enter /udrive/faculty/rpeverati/g16/g16/l103.exe)

 GradGradGradGradGradGradGradGradGradGradGradGradGradGradGradGradGradGrad
 Berny optimization.
 Optmz: redundant internal coordinate code flag= 1
 Initialization pass.
                           ----------------------------
                           !    Initial Parameters    !
                           ! (Angstroms and Degrees)  !
 --------------------------                            --------------------------
 ! Name  Definition              Value          Derivative Info.                !
 --------------------------------------------------------------------------------
 ! R1    R(1,3)                  1.0849         estimate D2E/DX2                !
 ! R2    R(1,4)                  1.0842         estimate D2E/DX2                !
 ! R3    R(1,5)                  1.0849         estimate D2E/DX2                !
 ! R4    R(1,6)                  1.3141         estimate D2E/DX2                !
 ! R5    R(2,6)                  1.2702         estimate D2E/DX2                !
 ! R6    R(2,7)                  1.021          estimate D2E/DX2                !
 ! R7    R(2,8)                  1.021          estimate D2E/DX2                !
 ! A1    A(3,1,4)              113.4411         estimate D2E/DX2                !
 ! A2    A(3,1,5)              113.2966         estimate D2E/DX2                !
 ! A3    A(3,1,6)              103.7971         estimate D2E/DX2                !
 ! A4    A(4,1,5)              113.4432         estimate D2E/DX2                !
 ! A5    A(4,1,6)              107.9558         estimate D2E/DX2                !
 ! A6    A(5,1,6)              103.7799         estimate D2E/DX2                !
 ! A7    A(6,2,7)               99.8312         estimate D2E/DX2                !
 ! A8    A(6,2,8)               99.8326         estimate D2E/DX2                !
 ! A9    A(7,2,8)              104.1852         estimate D2E/DX2                !
 ! A10   L(1,6,2,7,-1)         174.868          estimate D2E/DX2                !
 ! A11   L(1,6,2,7,-2)         170.2166         estimate D2E/DX2                !
 ! D1    D(3,1,2,7)             66.8187         estimate D2E/DX2                !
 ! D2    D(3,1,2,8)            172.2587         estimate D2E/DX2                !
 ! D3    D(4,1,2,7)            -52.9713         estimate D2E/DX2                !
 ! D4    D(4,1,2,8)             52.4687         estimate D2E/DX2                !
 ! D5    D(5,1,2,7)           -172.7712         estimate D2E/DX2                !
 ! D6    D(5,1,2,8)            -67.3312         estimate D2E/DX2                !
 --------------------------------------------------------------------------------
 Maximum allowed force set to 1.00D+20.
 Trust Radius=1.00D-01 FncErr=1.00D-07 GrdErr=1.00D-07 EigMax=2.50D+02 EigMin=1.00D-04
 Number of steps in this run=     50 maximum allowed number of steps=    100.
 Search for a saddle point of order  1.
 GradGradGradGradGradGradGradGradGradGradGradGradGradGradGradGradGradGrad

 Leave Link  103 at Wed Oct 21 14:32:03 2020, MaxMem=  2684354560 cpu:               1.7 elap:               1.1
 (Enter /udrive/faculty/rpeverati/g16/g16/l202.exe)
                          Input orientation:                          
 ---------------------------------------------------------------------
 Center     Atomic      Atomic             Coordinates (Angstroms)
 Number     Number       Type             X           Y           Z
 ---------------------------------------------------------------------
      1          6           0       -1.260749   -0.000006    0.012291
      2          7           0        1.313254   -0.000005   -0.136782
      3          1           0       -1.583986    0.908539   -0.484744
      4          1           0       -1.463672   -0.004573    1.077304
      5          1           0       -1.584748   -0.903882   -0.492700
      6          1           0        0.043108   -0.000064   -0.151692
      7          1           0        1.480458    0.805577    0.467751
      8          1           0        1.480558   -0.805524    0.467808
 ---------------------------------------------------------------------
                    Distance matrix (angstroms):
                    1          2          3          4          5
     1  C    0.000000
     2  N    2.578316   0.000000
     3  H    1.084887   3.056228   0.000000
     4  H    1.084183   3.030734   1.813352   0.000000
     5  H    1.084889   3.056483   1.812439   1.813375   0.000000
     6  H    1.314128   1.270233   1.893124   1.944438   1.892905
     7  H    2.893203   1.020970   3.210711   3.113808   3.638709
     8  H    2.893289   1.020971   3.638242   3.111512   3.213776
                    6          7          8
     6  H    0.000000
     7  H    1.760324   0.000000
     8  H    1.760344   1.611101   0.000000
 Stoichiometry    CH6N(2)
 Framework group  C1[X(CH6N)]
 Deg. of freedom    18
 Full point group                 C1      NOp   1
 Largest Abelian subgroup         C1      NOp   1
 Largest concise Abelian subgroup C1      NOp   1
                         Standard orientation:                         
 ---------------------------------------------------------------------
 Center     Atomic      Atomic             Coordinates (Angstroms)
 Number     Number       Type             X           Y           Z
 ---------------------------------------------------------------------
      1          6           0       -1.260749   -0.000006    0.012291
      2          7           0        1.313254   -0.000005   -0.136782
      3          1           0       -1.583986    0.908539   -0.484744
      4          1           0       -1.463672   -0.004573    1.077304
      5          1           0       -1.584748   -0.903882   -0.492700
      6          1           0        0.043108   -0.000064   -0.151692
      7          1           0        1.480458    0.805577    0.467752
      8          1           0        1.480558   -0.805524    0.467808
 ---------------------------------------------------------------------
 Rotational constants (GHZ):          95.5988599           8.8451640           8.7471624
 Leave Link  202 at Wed Oct 21 14:32:05 2020, MaxMem=  2684354560 cpu:               3.9 elap:               1.1
 (Enter /udrive/faculty/rpeverati/g16/g16/l301.exe)
 Standard basis: VSTO-6G (5D, 7F)
 Ernie: Thresh=  0.10000D-02 Tol=  0.10000D-05 Strict=F.
  NNHCO=     0 NNPyr=     0 NCTC=     0               EPep=         0.000000000
    EC=        21.459755175  ECS=         1.233464100   EG=         0.036527641
   EHC=         0.000328839  EAt=       -13.142836062  AtH=         0.950586444
 EPDDG=         0.000000000  ECC=        22.730075755 EAtT=        14.093422506
 There are    14 symmetry adapted cartesian basis functions of A   symmetry.
 There are    14 symmetry adapted basis functions of A   symmetry.
    14 basis functions,    84 primitive gaussians,    14 cartesian basis functions
     8 alpha electrons        7 beta electrons
       nuclear repulsion energy        36.8234982614 Hartrees.
 IExCor=    0 DFT=F Ex=HF Corr=None ExCW=0 ScaHFX=  1.000000
 ScaDFX=  1.000000  1.000000  1.000000  1.000000 ScalE2=  1.000000  1.000000
 IRadAn=      5 IRanWt=     -1 IRanGd=            0 ICorTp=0 IEmpDi=  4
 Integral buffers will be    131072 words long.
 Regular integral format.
 Two-electron integral symmetry is turned off.
 Leave Link  301 at Wed Oct 21 14:32:07 2020, MaxMem=  2684354560 cpu:               4.6 elap:               1.1
 (Enter /udrive/faculty/rpeverati/g16/g16/l302.exe)
 Do NDO integrals.
 NPDir=0 NMtPBC=     1 NCelOv=     1 NCel=       1 NClECP=     1 NCelD=      1
         NCelK=      1 NCelE2=     1 NClLst=     1 CellRange=     0.0.
 One-electron integrals computed using PRISM.
 NBasis=    14 RedAO= F EigKep=  0.00D+00  NBF=    14
 NBsUse=    14 1.00D-04 EigRej=  0.00D+00 NBFU=    14
 Leave Link  302 at Wed Oct 21 14:32:08 2020, MaxMem=  2684354560 cpu:               3.1 elap:               1.1
 (Enter /udrive/faculty/rpeverati/g16/g16/l303.exe)
 DipDrv:  MaxL=1.
 Leave Link  303 at Wed Oct 21 14:32:10 2020, MaxMem=  2684354560 cpu:               2.7 elap:               0.9
 (Enter /udrive/faculty/rpeverati/g16/g16/l401.exe)
 SCF N**3 symmetry information disabled.
 Simple Huckel Guess.
 JPrj=0 DoOrth=F DoCkMO=F.
 Initial guess <Sx>= 0.0000 <Sy>= 0.0000 <Sz>= 0.5000 <S**2>= 0.7500 S= 0.5000
 Leave Link  401 at Wed Oct 21 14:32:12 2020, MaxMem=  2684354560 cpu:               1.5 elap:               0.9
 (Enter /udrive/faculty/rpeverati/g16/g16/l502.exe)
 Keep J ints in memory in canonical form, NReq=859572.
 FoFCou: FMM=F IPFlag=           0 FMFlag=           0 FMFlg1=           0
         NFxFlg=           0 DoJE=F BraDBF=F KetDBF=F FulRan=T
         wScrn=  0.000000 ICntrl=       600 IOpCl=  2 I1Cent=           0 NGrid=           0
         NMat0=    1 NMatS0=     26 NMatT0=    0 NMatD0=    1 NMtDS0=    0 NMtDT0=    0
 Symmetry not used in FoFCou.
 Two-electron integral symmetry not used.
 UHF open shell SCF:
 Using DIIS extrapolation, IDIIS=  1040.
 Overlap will be assumed to be unity.
 NGot=  2684354560 LenX=  2684293681 LenY=  2684292799
 Requested convergence on RMS density matrix=1.00D-08 within 120 cycles.
 Requested convergence on MAX density matrix=1.00D-06.
 Requested convergence on             energy=1.00D-06.
 No special actions if energy rises.

 Cycle   1  Pass 1  IDiag  1:
 E= 0.221842586673731    
 DIIS: error= 6.09D-02 at cycle   1 NSaved=   1.
 NSaved= 1 IEnMin= 1 EnMin= 0.221842586673731     IErMin= 1 ErrMin= 6.09D-02
 ErrMax= 6.09D-02  0.00D+00 EMaxC= 1.00D-01 BMatC= 1.95D-01 BMatP= 1.95D-01
 IDIUse=3 WtCom= 3.91D-01 WtEn= 6.09D-01
 Coeff-Com:  0.100D+01
 Coeff-En:   0.100D+01
 Coeff:      0.100D+01
 GapD=    2.000 DampG=2.000 DampE=0.500 DampFc=1.0000 IDamp=-1.
 RMSDP=2.47D-02 MaxDP=1.79D-01              OVMax= 0.00D+00

 Cycle   2  Pass 1  IDiag  1:
 E= 0.935935442826690E-01 Delta-E=       -0.128249042391 Rises=F Damp=F
 DIIS: error= 1.42D-02 at cycle   2 NSaved=   2.
 NSaved= 2 IEnMin= 2 EnMin= 0.935935442826690E-01 IErMin= 2 ErrMin= 1.42D-02
 ErrMax= 1.42D-02  0.00D+00 EMaxC= 1.00D-01 BMatC= 1.42D-02 BMatP= 1.95D-01
 IDIUse=3 WtCom= 8.58D-01 WtEn= 1.42D-01
 Coeff-Com: -0.290D+00 0.129D+01
 Coeff-En:   0.000D+00 0.100D+01
 Coeff:     -0.249D+00 0.125D+01
 RMSDP=9.62D-03 MaxDP=5.07D-02 DE=-1.28D-01 OVMax= 0.00D+00

 Cycle   3  Pass 1  IDiag  3:
 E= 0.802370735547981E-01 Delta-E=       -0.013356470728 Rises=F Damp=F
 DIIS: error= 3.56D-03 at cycle   3 NSaved=   3.
 NSaved= 3 IEnMin= 3 EnMin= 0.802370735547981E-01 IErMin= 3 ErrMin= 3.56D-03
 ErrMax= 3.56D-03  0.00D+00 EMaxC= 1.00D-01 BMatC= 1.17D-03 BMatP= 1.42D-02
 IDIUse=3 WtCom= 9.64D-01 WtEn= 3.56D-02
 Coeff-Com:  0.190D+00-0.100D+01 0.181D+01
 Coeff-En:   0.000D+00 0.000D+00 0.100D+01
 Coeff:      0.183D+00-0.967D+00 0.178D+01
 Gap=     0.523 Goal=   None    Shift=    0.000
 Gap=     0.355 Goal=   None    Shift=    0.000
 RMSDP=5.25D-03 MaxDP=3.43D-02 DE=-1.34D-02 OVMax= 4.07D-02

 Cycle   4  Pass 1  IDiag  3:
 E= 0.781845032823938E-01 Delta-E=       -0.002052570272 Rises=F Damp=F
 DIIS: error= 1.74D-03 at cycle   4 NSaved=   4.
 NSaved= 4 IEnMin= 4 EnMin= 0.781845032823938E-01 IErMin= 4 ErrMin= 1.74D-03
 ErrMax= 1.74D-03  0.00D+00 EMaxC= 1.00D-01 BMatC= 8.26D-05 BMatP= 1.17D-03
 IDIUse=3 WtCom= 9.83D-01 WtEn= 1.74D-02
 Coeff-Com: -0.795D-01 0.442D+00-0.950D+00 0.159D+01
 Coeff-En:   0.000D+00 0.000D+00 0.000D+00 0.100D+01
 Coeff:     -0.781D-01 0.434D+00-0.933D+00 0.158D+01
 Gap=     0.528 Goal=   None    Shift=    0.000
 Gap=     0.358 Goal=   None    Shift=    0.000
 RMSDP=1.91D-03 MaxDP=1.57D-02 DE=-2.05D-03 OVMax= 2.37D-02

 Cycle   5  Pass 1  IDiag  3:
 E= 0.779417437904897E-01 Delta-E=       -0.000242759492 Rises=F Damp=F
 DIIS: error= 9.02D-04 at cycle   5 NSaved=   5.
 NSaved= 5 IEnMin= 5 EnMin= 0.779417437904897E-01 IErMin= 5 ErrMin= 9.02D-04
 ErrMax= 9.02D-04  0.00D+00 EMaxC= 1.00D-01 BMatC= 2.01D-05 BMatP= 8.26D-05
 IDIUse=3 WtCom= 9.91D-01 WtEn= 9.02D-03
 Coeff-Com:  0.177D-01-0.103D+00 0.279D+00-0.111D+01 0.192D+01
 Coeff-En:   0.000D+00 0.000D+00 0.000D+00 0.000D+00 0.100D+01
 Coeff:      0.176D-01-0.102D+00 0.277D+00-0.110D+01 0.191D+01
 Gap=     0.527 Goal=   None    Shift=    0.000
 Gap=     0.358 Goal=   None    Shift=    0.000
 RMSDP=1.47D-03 MaxDP=1.22D-02 DE=-2.43D-04 OVMax= 1.93D-02

 Cycle   6  Pass 1  IDiag  3:
 E= 0.778605750712487E-01 Delta-E=       -0.000081168719 Rises=F Damp=F
 DIIS: error= 2.49D-04 at cycle   6 NSaved=   6.
 NSaved= 6 IEnMin= 6 EnMin= 0.778605750712487E-01 IErMin= 6 ErrMin= 2.49D-04
 ErrMax= 2.49D-04  0.00D+00 EMaxC= 1.00D-01 BMatC= 3.16D-06 BMatP= 2.01D-05
 IDIUse=3 WtCom= 9.98D-01 WtEn= 2.49D-03
 Coeff-Com: -0.296D-02 0.231D-01-0.108D+00 0.796D+00-0.177D+01 0.206D+01
 Coeff-En:   0.000D+00 0.000D+00 0.000D+00 0.000D+00 0.000D+00 0.100D+01
 Coeff:     -0.295D-02 0.230D-01-0.107D+00 0.794D+00-0.177D+01 0.206D+01
 Gap=     0.527 Goal=   None    Shift=    0.000
 Gap=     0.357 Goal=   None    Shift=    0.000
 RMSDP=5.82D-04 MaxDP=4.61D-03 DE=-8.12D-05 OVMax= 7.46D-03

 Cycle   7  Pass 1  IDiag  3:
 E= 0.778487710497018E-01 Delta-E=       -0.000011804022 Rises=F Damp=F
 DIIS: error= 1.10D-04 at cycle   7 NSaved=   7.
 NSaved= 7 IEnMin= 7 EnMin= 0.778487710497018E-01 IErMin= 7 ErrMin= 1.10D-04
 ErrMax= 1.10D-04  0.00D+00 EMaxC= 1.00D-01 BMatC= 4.97D-07 BMatP= 3.16D-06
 IDIUse=3 WtCom= 9.99D-01 WtEn= 1.10D-03
 Coeff-Com: -0.146D-03-0.599D-02 0.687D-01-0.695D+00 0.164D+01-0.225D+01
 Coeff-Com:  0.224D+01
 Coeff-En:   0.000D+00 0.000D+00 0.000D+00 0.000D+00 0.000D+00 0.000D+00
 Coeff-En:   0.100D+01
 Coeff:     -0.146D-03-0.598D-02 0.686D-01-0.694D+00 0.164D+01-0.225D+01
 Coeff:      0.224D+01
 Gap=     0.527 Goal=   None    Shift=    0.000
 Gap=     0.358 Goal=   None    Shift=    0.000
 RMSDP=2.28D-04 MaxDP=1.66D-03 DE=-1.18D-05 OVMax= 2.57D-03

 Cycle   8  Pass 1  IDiag  3:
 E= 0.778470163411242E-01 Delta-E=       -0.000001754709 Rises=F Damp=F
 DIIS: error= 4.10D-05 at cycle   8 NSaved=   8.
 NSaved= 8 IEnMin= 8 EnMin= 0.778470163411242E-01 IErMin= 8 ErrMin= 4.10D-05
 ErrMax= 4.10D-05  0.00D+00 EMaxC= 1.00D-01 BMatC= 6.04D-08 BMatP= 4.97D-07
 IDIUse=1 WtCom= 1.00D+00 WtEn= 0.00D+00
 Coeff-Com: -0.532D-03 0.908D-02-0.667D-01 0.600D+00-0.140D+01 0.192D+01
 Coeff-Com: -0.217D+01 0.210D+01
 Coeff:     -0.532D-03 0.908D-02-0.667D-01 0.600D+00-0.140D+01 0.192D+01
 Coeff:     -0.217D+01 0.210D+01
 Gap=     0.527 Goal=   None    Shift=    0.000
 Gap=     0.357 Goal=   None    Shift=    0.000
 RMSDP=7.15D-05 MaxDP=5.82D-04 DE=-1.75D-06 OVMax= 5.95D-04

 Cycle   9  Pass 1  IDiag  3:
 E= 0.778468383585604E-01 Delta-E=       -0.000000177983 Rises=F Damp=F
 DIIS: error= 9.19D-06 at cycle   9 NSaved=   9.
 NSaved= 9 IEnMin= 9 EnMin= 0.778468383585604E-01 IErMin= 9 ErrMin= 9.19D-06
 ErrMax= 9.19D-06  0.00D+00 EMaxC= 1.00D-01 BMatC= 4.49D-09 BMatP= 6.04D-08
 IDIUse=1 WtCom= 1.00D+00 WtEn= 0.00D+00
 Coeff-Com:  0.151D-03-0.380D-02 0.289D-01-0.259D+00 0.599D+00-0.819D+00
 Coeff-Com:  0.959D+00-0.116D+01 0.165D+01
 Coeff:      0.151D-03-0.380D-02 0.289D-01-0.259D+00 0.599D+00-0.819D+00
 Coeff:      0.959D+00-0.116D+01 0.165D+01
 Gap=     0.527 Goal=   None    Shift=    0.000
 Gap=     0.357 Goal=   None    Shift=    0.000
 RMSDP=1.36D-05 MaxDP=1.21D-04 DE=-1.78D-07 OVMax= 1.13D-04

 Cycle  10  Pass 1  IDiag  3:
 E= 0.778468291798760E-01 Delta-E=       -0.000000009179 Rises=F Damp=F
 DIIS: error= 1.48D-06 at cycle  10 NSaved=  10.
 NSaved=10 IEnMin=10 EnMin= 0.778468291798760E-01 IErMin=10 ErrMin= 1.48D-06
 ErrMax= 1.48D-06  0.00D+00 EMaxC= 1.00D-01 BMatC= 2.62D-10 BMatP= 4.49D-09
 IDIUse=1 WtCom= 1.00D+00 WtEn= 0.00D+00
 Coeff-Com: -0.538D-04 0.870D-03-0.516D-02 0.410D-01-0.920D-01 0.123D+00
 Coeff-Com: -0.154D+00 0.222D+00-0.527D+00 0.139D+01
 Coeff:     -0.538D-04 0.870D-03-0.516D-02 0.410D-01-0.920D-01 0.123D+00
 Coeff:     -0.154D+00 0.222D+00-0.527D+00 0.139D+01
 Gap=     0.527 Goal=   None    Shift=    0.000
 Gap=     0.357 Goal=   None    Shift=    0.000
 RMSDP=2.74D-06 MaxDP=1.91D-05 DE=-9.18D-09 OVMax= 2.23D-05

 Cycle  11  Pass 1  IDiag  3:
 E= 0.778468287379539E-01 Delta-E=       -0.000000000442 Rises=F Damp=F
 DIIS: error= 4.55D-07 at cycle  11 NSaved=  11.
 NSaved=11 IEnMin=11 EnMin= 0.778468287379539E-01 IErMin=11 ErrMin= 4.55D-07
 ErrMax= 4.55D-07  0.00D+00 EMaxC= 1.00D-01 BMatC= 2.50D-11 BMatP= 2.62D-10
 IDIUse=1 WtCom= 1.00D+00 WtEn= 0.00D+00
 Coeff-Com:  0.164D-04-0.255D-03 0.119D-02-0.775D-02 0.162D-01-0.202D-01
 Coeff-Com:  0.294D-01-0.532D-01 0.181D+00-0.762D+00 0.162D+01
 Coeff:      0.164D-04-0.255D-03 0.119D-02-0.775D-02 0.162D-01-0.202D-01
 Coeff:      0.294D-01-0.532D-01 0.181D+00-0.762D+00 0.162D+01
 Gap=     0.527 Goal=   None    Shift=    0.000
 Gap=     0.357 Goal=   None    Shift=    0.000
 RMSDP=7.98D-07 MaxDP=4.66D-06 DE=-4.42D-10 OVMax= 6.06D-06

 Cycle  12  Pass 1  IDiag  3:
 E= 0.778468286971403E-01 Delta-E=       -0.000000000041 Rises=F Damp=F
 DIIS: error= 1.34D-07 at cycle  12 NSaved=  12.
 NSaved=12 IEnMin=12 EnMin= 0.778468286971403E-01 IErMin=12 ErrMin= 1.34D-07
 ErrMax= 1.34D-07  0.00D+00 EMaxC= 1.00D-01 BMatC= 1.81D-12 BMatP= 2.50D-11
 IDIUse=1 WtCom= 1.00D+00 WtEn= 0.00D+00
 Coeff-Com: -0.461D-05 0.643D-04-0.133D-03-0.251D-03 0.147D-02-0.310D-02
 Coeff-Com:  0.729D-03 0.799D-02-0.591D-01 0.333D+00-0.947D+00 0.167D+01
 Coeff:     -0.461D-05 0.643D-04-0.133D-03-0.251D-03 0.147D-02-0.310D-02
 Coeff:      0.729D-03 0.799D-02-0.591D-01 0.333D+00-0.947D+00 0.167D+01
 Gap=     0.527 Goal=   None    Shift=    0.000
 Gap=     0.357 Goal=   None    Shift=    0.000
 RMSDP=2.01D-07 MaxDP=8.88D-07 DE=-4.08D-11 OVMax= 9.91D-07

 Cycle  13  Pass 1  IDiag  3:
 E= 0.778468286941774E-01 Delta-E=       -0.000000000003 Rises=F Damp=F
 DIIS: error= 3.99D-08 at cycle  13 NSaved=  13.
 NSaved=13 IEnMin=13 EnMin= 0.778468286941774E-01 IErMin=13 ErrMin= 3.99D-08
 ErrMax= 3.99D-08  0.00D+00 EMaxC= 1.00D-01 BMatC= 1.14D-13 BMatP= 1.81D-12
 IDIUse=1 WtCom= 1.00D+00 WtEn= 0.00D+00
 Coeff-Com:  0.319D-05-0.358D-04 0.651D-04 0.211D-03-0.958D-03 0.187D-02
 Coeff-Com: -0.845D-03-0.318D-02 0.266D-01-0.158D+00 0.480D+00-0.102D+01
 Coeff-Com:  0.167D+01
 Coeff:      0.319D-05-0.358D-04 0.651D-04 0.211D-03-0.958D-03 0.187D-02
 Coeff:     -0.845D-03-0.318D-02 0.266D-01-0.158D+00 0.480D+00-0.102D+01
 Coeff:      0.167D+01
 Gap=     0.527 Goal=   None    Shift=    0.000
 Gap=     0.357 Goal=   None    Shift=    0.000
 RMSDP=5.51D-08 MaxDP=4.13D-07 DE=-2.96D-12 OVMax= 2.96D-07

 Cycle  14  Pass 1  IDiag  3:
 E= 0.778468286939926E-01 Delta-E=       -0.000000000000 Rises=F Damp=F
 DIIS: error= 9.41D-09 at cycle  14 NSaved=  14.
 NSaved=14 IEnMin=14 EnMin= 0.778468286939926E-01 IErMin=14 ErrMin= 9.41D-09
 ErrMax= 9.41D-09  0.00D+00 EMaxC= 1.00D-01 BMatC= 6.76D-15 BMatP= 1.14D-13
 IDIUse=1 WtCom= 1.00D+00 WtEn= 0.00D+00
 Coeff-Com: -0.117D-05 0.144D-04-0.381D-04 0.677D-04 0.617D-05-0.193D-03
 Coeff-Com: -0.224D-03 0.167D-02-0.959D-02 0.532D-01-0.163D+00 0.359D+00
 Coeff-Com: -0.740D+00 0.150D+01
 Coeff:     -0.117D-05 0.144D-04-0.381D-04 0.677D-04 0.617D-05-0.193D-03
 Coeff:     -0.224D-03 0.167D-02-0.959D-02 0.532D-01-0.163D+00 0.359D+00
 Coeff:     -0.740D+00 0.150D+01
 Gap=     0.527 Goal=   None    Shift=    0.000
 Gap=     0.357 Goal=   None    Shift=    0.000
 RMSDP=1.30D-08 MaxDP=7.36D-08 DE=-1.85D-13 OVMax= 9.37D-08

 Cycle  15  Pass 1  IDiag  3:
 E= 0.778468286939926E-01 Delta-E=        0.000000000000 Rises=F Damp=F
 DIIS: error= 3.51D-09 at cycle  15 NSaved=  15.
 NSaved=15 IEnMin=14 EnMin= 0.778468286939926E-01 IErMin=15 ErrMin= 3.51D-09
 ErrMax= 3.51D-09  0.00D+00 EMaxC= 1.00D-01 BMatC= 6.26D-16 BMatP= 6.76D-15
 IDIUse=1 WtCom= 1.00D+00 WtEn= 0.00D+00
 Coeff-Com:  0.220D-06-0.246D-05 0.290D-05 0.340D-04-0.115D-03 0.193D-03
 Coeff-Com: -0.133D-03-0.128D-03 0.156D-02-0.101D-01 0.338D-01-0.770D-01
 Coeff-Com:  0.181D+00-0.648D+00 0.152D+01
 Coeff:      0.220D-06-0.246D-05 0.290D-05 0.340D-04-0.115D-03 0.193D-03
 Coeff:     -0.133D-03-0.128D-03 0.156D-02-0.101D-01 0.338D-01-0.770D-01
 Coeff:      0.181D+00-0.648D+00 0.152D+01
 Gap=     0.527 Goal=   None    Shift=    0.000
 Gap=     0.357 Goal=   None    Shift=    0.000
 RMSDP=3.97D-09 MaxDP=2.82D-08 DE= 0.00D+00 OVMax= 2.54D-08

 Cycle  16  Pass 2  IDiag  1:
 SCF Done:  E(UPM6) =  0.778468286940E-01 A.U. after   16 cycles
            NFock= 15  Conv=0.40D-08     -V/T= 1.0035
 <Sx>= 0.0000 <Sy>= 0.0000 <Sz>= 0.5000 <S**2>= 0.7758 S= 0.5128
 <L.S>= 0.000000000000E+00
 KE=-2.253320263919D+01 PE=-4.147557292926D+01 EE= 2.726312413572D+01
 Annihilation of the first spin contaminant:
 S**2 before annihilation     0.7758,   after     0.7502
 Leave Link  502 at Wed Oct 21 14:32:15 2020, MaxMem=  2684354560 cpu:              19.0 elap:               2.6
 (Enter /udrive/faculty/rpeverati/g16/g16/l508.exe)
 QCSCF skips out because SCF is already converged.
 Leave Link  508 at Wed Oct 21 14:32:17 2020, MaxMem=  2684354560 cpu:               0.5 elap:               1.2
 (Enter /udrive/faculty/rpeverati/g16/g16/l601.exe)
 Copying SCF densities to generalized density rwf, IOpCl= 1 IROHF=0.

 **********************************************************************

            Population analysis using the SCF density.

 **********************************************************************

 Orbital symmetries:
 Alpha Orbitals:
       Occupied  (A) (A) (A) (A) (A) (A) (A) (A)
       Virtual   (A) (A) (A) (A) (A) (A)
 Beta  Orbitals:
       Occupied  (A) (A) (A) (A) (A) (A) (A)
       Virtual   (A) (A) (A) (A) (A) (A) (A)
 The electronic state is 2-A.
 Alpha  occ. eigenvalues --   -1.11371  -0.89783  -0.59784  -0.56699  -0.52252
 Alpha  occ. eigenvalues --   -0.51992  -0.42824  -0.36323
 Alpha virt. eigenvalues --    0.16185   0.21030   0.21194   0.21347   0.22840
 Alpha virt. eigenvalues --    0.24322
  Beta  occ. eigenvalues --   -1.07484  -0.88576  -0.58494  -0.52412  -0.51270
  Beta  occ. eigenvalues --   -0.51025  -0.37964
  Beta virt. eigenvalues --   -0.02239   0.18145   0.21548   0.21819   0.22304
  Beta virt. eigenvalues --    0.23668   0.25018
          Condensed to atoms (all electrons):
               1          2          3          4          5          6
     1  C    4.581870   0.000000   0.000000   0.000000   0.000000   0.000000
     2  N    0.000000   5.508952   0.000000   0.000000   0.000000   0.000000
     3  H    0.000000   0.000000   0.835330   0.000000   0.000000   0.000000
     4  H    0.000000   0.000000   0.000000   0.846889   0.000000   0.000000
     5  H    0.000000   0.000000   0.000000   0.000000   0.835263   0.000000
     6  H    0.000000   0.000000   0.000000   0.000000   0.000000   0.765819
     7  H    0.000000   0.000000   0.000000   0.000000   0.000000   0.000000
     8  H    0.000000   0.000000   0.000000   0.000000   0.000000   0.000000
               7          8
     1  C    0.000000   0.000000
     2  N    0.000000   0.000000
     3  H    0.000000   0.000000
     4  H    0.000000   0.000000
     5  H    0.000000   0.000000
     6  H    0.000000   0.000000
     7  H    0.812939   0.000000
     8  H    0.000000   0.812939
          Atomic-Atomic Spin Densities.
               1          2          3          4          5          6
     1  C    0.596093   0.000000   0.000000   0.000000   0.000000   0.000000
     2  N    0.000000   0.647955   0.000000   0.000000   0.000000   0.000000
     3  H    0.000000   0.000000  -0.018386   0.000000   0.000000   0.000000
     4  H    0.000000   0.000000   0.000000  -0.017759   0.000000   0.000000
     5  H    0.000000   0.000000   0.000000   0.000000  -0.018387   0.000000
     6  H    0.000000   0.000000   0.000000   0.000000   0.000000  -0.127483
     7  H    0.000000   0.000000   0.000000   0.000000   0.000000   0.000000
     8  H    0.000000   0.000000   0.000000   0.000000   0.000000   0.000000
               7          8
     1  C    0.000000   0.000000
     2  N    0.000000   0.000000
     3  H    0.000000   0.000000
     4  H    0.000000   0.000000
     5  H    0.000000   0.000000
     6  H    0.000000   0.000000
     7  H   -0.031017   0.000000
     8  H    0.000000  -0.031017
 Mulliken charges and spin densities:
               1          2
     1  C   -0.581870   0.596093
     2  N   -0.508952   0.647955
     3  H    0.164670  -0.018386
     4  H    0.153111  -0.017759
     5  H    0.164737  -0.018387
     6  H    0.234181  -0.127483
     7  H    0.187061  -0.031017
     8  H    0.187061  -0.031017
 Sum of Mulliken charges =   0.00000   1.00000
 Mulliken charges and spin densities with hydrogens summed into heavy atoms:
               1          2
     1  C   -0.099351   0.541562
     2  N    0.099351   0.458438
 Charge=              0.0000 electrons
 Dipole moment (field-independent basis, Debye):
    X=             -0.7414    Y=              0.0001    Z=              2.1528  Tot=              2.2769
 N-N= 3.682349826142D+01 E-N=-4.147557292992D+01  KE=-2.253320263919D+01
 Leave Link  601 at Wed Oct 21 14:32:19 2020, MaxMem=  2684354560 cpu:               3.9 elap:               1.1
 (Enter /udrive/faculty/rpeverati/g16/g16/l701.exe)
 ... and contract with generalized density number  0.
 Compute integral first derivatives.
 Leave Link  701 at Wed Oct 21 14:32:21 2020, MaxMem=  2684354560 cpu:               3.6 elap:               1.2
 (Enter /udrive/faculty/rpeverati/g16/g16/l702.exe)
 L702 exits ... SP integral derivatives will be done elsewhere.
 Leave Link  702 at Wed Oct 21 14:32:23 2020, MaxMem=  2684354560 cpu:               2.0 elap:               1.2
 (Enter /udrive/faculty/rpeverati/g16/g16/l703.exe)
 Integral derivatives from FoFJK, PRISM(SPDF).
 Compute integral first derivatives, UseDBF=F ICtDFT=           0.
 Calling FoFJK, ICntrl=      2127 FMM=F ISym2X=0 I1Cent= 0 IOpClX= 1 NMat=1 NMatS=1 NMatT=0.
 FoFJK:  IHMeth=40 ICntrl=    2127 DoSepK=F KAlg= 0 I1Cent=           0 FoldK=F
 IRaf=         0 NMat=       1 IRICut=       1 DoRegI=T DoRafI=F ISym2E= 0 IDoP0=3 IntGTp=3.
 FoFCou: FMM=F IPFlag=           0 FMFlag=      100000 FMFlg1=         800
         NFxFlg=           0 DoJE=F BraDBF=F KetDBF=F FulRan=T
         wScrn=  0.000000 ICntrl=      2127 IOpCl=  1 I1Cent=           0 NGrid=           0
         NMat0=    1 NMatS0=      1 NMatT0=    0 NMatD0=    1 NMtDS0=    0 NMtDT0=    0
 Symmetry not used in FoFCou.
 Leave Link  703 at Wed Oct 21 14:32:24 2020, MaxMem=  2684354560 cpu:               3.9 elap:               1.1
 (Enter /udrive/faculty/rpeverati/g16/g16/l716.exe)
 Dipole        =-2.91697983D-01 3.84405891D-05 8.46985671D-01
 ***** Axes restored to original set *****
 -------------------------------------------------------------------
 Center     Atomic                   Forces (Hartrees/Bohr)
 Number     Number              X              Y              Z
 -------------------------------------------------------------------
      1        6          -0.012450874    0.000006264    0.003536839
      2        7          -0.005309332    0.000000683    0.017686719
      3        1           0.003840735   -0.004259112    0.001727511
      4        1           0.003739243    0.000019867   -0.005722721
      5        1           0.003844695    0.004235041    0.001766086
      6        1           0.000837731   -0.000002717   -0.006819545
      7        1           0.002749867   -0.002853917   -0.006087090
      8        1           0.002747937    0.002853892   -0.006087799
 -------------------------------------------------------------------
 Cartesian Forces:  Max     0.017686719 RMS     0.005699820
 Leave Link  716 at Wed Oct 21 14:32:26 2020, MaxMem=  2684354560 cpu:               2.8 elap:               0.9
 (Enter /udrive/faculty/rpeverati/g16/g16/l103.exe)

 GradGradGradGradGradGradGradGradGradGradGradGradGradGradGradGradGradGrad
 Berny optimization.
 Optmz: redundant internal coordinate code flag= 1
 FormGI is forming the generalized inverse of G from B-inverse, IUseBI=4.
 Internal  Forces:  Max     0.007565355 RMS     0.003785895
 Search for a saddle point.
 Step number   1 out of a maximum of   50
 All quantities printed in internal units (Hartrees-Bohrs-Radians)
 Swapping is turned off.
 Second derivative matrix not updated -- first step.
 The second derivative matrix:
                          R1        R2        R3        R4        R5
           R1           0.35410
           R2           0.00000   0.35494
           R3           0.00000   0.00000   0.35410
           R4           0.00000   0.00000   0.00000   0.17910
           R5           0.00000   0.00000   0.00000   0.00000   0.20175
           R6           0.00000   0.00000   0.00000   0.00000   0.00000
           R7           0.00000   0.00000   0.00000   0.00000   0.00000
           A1           0.00000   0.00000   0.00000   0.00000   0.00000
           A2           0.00000   0.00000   0.00000   0.00000   0.00000
           A3           0.00000   0.00000   0.00000   0.00000   0.00000
           A4           0.00000   0.00000   0.00000   0.00000   0.00000
           A5           0.00000   0.00000   0.00000   0.00000   0.00000
           A6           0.00000   0.00000   0.00000   0.00000   0.00000
           A7           0.00000   0.00000   0.00000   0.00000   0.00000
           A8           0.00000   0.00000   0.00000   0.00000   0.00000
           A9           0.00000   0.00000   0.00000   0.00000   0.00000
           A10          0.00000   0.00000   0.00000   0.00000   0.00000
           A11          0.00000   0.00000   0.00000   0.00000   0.00000
           D1           0.00000   0.00000   0.00000   0.00000   0.00000
           D2           0.00000   0.00000   0.00000   0.00000   0.00000
           D3           0.00000   0.00000   0.00000   0.00000   0.00000
           D4           0.00000   0.00000   0.00000   0.00000   0.00000
           D5           0.00000   0.00000   0.00000   0.00000   0.00000
           D6           0.00000   0.00000   0.00000   0.00000   0.00000
                          R6        R7        A1        A2        A3
           R6           0.44184
           R7           0.00000   0.44184
           A1           0.00000   0.00000   0.16000
           A2           0.00000   0.00000   0.00000   0.16000
           A3           0.00000   0.00000   0.00000   0.00000   0.16000
           A4           0.00000   0.00000   0.00000   0.00000   0.00000
           A5           0.00000   0.00000   0.00000   0.00000   0.00000
           A6           0.00000   0.00000   0.00000   0.00000   0.00000
           A7           0.00000   0.00000   0.00000   0.00000   0.00000
           A8           0.00000   0.00000   0.00000   0.00000   0.00000
           A9           0.00000   0.00000   0.00000   0.00000   0.00000
           A10          0.00000   0.00000   0.00000   0.00000   0.00000
           A11          0.00000   0.00000   0.00000   0.00000   0.00000
           D1           0.00000   0.00000   0.00000   0.00000   0.00000
           D2           0.00000   0.00000   0.00000   0.00000   0.00000
           D3           0.00000   0.00000   0.00000   0.00000   0.00000
           D4           0.00000   0.00000   0.00000   0.00000   0.00000
           D5           0.00000   0.00000   0.00000   0.00000   0.00000
           D6           0.00000   0.00000   0.00000   0.00000   0.00000
                          A4        A5        A6        A7        A8
           A4           0.16000
           A5           0.00000   0.16000
           A6           0.00000   0.00000   0.16000
           A7           0.00000   0.00000   0.00000   0.16000
           A8           0.00000   0.00000   0.00000   0.00000   0.16000
           A9           0.00000   0.00000   0.00000   0.00000   0.00000
           A10          0.00000   0.00000   0.00000   0.00000   0.00000
           A11          0.00000   0.00000   0.00000   0.00000   0.00000
           D1           0.00000   0.00000   0.00000   0.00000   0.00000
           D2           0.00000   0.00000   0.00000   0.00000   0.00000
           D3           0.00000   0.00000   0.00000   0.00000   0.00000
           D4           0.00000   0.00000   0.00000   0.00000   0.00000
           D5           0.00000   0.00000   0.00000   0.00000   0.00000
           D6           0.00000   0.00000   0.00000   0.00000   0.00000
                          A9        A10       A11       D1        D2
           A9           0.16000
           A10          0.00000   0.00230
           A11          0.00000   0.00000   0.00230
           D1           0.00000   0.00000   0.00000   0.00230
           D2           0.00000   0.00000   0.00000   0.00000   0.00230
           D3           0.00000   0.00000   0.00000   0.00000   0.00000
           D4           0.00000   0.00000   0.00000   0.00000   0.00000
           D5           0.00000   0.00000   0.00000   0.00000   0.00000
           D6           0.00000   0.00000   0.00000   0.00000   0.00000
                          D3        D4        D5        D6
           D3           0.00230
           D4           0.00000   0.00230
           D5           0.00000   0.00000   0.00230
           D6           0.00000   0.00000   0.00000   0.00230
 ITU=  0
 Eigenvectors of the second derivative matrix:
                           1         2         3         4         5
     Eigenvalues --     0.00230   0.00230   0.00230   0.06123   0.08159
   1         R1         0.00000   0.00000  -0.00000  -0.00000   0.00000
   2         R2         0.00000   0.00000  -0.00000  -0.00000  -0.00000
   3         R3         0.00000   0.00000  -0.00000   0.00000   0.00000
   4         R4         0.00000   0.00000  -0.00000  -0.00150  -0.00268
   5         R5         0.00000   0.00000  -0.00000   0.00204  -0.00011
   6         R6         0.00000  -0.00000   0.00000  -0.00034   0.00098
   7         R7         0.00000  -0.00000  -0.00000   0.00000  -0.00000
   8         A1         0.00000  -0.00000   0.00000  -0.02326   0.14869
   9         A2        -0.00000  -0.00000   0.00000   0.01594   0.37186
  10         A3         0.00000  -0.00000   0.00000  -0.00244   0.21872
  11         A4        -0.00000   0.00000   0.00000   0.00741  -0.51847
  12         A5        -0.00000  -0.00000   0.00000  -0.00655  -0.15305
  13         A6         0.00000   0.00000  -0.00000   0.00979  -0.04740
  14         A7         0.00000   0.00000   0.00000   0.10212  -0.00886
  15         A8         0.00000  -0.00000  -0.00000   0.09954   0.00062
  16         A9         0.00000  -0.00000  -0.00000   0.59359   0.00372
  17         A10        0.06900   0.02054  -0.96800  -0.05924   0.00169
  18         A11       -0.95134  -0.25652  -0.06547  -0.04645   0.10284
  19         D1        -0.10371   0.39868  -0.08817  -0.34962  -0.10503
  20         D2        -0.14453   0.38782  -0.16306   0.29219  -0.09756
  21         D3        -0.14543   0.37591   0.12356  -0.29821  -0.29501
  22         D4        -0.18625   0.36505   0.04867   0.34360  -0.28753
  23         D5        -0.01021   0.42364   0.08151  -0.31430   0.38118
  24         D6        -0.05104   0.41278   0.00662   0.32751   0.38865
                           6         7         8         9        10
     Eigenvalues --     0.08286   0.16000   0.16000   0.16000   0.16000
   1         R1        -0.00000   0.00000   0.00000   0.00000  -0.00000
   2         R2         0.00000   0.00000   0.00000   0.00000  -0.00000
   3         R3        -0.00000   0.00000   0.00000   0.00000  -0.00000
   4         R4         0.00266   0.00000   0.00000  -0.00000  -0.00000
   5         R5        -0.00176   0.00000   0.00000   0.00000  -0.00000
   6         R6        -0.00019  -0.00000   0.00000   0.00000  -0.00000
   7         R7         0.00000   0.00000   0.00000  -0.00000  -0.00000
   8         A1         0.51824   0.17458   0.12573  -0.19451  -0.20083
   9         A2        -0.38438  -0.31426   0.15878  -0.14945  -0.30291
  10         A3         0.04179   0.33770   0.00413   0.28779   0.23301
  11         A4        -0.13593   0.14941   0.29366  -0.09637  -0.28725
  12         A5         0.15802  -0.74728  -0.31253   0.19092   0.25852
  13         A6        -0.21896   0.39765  -0.39075   0.05336   0.46431
  14         A7         0.00687   0.10696  -0.76434  -0.35146  -0.44001
  15         A8         0.00598  -0.07987   0.16550  -0.80420   0.50497
  16         A9         0.03568  -0.00501   0.10376   0.19533  -0.00898
  17         A10       -0.15976  -0.00000   0.00000   0.00000  -0.00000
  18         A11       -0.00855   0.00000  -0.00000  -0.00000   0.00000
  19         D1         0.36466  -0.00000   0.00000   0.00000   0.00000
  20         D2         0.39150   0.00000  -0.00000   0.00000   0.00000
  21         D3        -0.28999  -0.00000  -0.00000  -0.00000   0.00000
  22         D4        -0.26315   0.00000  -0.00000  -0.00000   0.00000
  23         D5        -0.12211   0.00000   0.00000   0.00000   0.00000
  24         D6        -0.09527   0.00000   0.00000  -0.00000   0.00000
                          11        12        13        14        15
     Eigenvalues --     0.16000   0.17910   0.20175   0.35410   0.35410
   1         R1         0.00000   0.00000   0.00000   0.00000   1.00000
   2         R2        -0.00000  -0.00000   0.00000   0.00000   0.00000
   3         R3        -0.00000  -0.00000  -0.00000   1.00000  -0.00000
   4         R4         0.00000  -0.99998   0.00005  -0.00000   0.00000
   5         R5         0.00000   0.00002   0.99999   0.00000  -0.00000
   6         R6         0.00000   0.00000  -0.00000   0.00000   0.00000
   7         R7        -0.00000   0.00000   0.00000   0.00000   0.00000
   8         A1        -0.31809   0.00224   0.00246  -0.00000   0.00000
   9         A2        -0.09662  -0.00454  -0.00168  -0.00000  -0.00000
  10         A3         0.71882  -0.00105   0.00026   0.00000  -0.00000
  11         A4         0.16000   0.00227  -0.00079   0.00000  -0.00000
  12         A5         0.07766   0.00187   0.00069   0.00000   0.00000
  13         A6        -0.48852  -0.00104  -0.00103   0.00000  -0.00000
  14         A7         0.24300  -0.00037  -0.00068   0.00000   0.00000
  15         A8         0.19470  -0.00042  -0.00066   0.00000   0.00000
  16         A9        -0.07446  -0.00248  -0.00394  -0.00000  -0.00000
  17         A10        0.00000   0.00009   0.00010  -0.00000  -0.00000
  18         A11       -0.00000   0.00006  -0.00004   0.00000   0.00000
  19         D1         0.00000  -0.00041  -0.00064   0.00000   0.00000
  20         D2         0.00000  -0.00024  -0.00011  -0.00000   0.00000
  21         D3        -0.00000  -0.00009   0.00004   0.00000  -0.00000
  22         D4        -0.00000   0.00009   0.00056   0.00000  -0.00000
  23         D5         0.00000   0.00024  -0.00018  -0.00000  -0.00000
  24         D6         0.00000   0.00041   0.00035  -0.00000  -0.00000
                          16        17        18
     Eigenvalues --     0.35494   0.44183   0.44184
   1         R1        -0.00000  -0.00000   0.00000
   2         R2         1.00000   0.00000   0.00000
   3         R3        -0.00000  -0.00000   0.00000
   4         R4        -0.00000   0.00002  -0.00000
   5         R5        -0.00000   0.00001   0.00000
   6         R6        -0.00000   0.99999  -0.00000
   7         R7         0.00000  -0.00000  -1.00000
   8         A1        -0.00000  -0.00032   0.00000
   9         A2         0.00000  -0.00239   0.00000
  10         A3         0.00000  -0.00115   0.00000
  11         A4        -0.00000   0.00270  -0.00000
  12         A5         0.00000   0.00098  -0.00000
  13         A6        -0.00000   0.00005  -0.00000
  14         A7         0.00000   0.00031  -0.00000
  15         A8         0.00000   0.00026  -0.00000
  16         A9         0.00000   0.00152  -0.00000
  17         A10       -0.00000   0.00018  -0.00000
  18         A11        0.00000   0.00041  -0.00000
  19         D1        -0.00000  -0.00029   0.00000
  20         D2        -0.00000  -0.00091   0.00000
  21         D3        -0.00000  -0.00055   0.00000
  22         D4         0.00000  -0.00116   0.00000
  23         D5         0.00000   0.00174  -0.00000
  24         D6         0.00000   0.00112  -0.00000
 Eigenvalue     1 is   2.30D-03 should be less than     0.000000 Eigenvector:
                          A11       D4        D3        D2        D1
   1                   -0.95134  -0.18625  -0.14543  -0.14453  -0.10371
                          A10       D6        D5        A6        A5
   1                    0.06900  -0.05104  -0.01021   0.00000  -0.00000
 RLam0= 2.81D-03.
 Iter=   1 RLamda= 0.00000000D+00 Sum=-4.00015401D-03.
 Iter=   2 RLamda=-4.00015401D-03 Sum=-2.58287389D-03.
 Iter=   3 RLamda=-2.58287389D-03 Sum=-2.82986230D-03.
 Iter=   4 RLamda=-2.82986230D-03 Sum=-2.77776216D-03.
 Iter=   5 RLamda=-2.77776216D-03 Sum=-2.78835783D-03.
 Iter=   6 RLamda=-2.78835783D-03 Sum=-2.78618658D-03.
 Iter=   7 RLamda=-2.78618658D-03 Sum=-2.78663082D-03.
 Iter=   8 RLamda=-2.78663082D-03 Sum=-2.78653990D-03.
 Iter=   9 RLamda=-2.78653990D-03 Sum=-2.78655851D-03.
 Iter=  10 RLamda=-2.78655851D-03 Sum=-2.78655470D-03.
 RFO step:  Lambda0=2.810840968D-03 Lambda=-2.78655851D-03.
 Linear search not attempted -- option 19 set.
 Maximum step size (   0.100) exceeded in Quadratic search.
    -- Step size scaled by   0.166
 Iteration  1 RMS(Cart)=  0.03529275 RMS(Int)=  0.00125079
 Iteration  2 RMS(Cart)=  0.00149651 RMS(Int)=  0.00022256
 Iteration  3 RMS(Cart)=  0.00000282 RMS(Int)=  0.00022255
 Iteration  4 RMS(Cart)=  0.00000000 RMS(Int)=  0.00022255
 ITry= 1 IFail=0 DXMaxC= 9.31D-02 DCOld= 1.00D+10 DXMaxT= 1.00D-01 DXLimC= 3.00D+00 Rises=F
 Variable       Old X    -DE/DX   Delta X   Delta X   Delta X     New X
                                 (Linear)    (Quad)   (Total)
    R1        2.05014  -0.00550   0.00000  -0.00256  -0.00256   2.04758
    R2        2.04881  -0.00632   0.00000  -0.00294  -0.00294   2.04587
    R3        2.05014  -0.00550   0.00000  -0.00256  -0.00256   2.04758
    R4        2.48334   0.00120   0.00000   0.00108   0.00108   2.48442
    R5        2.40039   0.00017   0.00000   0.00016   0.00017   2.40056
    R6        1.92935  -0.00532   0.00000  -0.00200  -0.00199   1.92736
    R7        1.92936  -0.00541   0.00000  -0.00202  -0.00202   1.92733
    A1        1.97992   0.00279   0.00000   0.00304   0.00266   1.98258
    A2        1.97740   0.00200   0.00000   0.00166   0.00218   1.97958
    A3        1.81160  -0.00282   0.00000  -0.00296  -0.00287   1.80873
    A4        1.97996   0.00254   0.00000   0.00277   0.00260   1.98256
    A5        1.88418  -0.00313   0.00000  -0.00304  -0.00326   1.88093
    A6        1.81130  -0.00292   0.00000  -0.00307  -0.00293   1.80837
    A7        1.74238   0.00741   0.00000   0.00848   0.00854   1.75092
    A8        1.74241   0.00757   0.00000   0.00861   0.00865   1.75106
    A9        1.81837   0.00102   0.00000   0.00633   0.00663   1.82500
   A10        3.05202  -0.00253   0.00000  -0.07556  -0.07566   2.97637
   A11        2.97084  -0.00169   0.00000   0.06336   0.06329   3.03413
    D1        1.16621  -0.00175   0.00000   0.00131   0.00181   1.16802
    D2        3.00648   0.00167   0.00000   0.00831   0.00861   3.01509
    D3       -0.92452  -0.00160   0.00000   0.01908   0.01909  -0.90544
    D4        0.91575   0.00182   0.00000   0.02608   0.02589   0.94164
    D5       -3.01543  -0.00177   0.00000   0.00586   0.00566  -3.00977
    D6       -1.17515   0.00165   0.00000   0.01286   0.01246  -1.16269
         Item               Value     Threshold  Converged?
 Maximum Force            0.007565     0.000450     NO 
 RMS     Force            0.003786     0.000300     NO 
 Maximum Displacement     0.093129     0.001800     NO 
 RMS     Displacement     0.035882     0.001200     NO 
 Predicted change in Energy=-3.354311D-04
 Lowest energy point so far.  Saving SCF results.
 Largest change from initial coordinates is atom    6       0.038 Angstoms.
 GradGradGradGradGradGradGradGradGradGradGradGradGradGradGradGradGradGrad

 Leave Link  103 at Wed Oct 21 14:32:28 2020, MaxMem=  2684354560 cpu:               6.8 elap:               1.6
 (Enter /udrive/faculty/rpeverati/g16/g16/l202.exe)
                          Input orientation:                          
 ---------------------------------------------------------------------
 Center     Atomic      Atomic             Coordinates (Angstroms)
 Number     Number       Type             X           Y           Z
 ---------------------------------------------------------------------
      1          6           0       -1.260971   -0.001718    0.011197
      2          7           0        1.309801    0.010105   -0.130931
      3          1           0       -1.551871    0.915436   -0.487046
      4          1           0       -1.451816    0.004746    1.076853
      5          1           0       -1.617807   -0.894835   -0.487859
      6          1           0        0.041275   -0.049346   -0.162914
      7          1           0        1.439627    0.813601    0.483695
      8          1           0        1.515984   -0.797927    0.456242
 ---------------------------------------------------------------------
                    Distance matrix (angstroms):
                    1          2          3          4          5
     1  C    0.000000
     2  N    2.574725   0.000000
     3  H    1.083532   3.022517   0.000000
     4  H    1.082629   3.014183   1.812497   0.000000
     5  H    1.083534   3.084996   1.811471   1.812490   0.000000
     6  H    1.314697   1.270321   1.890497   1.941461   1.890237
     7  H    2.860285   1.019915   3.146708   3.060478   3.634635
     8  H    2.922926   1.019902   3.638288   3.136444   3.274349
                    6          7          8
     6  H    0.000000
     7  H    1.765834   0.000000
     8  H    1.765926   1.613570   0.000000
 Stoichiometry    CH6N(2)
 Framework group  C1[X(CH6N)]
 Deg. of freedom    18
 Full point group                 C1      NOp   1
 RotChk:  IX=0 Diff= 4.69D-02
 Largest Abelian subgroup         C1      NOp   1
 Largest concise Abelian subgroup C1      NOp   1
                         Standard orientation:                         
 ---------------------------------------------------------------------
 Center     Atomic      Atomic             Coordinates (Angstroms)
 Number     Number       Type             X           Y           Z
 ---------------------------------------------------------------------
      1          6           0       -1.259802   -0.000460    0.012843
      2          7           0        1.310627   -0.000839   -0.135849
      3          1           0       -1.549354    0.900614   -0.514666
      4          1           0       -1.447934    0.041693    1.078166
      5          1           0       -1.620432   -0.908499   -0.455620
      6          1           0        0.041860   -0.057606   -0.162769
      7          1           0        1.444286    0.822102    0.451628
      8          1           0        1.515997   -0.789671    0.477148
 ---------------------------------------------------------------------
 Rotational constants (GHZ):          95.7424620           8.8719833           8.7719722
 Leave Link  202 at Wed Oct 21 14:32:30 2020, MaxMem=  2684354560 cpu:               4.6 elap:               1.2
 (Enter /udrive/faculty/rpeverati/g16/g16/l301.exe)
 Standard basis: VSTO-6G (5D, 7F)
 Ernie: Thresh=  0.10000D-02 Tol=  0.10000D-05 Strict=F.
  NNHCO=     0 NNPyr=     0 NCTC=     0               EPep=         0.000000000
    EC=        21.475933122  ECS=         1.236552655   EG=         0.036530774
   EHC=         0.000333149  EAt=       -13.142836062  AtH=         0.950586444
 EPDDG=         0.000000000  ECC=        22.749349700 EAtT=        14.093422506
 There are    14 symmetry adapted cartesian basis functions of A   symmetry.
 There are    14 symmetry adapted basis functions of A   symmetry.
    14 basis functions,    84 primitive gaussians,    14 cartesian basis functions
     8 alpha electrons        7 beta electrons
       nuclear repulsion energy        36.8427722065 Hartrees.
 IExCor=    0 DFT=F Ex=HF Corr=None ExCW=0 ScaHFX=  1.000000
 ScaDFX=  1.000000  1.000000  1.000000  1.000000 ScalE2=  1.000000  1.000000
 IRadAn=      5 IRanWt=     -1 IRanGd=            0 ICorTp=0 IEmpDi=  4
 Integral buffers will be    131072 words long.
 Regular integral format.
 Two-electron integral symmetry is turned off.
 Leave Link  301 at Wed Oct 21 14:32:32 2020, MaxMem=  2684354560 cpu:               6.0 elap:               1.5
 (Enter /udrive/faculty/rpeverati/g16/g16/l302.exe)
 Do NDO integrals.
 NPDir=0 NMtPBC=     1 NCelOv=     1 NCel=       1 NClECP=     1 NCelD=      1
         NCelK=      1 NCelE2=     1 NClLst=     1 CellRange=     0.0.
 One-electron integrals computed using PRISM.
 NBasis=    14 RedAO= F EigKep=  0.00D+00  NBF=    14
 NBsUse=    14 1.00D-04 EigRej=  0.00D+00 NBFU=    14
 Leave Link  302 at Wed Oct 21 14:32:34 2020, MaxMem=  2684354560 cpu:               4.1 elap:               1.3
 (Enter /udrive/faculty/rpeverati/g16/g16/l303.exe)
 DipDrv:  MaxL=1.
 Leave Link  303 at Wed Oct 21 14:32:36 2020, MaxMem=  2684354560 cpu:               1.9 elap:               1.1
 (Enter /udrive/faculty/rpeverati/g16/g16/l401.exe)
 Initial guess from the checkpoint file:  "MN_95_RKT21_BH76_PM6_SE.chk"
 SCF N**3 symmetry information disabled.
 B after Tr=     0.000000    0.000000   -0.000000
         Rot=    0.999877    0.015664   -0.000551    0.000175 Ang=   1.80 deg.
 Guess basis will be translated and rotated to current coordinates.
 JPrj=0 DoOrth=T DoCkMO=T.
 Initial guess <Sx>= 0.0000 <Sy>= 0.0000 <Sz>= 0.5000 <S**2>= 0.7758 S= 0.5128
 Leave Link  401 at Wed Oct 21 14:32:38 2020, MaxMem=  2684354560 cpu:               3.4 elap:               1.4
 (Enter /udrive/faculty/rpeverati/g16/g16/l502.exe)
 Keep J ints in memory in canonical form, NReq=859572.
 FoFCou: FMM=F IPFlag=           0 FMFlag=           0 FMFlg1=           0
         NFxFlg=           0 DoJE=F BraDBF=F KetDBF=F FulRan=T
         wScrn=  0.000000 ICntrl=       600 IOpCl=  2 I1Cent=           0 NGrid=           0
         NMat0=    1 NMatS0=     26 NMatT0=    0 NMatD0=    1 NMtDS0=    0 NMtDT0=    0
 Symmetry not used in FoFCou.
 Two-electron integral symmetry not used.
 UHF open shell SCF:
 Using DIIS extrapolation, IDIIS=  1040.
 Overlap will be assumed to be unity.
 NGot=  2684354560 LenX=  2684293681 LenY=  2684292799
 Requested convergence on RMS density matrix=1.00D-08 within 120 cycles.
 Requested convergence on MAX density matrix=1.00D-06.
 Requested convergence on             energy=1.00D-06.
 No special actions if energy rises.

 Cycle   1  Pass 1  IDiag  1:
 E= 0.787487071827755E-01
 DIIS: error= 3.88D-03 at cycle   1 NSaved=   1.
 NSaved= 1 IEnMin= 1 EnMin= 0.787487071827755E-01 IErMin= 1 ErrMin= 3.88D-03
 ErrMax= 3.88D-03  0.00D+00 EMaxC= 1.00D-01 BMatC= 9.50D-04 BMatP= 9.50D-04
 IDIUse=3 WtCom= 9.61D-01 WtEn= 3.88D-02
 Coeff-Com:  0.100D+01
 Coeff-En:   0.100D+01
 Coeff:      0.100D+01
 GapD=    2.000 DampG=2.000 DampE=1.000 DampFc=2.0000 IDamp=-1.
 RMSDP=2.18D-03 MaxDP=9.55D-03              OVMax= 0.00D+00

 Cycle   2  Pass 1  IDiag  3:
 E= 0.778030946884627E-01 Delta-E=       -0.000945612494 Rises=F Damp=F
 DIIS: error= 1.79D-03 at cycle   2 NSaved=   2.
 NSaved= 2 IEnMin= 2 EnMin= 0.778030946884627E-01 IErMin= 2 ErrMin= 1.79D-03
 ErrMax= 1.79D-03  0.00D+00 EMaxC= 1.00D-01 BMatC= 1.85D-04 BMatP= 9.50D-04
 IDIUse=3 WtCom= 9.82D-01 WtEn= 1.79D-02
 Coeff-Com: -0.707D+00 0.171D+01
 Coeff-En:   0.000D+00 0.100D+01
 Coeff:     -0.695D+00 0.169D+01
 Gap=     0.525 Goal=   None    Shift=    0.000
 Gap=     0.356 Goal=   None    Shift=    0.000
 RMSDP=1.74D-03 MaxDP=6.59D-03 DE=-9.46D-04 OVMax= 8.69D-03

 Cycle   3  Pass 1  IDiag  3:
 E= 0.775418585128946E-01 Delta-E=       -0.000261236176 Rises=F Damp=F
 DIIS: error= 2.58D-04 at cycle   3 NSaved=   3.
 NSaved= 3 IEnMin= 3 EnMin= 0.775418585128946E-01 IErMin= 3 ErrMin= 2.58D-04
 ErrMax= 2.58D-04  0.00D+00 EMaxC= 1.00D-01 BMatC= 6.58D-06 BMatP= 1.85D-04
 IDIUse=3 WtCom= 9.97D-01 WtEn= 2.58D-03
 Coeff-Com:  0.523D+00-0.135D+01 0.183D+01
 Coeff-En:   0.000D+00 0.000D+00 0.100D+01
 Coeff:      0.522D+00-0.135D+01 0.183D+01
 Gap=     0.525 Goal=   None    Shift=    0.000
 Gap=     0.356 Goal=   None    Shift=    0.000
 RMSDP=4.50D-04 MaxDP=2.07D-03 DE=-2.61D-04 OVMax= 3.40D-03

 Cycle   4  Pass 1  IDiag  3:
 E= 0.775296770968481E-01 Delta-E=       -0.000012181416 Rises=F Damp=F
 DIIS: error= 3.21D-05 at cycle   4 NSaved=   4.
 NSaved= 4 IEnMin= 4 EnMin= 0.775296770968481E-01 IErMin= 4 ErrMin= 3.21D-05
 ErrMax= 3.21D-05  0.00D+00 EMaxC= 1.00D-01 BMatC= 1.24D-07 BMatP= 6.58D-06
 IDIUse=1 WtCom= 1.00D+00 WtEn= 0.00D+00
 Coeff-Com: -0.189D+00 0.493D+00-0.743D+00 0.144D+01
 Coeff:     -0.189D+00 0.493D+00-0.743D+00 0.144D+01
 Gap=     0.525 Goal=   None    Shift=    0.000
 Gap=     0.356 Goal=   None    Shift=    0.000
 RMSDP=5.23D-05 MaxDP=3.11D-04 DE=-1.22D-05 OVMax= 4.76D-04

 Cycle   5  Pass 1  IDiag  3:
 E= 0.775294862271778E-01 Delta-E=       -0.000000190870 Rises=F Damp=F
 DIIS: error= 6.78D-06 at cycle   5 NSaved=   5.
 NSaved= 5 IEnMin= 5 EnMin= 0.775294862271778E-01 IErMin= 5 ErrMin= 6.78D-06
 ErrMax= 6.78D-06  0.00D+00 EMaxC= 1.00D-01 BMatC= 5.41D-09 BMatP= 1.24D-07
 IDIUse=1 WtCom= 1.00D+00 WtEn= 0.00D+00
 Coeff-Com:  0.863D-01-0.226D+00 0.347D+00-0.761D+00 0.155D+01
 Coeff:      0.863D-01-0.226D+00 0.347D+00-0.761D+00 0.155D+01
 Gap=     0.525 Goal=   None    Shift=    0.000
 Gap=     0.356 Goal=   None    Shift=    0.000
 RMSDP=1.09D-05 MaxDP=5.50D-05 DE=-1.91D-07 OVMax= 8.04D-05

 Cycle   6  Pass 1  IDiag  3:
 E= 0.775294765643864E-01 Delta-E=       -0.000000009663 Rises=F Damp=F
 DIIS: error= 3.18D-06 at cycle   6 NSaved=   6.
 NSaved= 6 IEnMin= 6 EnMin= 0.775294765643864E-01 IErMin= 6 ErrMin= 3.18D-06
 ErrMax= 3.18D-06  0.00D+00 EMaxC= 1.00D-01 BMatC= 6.07D-10 BMatP= 5.41D-09
 IDIUse=1 WtCom= 1.00D+00 WtEn= 0.00D+00
 Coeff-Com: -0.473D-01 0.124D+00-0.191D+00 0.436D+00-0.108D+01 0.175D+01
 Coeff:     -0.473D-01 0.124D+00-0.191D+00 0.436D+00-0.108D+01 0.175D+01
 Gap=     0.525 Goal=   None    Shift=    0.000
 Gap=     0.356 Goal=   None    Shift=    0.000
 RMSDP=5.02D-06 MaxDP=3.36D-05 DE=-9.66D-09 OVMax= 5.43D-05

 Cycle   7  Pass 1  IDiag  3:
 E= 0.775294749904063E-01 Delta-E=       -0.000000001574 Rises=F Damp=F
 DIIS: error= 1.59D-06 at cycle   7 NSaved=   7.
 NSaved= 7 IEnMin= 7 EnMin= 0.775294749904063E-01 IErMin= 7 ErrMin= 1.59D-06
 ErrMax= 1.59D-06  0.00D+00 EMaxC= 1.00D-01 BMatC= 1.07D-10 BMatP= 6.07D-10
 IDIUse=1 WtCom= 1.00D+00 WtEn= 0.00D+00
 Coeff-Com:  0.190D-01-0.497D-01 0.773D-01-0.179D+00 0.478D+00-0.108D+01
 Coeff-Com:  0.174D+01
 Coeff:      0.190D-01-0.497D-01 0.773D-01-0.179D+00 0.478D+00-0.108D+01
 Coeff:      0.174D+01
 Gap=     0.525 Goal=   None    Shift=    0.000
 Gap=     0.356 Goal=   None    Shift=    0.000
 RMSDP=2.66D-06 MaxDP=2.04D-05 DE=-1.57D-09 OVMax= 3.35D-05

 Cycle   8  Pass 1  IDiag  3:
 E= 0.775294746139679E-01 Delta-E=       -0.000000000376 Rises=F Damp=F
 DIIS: error= 7.17D-07 at cycle   8 NSaved=   8.
 NSaved= 8 IEnMin= 8 EnMin= 0.775294746139679E-01 IErMin= 8 ErrMin= 7.17D-07
 ErrMax= 7.17D-07  0.00D+00 EMaxC= 1.00D-01 BMatC= 2.85D-11 BMatP= 1.07D-10
 IDIUse=1 WtCom= 1.00D+00 WtEn= 0.00D+00
 Coeff-Com: -0.714D-02 0.187D-01-0.293D-01 0.702D-01-0.208D+00 0.632D+00
 Coeff-Com: -0.172D+01 0.225D+01
 Coeff:     -0.714D-02 0.187D-01-0.293D-01 0.702D-01-0.208D+00 0.632D+00
 Coeff:     -0.172D+01 0.225D+01
 Gap=     0.525 Goal=   None    Shift=    0.000
 Gap=     0.356 Goal=   None    Shift=    0.000
 RMSDP=2.06D-06 MaxDP=1.54D-05 DE=-3.76D-10 OVMax= 2.62D-05

 Cycle   9  Pass 1  IDiag  3:
 E= 0.775294744874842E-01 Delta-E=       -0.000000000126 Rises=F Damp=F
 DIIS: error= 2.02D-07 at cycle   9 NSaved=   9.
 NSaved= 9 IEnMin= 9 EnMin= 0.775294744874842E-01 IErMin= 9 ErrMin= 2.02D-07
 ErrMax= 2.02D-07  0.00D+00 EMaxC= 1.00D-01 BMatC= 3.11D-12 BMatP= 2.85D-11
 IDIUse=1 WtCom= 1.00D+00 WtEn= 0.00D+00
 Coeff-Com:  0.395D-04-0.105D-03 0.376D-03-0.297D-02 0.250D-01-0.186D+00
 Coeff-Com:  0.819D+00-0.149D+01 0.184D+01
 Coeff:      0.395D-04-0.105D-03 0.376D-03-0.297D-02 0.250D-01-0.186D+00
 Coeff:      0.819D+00-0.149D+01 0.184D+01
 Gap=     0.525 Goal=   None    Shift=    0.000
 Gap=     0.356 Goal=   None    Shift=    0.000
 RMSDP=6.27D-07 MaxDP=4.31D-06 DE=-1.26D-10 OVMax= 7.55D-06

 Cycle  10  Pass 1  IDiag  3:
 E= 0.775294744768829E-01 Delta-E=       -0.000000000011 Rises=F Damp=F
 DIIS: error= 5.63D-08 at cycle  10 NSaved=  10.
 NSaved=10 IEnMin=10 EnMin= 0.775294744768829E-01 IErMin=10 ErrMin= 5.63D-08
 ErrMax= 5.63D-08  0.00D+00 EMaxC= 1.00D-01 BMatC= 2.57D-13 BMatP= 3.11D-12
 IDIUse=1 WtCom= 1.00D+00 WtEn= 0.00D+00
 Coeff-Com: -0.996D-04 0.262D-03-0.554D-03 0.271D-02-0.185D-01 0.128D+00
 Coeff-Com: -0.566D+00 0.107D+01-0.153D+01 0.192D+01
 Coeff:     -0.996D-04 0.262D-03-0.554D-03 0.271D-02-0.185D-01 0.128D+00
 Coeff:     -0.566D+00 0.107D+01-0.153D+01 0.192D+01
 Gap=     0.525 Goal=   None    Shift=    0.000
 Gap=     0.356 Goal=   None    Shift=    0.000
 RMSDP=1.20D-07 MaxDP=7.92D-07 DE=-1.06D-11 OVMax= 9.93D-07

 Cycle  11  Pass 1  IDiag  3:
 E= 0.775294744763499E-01 Delta-E=       -0.000000000001 Rises=F Damp=F
 DIIS: error= 1.26D-08 at cycle  11 NSaved=  11.
 NSaved=11 IEnMin=11 EnMin= 0.775294744763499E-01 IErMin=11 ErrMin= 1.26D-08
 ErrMax= 1.26D-08  0.00D+00 EMaxC= 1.00D-01 BMatC= 1.34D-14 BMatP= 2.57D-13
 IDIUse=1 WtCom= 1.00D+00 WtEn= 0.00D+00
 Coeff-Com: -0.262D-04 0.678D-04-0.176D-04-0.798D-03 0.870D-02-0.698D-01
 Coeff-Com:  0.319D+00-0.608D+00 0.895D+00-0.125D+01 0.171D+01
 Coeff:     -0.262D-04 0.678D-04-0.176D-04-0.798D-03 0.870D-02-0.698D-01
 Coeff:      0.319D+00-0.608D+00 0.895D+00-0.125D+01 0.171D+01
 Gap=     0.525 Goal=   None    Shift=    0.000
 Gap=     0.356 Goal=   None    Shift=    0.000
 RMSDP=2.05D-08 MaxDP=1.10D-07 DE=-5.33D-13 OVMax= 1.28D-07

 Cycle  12  Pass 1  IDiag  3:
 E= 0.775294744762860E-01 Delta-E=       -0.000000000000 Rises=F Damp=F
 DIIS: error= 5.43D-09 at cycle  12 NSaved=  12.
 NSaved=12 IEnMin=12 EnMin= 0.775294744762860E-01 IErMin=12 ErrMin= 5.43D-09
 ErrMax= 5.43D-09  0.00D+00 EMaxC= 1.00D-01 BMatC= 1.32D-15 BMatP= 1.34D-14
 IDIUse=1 WtCom= 1.00D+00 WtEn= 0.00D+00
 Coeff-Com: -0.110D-04 0.293D-04-0.102D-03 0.776D-03-0.628D-02 0.466D-01
 Coeff-Com: -0.209D+00 0.396D+00-0.581D+00 0.827D+00-0.134D+01 0.187D+01
 Coeff:     -0.110D-04 0.293D-04-0.102D-03 0.776D-03-0.628D-02 0.466D-01
 Coeff:     -0.209D+00 0.396D+00-0.581D+00 0.827D+00-0.134D+01 0.187D+01
 Gap=     0.525 Goal=   None    Shift=    0.000
 Gap=     0.356 Goal=   None    Shift=    0.000
 RMSDP=7.86D-09 MaxDP=4.79D-08 DE=-6.39D-14 OVMax= 5.67D-08

 Cycle  13  Pass 2  IDiag  1:
 SCF Done:  E(UPM6) =  0.775294744763E-01 A.U. after   13 cycles
            NFock= 12  Conv=0.79D-08     -V/T= 1.0034
 <Sx>= 0.0000 <Sy>= 0.0000 <Sz>= 0.5000 <S**2>= 0.7757 S= 0.5128
 <L.S>= 0.000000000000E+00
 KE=-2.253967275885D+01 PE=-4.150396531757D+01 EE= 2.727839534440D+01
 Annihilation of the first spin contaminant:
 S**2 before annihilation     0.7757,   after     0.7502
 Leave Link  502 at Wed Oct 21 14:32:41 2020, MaxMem=  2684354560 cpu:              15.5 elap:               2.3
 (Enter /udrive/faculty/rpeverati/g16/g16/l508.exe)
 QCSCF skips out because SCF is already converged.
 Leave Link  508 at Wed Oct 21 14:32:43 2020, MaxMem=  2684354560 cpu:               1.2 elap:               1.2
 (Enter /udrive/faculty/rpeverati/g16/g16/l701.exe)
 ... and contract with generalized density number  0.
 Compute integral first derivatives.
 Leave Link  701 at Wed Oct 21 14:32:45 2020, MaxMem=  2684354560 cpu:               5.3 elap:               1.2
 (Enter /udrive/faculty/rpeverati/g16/g16/l702.exe)
 L702 exits ... SP integral derivatives will be done elsewhere.
 Leave Link  702 at Wed Oct 21 14:32:47 2020, MaxMem=  2684354560 cpu:               2.1 elap:               1.5
 (Enter /udrive/faculty/rpeverati/g16/g16/l703.exe)
 Integral derivatives from FoFJK, PRISM(SPDF).
 Compute integral first derivatives, UseDBF=F ICtDFT=           0.
 Calling FoFJK, ICntrl=      2127 FMM=F ISym2X=0 I1Cent= 0 IOpClX= 1 NMat=1 NMatS=1 NMatT=0.
 FoFJK:  IHMeth=40 ICntrl=    2127 DoSepK=F KAlg= 0 I1Cent=           0 FoldK=F
 IRaf=         0 NMat=       1 IRICut=       1 DoRegI=T DoRafI=F ISym2E= 0 IDoP0=3 IntGTp=3.
 FoFCou: FMM=F IPFlag=           0 FMFlag=      100000 FMFlg1=         800
         NFxFlg=           0 DoJE=F BraDBF=F KetDBF=F FulRan=T
         wScrn=  0.000000 ICntrl=      2127 IOpCl=  1 I1Cent=           0 NGrid=           0
         NMat0=    1 NMatS0=      1 NMatT0=    0 NMatD0=    1 NMtDS0=    0 NMtDT0=    0
 Symmetry not used in FoFCou.
 Leave Link  703 at Wed Oct 21 14:32:48 2020, MaxMem=  2684354560 cpu:               3.4 elap:               1.3
 (Enter /udrive/faculty/rpeverati/g16/g16/l716.exe)
 Dipole        =-2.84526327D-01 4.10479572D-03 8.40938997D-01
 ***** Axes restored to original set *****
 -------------------------------------------------------------------
 Center     Atomic                   Forces (Hartrees/Bohr)
 Number     Number              X              Y              Z
 -------------------------------------------------------------------
      1        6          -0.011463676    0.000315576    0.003522513
      2        7          -0.005235130   -0.000622058    0.015982056
      3        1           0.003166804   -0.003842199    0.001478820
      4        1           0.003225711   -0.000129204   -0.005074506
      5        1           0.003766717    0.003618875    0.001487702
      6        1           0.001577104    0.000197134   -0.006457048
      7        1           0.002805871   -0.002666200   -0.005612289
      8        1           0.002156599    0.003128077   -0.005327248
 -------------------------------------------------------------------
 Cartesian Forces:  Max     0.015982056 RMS     0.005217382
 Leave Link  716 at Wed Oct 21 14:32:51 2020, MaxMem=  2684354560 cpu:               2.8 elap:               1.3
 (Enter /udrive/faculty/rpeverati/g16/g16/l103.exe)

 GradGradGradGradGradGradGradGradGradGradGradGradGradGradGradGradGradGrad
 Berny optimization.
 Optmz: redundant internal coordinate code flag= 1
 Red2BG:  D1=  1.33D-01 OD1=  1.67D-01 B2RMS=  0.00D+00 IAprox=0
 FormGI is forming the generalized inverse of G from B-inverse, IUseBI=4.
 Internal  Forces:  Max     0.006992707 RMS     0.003427977
 Search for a saddle point.
 Step number   2 out of a maximum of   50
 All quantities printed in internal units (Hartrees-Bohrs-Radians)
 Swapping is turned off.
 Update second derivatives using D2CorX and points    1    2
 The second derivative matrix:
                          R1        R2        R3        R4        R5
           R1           0.35405
           R2          -0.00007   0.35486
           R3          -0.00006  -0.00007   0.35404
           R4           0.00005   0.00004   0.00001   0.17920
           R5          -0.00002  -0.00000   0.00002  -0.00012   0.20186
           R6          -0.00007  -0.00006  -0.00003  -0.00011   0.00013
           R7          -0.00007  -0.00006  -0.00003  -0.00010   0.00012
           A1           0.00004   0.00007   0.00008  -0.00013   0.00009
           A2           0.00005   0.00006   0.00005  -0.00003   0.00001
           A3          -0.00005  -0.00007  -0.00008   0.00011  -0.00008
           A4           0.00006   0.00007   0.00006  -0.00001  -0.00002
           A5          -0.00006  -0.00008  -0.00009   0.00010  -0.00007
           A6          -0.00008  -0.00008  -0.00006  -0.00003   0.00007
           A7           0.00021   0.00023   0.00020  -0.00007  -0.00003
           A8           0.00017   0.00023   0.00022  -0.00024   0.00013
           A9           0.00016   0.00018   0.00016  -0.00006  -0.00002
           A10         -0.00124  -0.00191  -0.00213   0.00336  -0.00242
           A11          0.00104   0.00160   0.00178  -0.00277   0.00198
           D1           0.00006   0.00005   0.00003   0.00004  -0.00006
           D2           0.00014   0.00022   0.00024  -0.00040   0.00029
           D3           0.00033   0.00048   0.00053  -0.00077   0.00053
           D4           0.00041   0.00065   0.00074  -0.00121   0.00089
           D5           0.00012   0.00015   0.00014  -0.00014   0.00007
           D6           0.00020   0.00031   0.00035  -0.00058   0.00042
                          R6        R7        A1        A2        A3
           R6           0.44195
           R7           0.00010   0.44192
           A1           0.00016   0.00015   0.16002
           A2           0.00005   0.00005  -0.00004   0.15996
           A3          -0.00015  -0.00014  -0.00000   0.00005   0.15999
           A4           0.00003   0.00003  -0.00008  -0.00005   0.00008
           A5          -0.00014  -0.00013   0.00002   0.00006  -0.00003
           A6           0.00002   0.00001   0.00013   0.00007  -0.00012
           A7           0.00014   0.00014  -0.00022  -0.00017   0.00024
           A8           0.00033   0.00031  -0.00008  -0.00016   0.00012
           A9           0.00011   0.00011  -0.00017  -0.00013   0.00018
           A10         -0.00430  -0.00406  -0.00035   0.00123  -0.00010
           A11          0.00355   0.00336   0.00026  -0.00103   0.00011
           D1          -0.00004  -0.00003  -0.00010  -0.00004   0.00009
           D2           0.00051   0.00048   0.00006  -0.00014  -0.00000
           D3           0.00100   0.00095   0.00002  -0.00032   0.00008
           D4           0.00154   0.00146   0.00018  -0.00041  -0.00001
           D5           0.00019   0.00019  -0.00007  -0.00010   0.00009
           D6           0.00074   0.00070   0.00008  -0.00020  -0.00000
                          A4        A5        A6        A7        A8
           A4           0.15994
           A5           0.00009   0.15995
           A6           0.00006  -0.00013   0.15996
           A7          -0.00020   0.00027   0.00022   0.15933
           A8          -0.00023   0.00017   0.00032  -0.00070   0.15950
           A9          -0.00016   0.00020   0.00017  -0.00052  -0.00054
           A10          0.00215  -0.00066  -0.00346   0.00634   0.00271
           A11         -0.00179   0.00058   0.00287  -0.00530  -0.00232
           D1          -0.00004   0.00009   0.00002  -0.00013  -0.00022
           D2          -0.00025   0.00006   0.00040  -0.00072  -0.00029
           D3          -0.00053   0.00022   0.00083  -0.00159  -0.00078
           D4          -0.00074   0.00019   0.00122  -0.00218  -0.00085
           D5          -0.00015   0.00012   0.00020  -0.00046  -0.00035
           D6          -0.00036   0.00009   0.00058  -0.00105  -0.00041
                          A9        A10       A11       D1        D2
           A9           0.15960
           A10          0.00481   0.00724
           A11         -0.00402  -0.00320   0.00422
           D1          -0.00011   0.00262  -0.00217   0.00230
           D2          -0.00055  -0.00097   0.00070  -0.00031   0.00246
           D3          -0.00121   0.00049  -0.00061  -0.00062   0.00003
           D4          -0.00165  -0.00310   0.00225  -0.00093   0.00050
           D5          -0.00035   0.00216  -0.00184  -0.00014  -0.00023
           D6          -0.00079  -0.00143   0.00103  -0.00045   0.00023
                          D3        D4        D5        D6
           D3           0.00179
           D4           0.00015   0.00388
           D5          -0.00060  -0.00070   0.00206
           D6           0.00006   0.00074  -0.00034   0.00264
 ITU=  0  0
 Eigenvectors of the second derivative matrix:
                           1         2         3         4         5
     Eigenvalues --     0.00152   0.00230   0.00851   0.06052   0.08077
   1         R1         0.00174  -0.00000  -0.00469  -0.00088  -0.00004
   2         R2         0.00259   0.00000  -0.00716  -0.00130  -0.00006
   3         R3         0.00285  -0.00000  -0.00799  -0.00142  -0.00006
   4         R4        -0.00854   0.00000   0.02547   0.00331  -0.00190
   5         R5         0.00535  -0.00000  -0.01621  -0.00102   0.00019
   6         R6         0.00441  -0.00000  -0.01274  -0.00226   0.00052
   7         R7         0.00419  -0.00000  -0.01207  -0.00198  -0.00009
   8         A1        -0.00196   0.00000   0.00527  -0.01869   0.09573
   9         A2        -0.00369   0.00000   0.00985   0.01035   0.40744
  10         A3        -0.00012   0.00000   0.00150  -0.00384   0.21976
  11         A4        -0.00484   0.00000   0.01368   0.01445  -0.48916
  12         A5         0.00217  -0.00000  -0.00505  -0.00394  -0.18384
  13         A6         0.01077  -0.00000  -0.03172   0.00076  -0.03028
  14         A7        -0.01624   0.00000   0.04456   0.12873  -0.00419
  15         A8        -0.00694   0.00000   0.01655   0.09085   0.00150
  16         A9        -0.00053  -0.00000  -0.00757   0.58760   0.00887
  17         A10       -0.06423   0.57262  -0.78454  -0.07142   0.01251
  18         A11       -0.17846   0.76858   0.58525  -0.05198   0.12058
  19         D1        -0.40504  -0.02456  -0.07038  -0.34495  -0.15195
  20         D2        -0.42392   0.06149  -0.10848   0.29764  -0.13668
  21         D3        -0.38820  -0.11599   0.09821  -0.30124  -0.27000
  22         D4        -0.40708  -0.02993   0.06011   0.34136  -0.25473
  23         D5        -0.37981  -0.21471  -0.03689  -0.32624   0.38484
  24         D6        -0.39869  -0.12866  -0.07500   0.31636   0.40011
                           6         7         8         9        10
     Eigenvalues --     0.08415   0.15918   0.16000   0.16000   0.16000
   1         R1         0.00001   0.00087  -0.00000   0.00000  -0.00000
   2         R2         0.00003   0.00095  -0.00000   0.00000  -0.00000
   3         R3         0.00005   0.00080   0.00000   0.00000  -0.00000
   4         R4         0.00371  -0.00128   0.00000  -0.00000   0.00000
   5         R5        -0.00303  -0.00119  -0.00000   0.00000   0.00000
   6         R6         0.00007   0.00027  -0.00000   0.00000  -0.00000
   7         R7         0.00011   0.00029  -0.00000   0.00000  -0.00000
   8         A1         0.55075  -0.20639  -0.14402   0.25759  -0.13113
   9         A2        -0.34107  -0.19706  -0.33063   0.18762   0.25179
  10         A3         0.04773   0.26280   0.73977  -0.11226  -0.06902
  11         A4        -0.18648  -0.20140   0.16171   0.40025   0.03555
  12         A5         0.12088   0.29361  -0.34524  -0.58352   0.41939
  13         A6        -0.21630   0.18108  -0.01382  -0.33577  -0.54128
  14         A7         0.00538  -0.50397  -0.17831  -0.33321  -0.52857
  15         A8         0.00436  -0.62698   0.38072  -0.38244   0.40364
  16         A9         0.02843   0.20062  -0.02000   0.12296   0.04697
  17         A10       -0.13694  -0.03682  -0.00000  -0.00000  -0.00000
  18         A11       -0.00648   0.03023   0.00000   0.00000   0.00000
  19         D1         0.35579  -0.00045  -0.00000   0.00000  -0.00000
  20         D2         0.37474   0.00553   0.00000  -0.00000   0.00000
  21         D3        -0.31435   0.00771   0.00000   0.00000   0.00000
  22         D4        -0.29540   0.01369   0.00000   0.00000   0.00000
  23         D5        -0.07638   0.00124   0.00000   0.00000  -0.00000
  24         D6        -0.05742   0.00722   0.00000   0.00000   0.00000
                          11        12        13        14        15
     Eigenvalues --     0.16047   0.17933   0.20192   0.35401   0.35411
   1         R1        -0.00006   0.00002  -0.00006  -0.74678  -0.66214
   2         R2        -0.00036  -0.00022  -0.00029  -0.08215  -0.00099
   3         R3        -0.00060  -0.00041  -0.00047  -0.65990   0.74938
   4         R4         0.01829  -0.99940  -0.00872   0.00000  -0.00023
   5         R5        -0.00715  -0.00937   0.99976  -0.00020   0.00025
   6         R6        -0.00143  -0.00106  -0.00099  -0.00023  -0.00052
   7         R7        -0.00133  -0.00098  -0.00092  -0.00027  -0.00048
   8         A1         0.21119   0.00845   0.00572  -0.00037   0.00009
   9         A2        -0.07764  -0.00562  -0.00363  -0.00037   0.00003
  10         A3        -0.36422  -0.00755  -0.00211   0.00048  -0.00015
  11         A4        -0.13636  -0.00113  -0.00211  -0.00033  -0.00001
  12         A5        -0.21121  -0.00252  -0.00020   0.00055  -0.00012
  13         A6         0.57951   0.00773   0.00217   0.00028   0.00014
  14         A7        -0.53003  -0.00771  -0.00406  -0.00107  -0.00001
[...]
   7         R7        -0.00043   0.02021   0.04815  -0.00082   0.00008
   8         A1        -0.24360  -0.15158   0.10530  -0.03627   0.01501
   9         A2        -0.34676  -0.24360   0.07853  -0.00046  -0.04807
  10         A3         0.32693   0.21085  -0.09523  -0.03887  -0.00489
  11         A4        -0.25290  -0.13083   0.10924   0.03657   0.01415
  12         A5         0.39594   0.26123  -0.18006   0.00028   0.02994
  13         A6         0.34038   0.18809  -0.09676   0.03875  -0.00570
  14         A7         0.33690  -0.58832  -0.15642   0.00025  -0.00325
  15         A8         0.28731  -0.59939  -0.13116  -0.00085  -0.00096
  16         A9        -0.09585   0.16460   0.03581  -0.00014   0.00000
  17         A10        0.07958  -0.04410  -0.10606   0.00060  -0.00824
  18         A11        0.04498  -0.03849  -0.05611  -0.00097  -0.00418
  19         D1         0.00065   0.01231  -0.00088  -0.01632   0.02853
  20         D2         0.00953  -0.02176  -0.02279  -0.01656   0.02716
  21         D3        -0.00302   0.01296   0.00974   0.03406   0.00037
  22         D4         0.00587  -0.02111  -0.01217   0.03382  -0.00100
  23         D5        -0.01133   0.02612   0.02397  -0.01692  -0.02685
  24         D6        -0.00245  -0.00795   0.00206  -0.01716  -0.02821
                          16        17        18
     Eigenvalues --     0.27667   0.29511   0.29917
   1         R1        -0.00141  -0.53115   0.20505
   2         R2        -0.00697  -0.54028   0.21493
   3         R3         0.00046  -0.53117   0.20502
   4         R4         0.00990  -0.06376   0.06696
   5         R5         0.00744  -0.03974   0.04499
   6         R6        -0.70624   0.26141   0.65211
   7         R7         0.70537   0.25672   0.65367
   8         A1        -0.00372  -0.01526   0.00778
   9         A2         0.00369  -0.02579   0.00439
  10         A3         0.00257   0.02153  -0.00949
  11         A4        -0.00595  -0.01488   0.00727
  12         A5         0.00263   0.02720  -0.00604
  13         A6         0.00291   0.02148  -0.00942
  14         A7        -0.03709  -0.00433   0.03405
  15         A8         0.04427  -0.00380   0.03403
  16         A9        -0.00261   0.02177   0.04971
  17         A10        0.00077  -0.00457   0.00153
  18         A11        0.00330  -0.00249   0.00096
  19         D1         0.00123  -0.01295  -0.03137
  20         D2         0.00317   0.00695   0.02943
  21         D3        -0.00048  -0.01008  -0.03022
  22         D4         0.00146   0.00981   0.03058
  23         D5        -0.00364  -0.00682  -0.02960
  24         D6        -0.00170   0.01307   0.03120
 Eigenvalue     1 is  -1.03D-01 should be greater than     0.000000 Eigenvector:
                          R5        R4        A3        A6        A2
   1                   -0.74647   0.62344  -0.11346  -0.11205   0.10655
                          A5        A4        A1        D1        D6
   1                   -0.06519   0.06247   0.06128   0.03938  -0.03851
 Angle between quadratic step and forces=  59.99 degrees.
 Linear search not attempted -- first point.
 Iteration  1 RMS(Cart)=  0.00010926 RMS(Int)=  0.00000001
 Iteration  2 RMS(Cart)=  0.00000001 RMS(Int)=  0.00000000
 ITry= 1 IFail=0 DXMaxC= 3.09D-04 DCOld= 1.00D+10 DXMaxT= 3.00D-01 DXLimC= 3.00D+00 Rises=F
 Variable       Old X    -DE/DX   Delta X   Delta X   Delta X     New X
                                 (Linear)    (Quad)   (Total)
    R1        2.03005  -0.00000   0.00000  -0.00001  -0.00001   2.03004
    R2        2.02411  -0.00000   0.00000  -0.00001  -0.00001   2.02411
    R3        2.03003   0.00000   0.00000   0.00001   0.00001   2.03004
    R4        2.47877   0.00000   0.00000   0.00000   0.00000   2.47877
    R5        2.43300   0.00000   0.00000   0.00002   0.00002   2.43302
    R6        1.90185  -0.00000   0.00000  -0.00001  -0.00001   1.90184
    R7        1.90185  -0.00000   0.00000  -0.00001  -0.00001   1.90184
    A1        1.99210   0.00000   0.00000   0.00003   0.00003   1.99213
    A2        1.99153  -0.00000   0.00000  -0.00005  -0.00005   1.99148
    A3        1.77011   0.00001   0.00000   0.00009   0.00009   1.77020
    A4        1.99208   0.00000   0.00000   0.00005   0.00005   1.99213
    A5        1.91787  -0.00001   0.00000  -0.00010  -0.00010   1.91777
    A6        1.77023  -0.00000   0.00000  -0.00003  -0.00003   1.77020
    A7        1.84766  -0.00000   0.00000  -0.00001  -0.00001   1.84765
    A8        1.84765   0.00000   0.00000  -0.00000  -0.00000   1.84765
    A9        1.86800   0.00000   0.00000   0.00002   0.00002   1.86802
   A10        2.71498   0.00000   0.00000   0.00014   0.00014   2.71512
   A11        2.56288  -0.00000   0.00000  -0.00005  -0.00005   2.56283
    D1        1.10220   0.00000   0.00000   0.00014   0.00014   1.10233
    D2        2.98702   0.00000   0.00000   0.00016   0.00016   2.98718
    D3       -0.94253  -0.00000   0.00000   0.00009   0.00009  -0.94244
    D4        0.94230   0.00000   0.00000   0.00011   0.00011   0.94241
    D5       -2.98730  -0.00000   0.00000   0.00008   0.00008  -2.98721
    D6       -1.10247   0.00000   0.00000   0.00011   0.00011  -1.10236
         Item               Value     Threshold  Converged?
 Maximum Force            0.000007     0.000450     YES
 RMS     Force            0.000003     0.000300     YES
 Maximum Displacement     0.000309     0.001800     YES
 RMS     Displacement     0.000109     0.001200     YES
 Predicted change in Energy=-1.172469D-09
 Optimization completed.
    -- Stationary point found.
                           ----------------------------
                           !   Optimized Parameters   !
                           ! (Angstroms and Degrees)  !
 --------------------------                            --------------------------
 ! Name  Definition              Value          Derivative Info.                !
 --------------------------------------------------------------------------------
 ! R1    R(1,3)                  1.0743         -DE/DX =    0.0                 !
 ! R2    R(1,4)                  1.0711         -DE/DX =    0.0                 !
 ! R3    R(1,5)                  1.0742         -DE/DX =    0.0                 !
 ! R4    R(1,6)                  1.3117         -DE/DX =    0.0                 !
 ! R5    R(2,6)                  1.2875         -DE/DX =    0.0                 !
 ! R6    R(2,7)                  1.0064         -DE/DX =    0.0                 !
 ! R7    R(2,8)                  1.0064         -DE/DX =    0.0                 !
 ! A1    A(3,1,4)              114.1392         -DE/DX =    0.0                 !
 ! A2    A(3,1,5)              114.1065         -DE/DX =    0.0                 !
 ! A3    A(3,1,6)              101.42           -DE/DX =    0.0                 !
 ! A4    A(4,1,5)              114.1378         -DE/DX =    0.0                 !
 ! A5    A(4,1,6)              109.8858         -DE/DX =    0.0                 !
 ! A6    A(5,1,6)              101.4267         -DE/DX =    0.0                 !
 ! A7    A(6,2,7)              105.8634         -DE/DX =    0.0                 !
 ! A8    A(6,2,8)              105.8627         -DE/DX =    0.0                 !
 ! A9    A(7,2,8)              107.0287         -DE/DX =    0.0                 !
 ! A10   L(1,6,2,7,-1)         155.5571         -DE/DX =    0.0                 !
 ! A11   L(1,6,2,7,-2)         146.8419         -DE/DX =    0.0                 !
 ! D1    D(3,1,2,7)             63.1512         -DE/DX =    0.0                 !
 ! D2    D(3,1,2,8)            171.1438         -DE/DX =    0.0                 !
 ! D3    D(4,1,2,7)            -54.0029         -DE/DX =    0.0                 !
 ! D4    D(4,1,2,8)             53.9898         -DE/DX =    0.0                 !
 ! D5    D(5,1,2,7)           -171.1595         -DE/DX =    0.0                 !
 ! D6    D(5,1,2,8)            -63.1668         -DE/DX =    0.0                 !
 --------------------------------------------------------------------------------
 GradGradGradGradGradGradGradGradGradGradGradGradGradGradGradGradGradGrad

 Leave Link  103 at Wed Oct 21 14:44:53 2020, MaxMem=  2684354560 cpu:               4.5 elap:               0.8
 (Enter /udrive/faculty/rpeverati/g16/g16/l9999.exe)

 ----------------------------------------------------------------------

 Electric dipole moment (input orientation):
 (Debye = 10**-18 statcoulomb cm , SI units = C m)
                  (au)            (Debye)         (10**-30 SI)
   Tot        0.747434D+00      0.189979D+01      0.633701D+01
   x         -0.227134D+00     -0.577316D+00     -0.192572D+01
   y         -0.101162D-02     -0.257129D-02     -0.857690D-02
   z          0.712086D+00      0.180994D+01      0.603732D+01

 Dipole polarizability, Alpha (input orientation).
 (esu units = cm**3 , SI units = C**2 m**2 J**-1)
 Alpha(0;0):
               (au)            (10**-24 esu)      (10**-40 SI)
   iso        0.239500D+02      0.354902D+01      0.394882D+01
   aniso      0.391816D+02      0.580611D+01      0.646017D+01
   xx         0.500178D+02      0.741187D+01      0.824682D+01
   yx         0.132624D+00      0.196528D-01      0.218667D-01
   yy         0.123221D+02      0.182595D+01      0.203165D+01
   zx         0.299185D+00      0.443347D-01      0.493290D-01
   zy         0.177291D-02      0.262719D-03      0.292314D-03
   zz         0.951004D+01      0.140924D+01      0.156799D+01

 First dipole hyperpolarizability, Beta (input orientation).
 ||, _|_  parallel and perpendicular components, (z) with respect to z axis,
 vector components x,y,z.  Values do not include the 1/n! factor of 1/2.
 (esu units = statvolt**-1 cm**4 , SI units = C**3 m**3 J**-2)
 Beta(0;0,0):
               (au)            (10**-30 esu)      (10**-50 SI)
   || (z)     0.116011D+03      0.100225D+01      0.371974D+00
   _|_(z)     0.386704D+02      0.334082D+00      0.123991D+00
   x         -0.195943D+04     -0.169280D+02     -0.628265D+01
   y         -0.707670D+01     -0.611371D-01     -0.226904D-01
   z          0.580056D+03      0.501123D+01      0.185987D+01
   ||         0.408700D+03      0.353085D+01      0.131044D+01
   xxx       -0.645381D+03     -0.557558D+01     -0.206932D+01
   xxy       -0.234036D+01     -0.202189D-01     -0.750405D-02
   yxy        0.184623D+01      0.159500D-01      0.591967D-02
   yyy        0.154117D-01      0.133145D-03      0.494154D-04
   xxz        0.173510D+03      0.149899D+01      0.556336D+00
   yxz        0.583195D+00      0.503835D-02      0.186993D-02
   yyz        0.847950D+01      0.732562D-01      0.271883D-01
   zxz       -0.960994D+01     -0.830224D-01     -0.308129D-01
   zyz       -0.339465D-01     -0.293272D-03     -0.108845D-03
   zzz        0.113626D+02      0.981636D-01      0.364325D-01

 ----------------------------------------------------------------------

 Dipole orientation:
     6         -2.20036193         -0.00624266          0.69818194
     7          2.25483855          0.00916061         -0.83008420
     1         -3.12775412          1.69433695          0.09067232
     1         -1.66395381         -0.00462694          2.64992510
     1         -3.11660383         -1.71276921          0.09048139
     1         -0.17619029          0.00062897         -0.73254621
     1          2.80917548          1.54019042          0.15261942
     1          2.81988288         -1.51799251          0.15254977

 Electric dipole moment (dipole orientation):
 (Debye = 10**-18 statcoulomb cm , SI units = C m)
                  (au)            (Debye)         (10**-30 SI)
   Tot        0.747434D+00      0.189979D+01      0.633701D+01
   x          0.000000D+00      0.000000D+00      0.000000D+00
   y          0.000000D+00      0.000000D+00      0.000000D+00
   z          0.747434D+00      0.189979D+01      0.633701D+01

 Dipole polarizability, Alpha (dipole orientation).
 (esu units = cm**3 , SI units = C**2 m**2 J**-1)
 Alpha(0;0):
               (au)            (10**-24 esu)      (10**-40 SI)
   iso        0.239500D+02      0.354902D+01      0.394882D+01
   aniso      0.391816D+02      0.580611D+01      0.646017D+01
   xx         0.464503D+02      0.688322D+01      0.765861D+01
   yx         0.118536D+00      0.175653D-01      0.195440D-01
   yy         0.123221D+02      0.182594D+01      0.203164D+01
   zx        -0.114838D+02     -0.170172D+01     -0.189342D+01
   zy        -0.400096D-01     -0.592881D-02     -0.659669D-02
   zz         0.130776D+02      0.193791D+01      0.215621D+01

 First dipole hyperpolarizability, Beta (dipole orientation).
 ||, _|_  parallel and perpendicular components, (z) with respect to z axis,
 vector components x,y,z.  Values do not include the 1/n! factor of 1/2.
 (esu units = statvolt**-1 cm**4 , SI units = C**3 m**3 J**-2)
 Beta(0;0,0):
               (au)            (10**-30 esu)      (10**-50 SI)
   || (z)     0.229615D+03      0.198369D+01      0.736228D+00
   _|_(z)     0.765383D+02      0.661231D+00      0.245409D+00
   x         -0.169050D+04     -0.146046D+02     -0.542035D+01
   y         -0.587889D+01     -0.507891D-01     -0.188499D-01
   z          0.114807D+04      0.991847D+01      0.368114D+01
   ||         0.408700D+03      0.353085D+01      0.131044D+01
   xxx       -0.416723D+03     -0.360016D+01     -0.133616D+01
   xxy       -0.148207D+01     -0.128039D-01     -0.475204D-02
   yxy        0.433790D+01      0.374761D-01      0.139089D-01
   yyy        0.486736D-01      0.420502D-03      0.156065D-03
   xxz        0.293489D+03      0.253552D+01      0.941032D+00
   yxz        0.993061D+00      0.857928D-02      0.318411D-02
   yyz        0.751636D+01      0.649355D-01      0.241002D-01
   zxz       -0.151114D+03     -0.130551D+01     -0.484527D+00
   zyz       -0.526239D+00     -0.454629D-02     -0.168731D-02
   zzz        0.816862D+02      0.705705D+00      0.261915D+00

 ----------------------------------------------------------------------

 Test job not archived.
 1\1\GINC-NODE62\Freq\UPM6\ZDO\C1H6N1(2)\RPEVERATI\21-Oct-2020\0\\#P Fr
 eq PM6 5D 7F Integral=UltraFineGrid SCF=(NoSymm,XQC,MaxCyc=120) IOp(1/
 33=1) Geom=Check Guess=Read\\TS search on BH76.\\0,2\C,-1.2215895335,-
 0.0035582692,-0.0018524821\N,1.270264726,0.0051907828,-0.0558838129\H,
 -1.5916327085,0.896887338,-0.4560440168\H,-1.2650158781,-0.0041609378,
 1.068381691\H,-1.5856008139,-0.9060750145,-0.4567874542\H,0.0289730854
 ,0.0008771421,-0.3976466285\H,1.3915367568,0.8146104851,0.5297862857\H
 ,1.3972869764,-0.803709851,0.5292826802\\Version=ES64L-G16RevA.03\Stat
 e=2-A\HF=0.0755347\S2=0.77282\S2-1=0.\S2A=0.750153\RMSD=5.309e-10\RMSF
 =2.790e-06\ZeroPoint=0.0559668\Thermal=0.060957\Dipole=-0.2271336,-0.0
 010116,0.7120865\DipoleDeriv=0.4391541,0.0042097,-0.031978,0.004196,-0
 .7562345,-0.0001129,-0.2732171,-0.0009615,-0.7565037,0.0681874,0.00223
 6,0.0870978,0.0021493,-0.5740938,0.0002717,0.4479825,0.0015377,-0.4598
 638,0.0727706,-0.002083,-0.0030144,-0.1453957,0.2107027,-0.0033333,0.1
 028402,-0.0136311,0.203154,0.0456027,-0.0005,-0.0058693,-0.000434,0.18
 82209,-0.0000273,-0.1228298,-0.0004357,0.2002092,0.0718074,0.0011105,-
 0.0030323,0.1443783,0.2117231,0.0033225,0.1028717,0.0143572,0.2031698,
 -1.4562844,-0.0060015,-0.0219173,-0.0059595,0.2508166,-0.0000982,-0.15
 38233,-0.0005522,0.3095284,0.3789547,0.043451,-0.0107837,0.0788086,0.2
 348719,0.0432322,-0.051537,-0.0998216,0.1501343,0.3798074,-0.0424228,-
 0.0105029,-0.0777423,0.2339808,-0.0432547,-0.0522855,0.0995072,0.15016
 78\Polar=50.0177901,0.132624,12.3221408,0.2991853,0.0017729,9.5100448\
 HyperPolar=-645.3805014,-2.340364,1.8462255,0.0154117,173.5099209,0.58
 31951,8.4794967,-9.6099414,-0.0339465,11.3625575\PG=C01 [X(C1H6N1)]\NI
 mag=1\\0.13892068,-0.00090709,0.40242198,0.05828184,0.00020087,0.39088
 452,-0.13373225,-0.00047719,0.04598459,0.09060854,-0.00046409,0.000380
 08,0.00016012,-0.00103125,0.37705752,-0.04238393,-0.00014978,0.0119830
 8,0.03579768,0.00016333,0.25923991,-0.04430135,0.06075220,-0.03533302,
 0.00877674,0.00123108,0.00213114,0.05355623,0.05924445,-0.17457876,0.0
 6975237,0.00119867,-0.00026957,0.00103433,-0.06859853,0.19994695,-0.03
 337917,0.06879529,-0.06927937,-0.00240207,-0.00033291,-0.00163240,0.03
 658270,-0.08275913,0.07628743,-0.02370955,0.00003763,0.00776242,0.0004
 8537,0.00000159,0.00441540,0.00427335,0.00133394,-0.00838122,0.0291441
 7,0.00003645,-0.03553858,0.00011070,0.00000222,-0.00035336,0.00001468,
 0.00132484,-0.00087886,0.02100376,-0.00001571,0.03509752,0.00871892,0.
 00011453,-0.23463108,0.00130058,0.00000443,0.00029857,-0.00252152,0.00
 581394,-0.01512168,-0.00789104,-0.00012669,0.27022507,-0.04350917,-0.0
 5984446,-0.03491426,0.00879322,-0.00116704,0.00213660,0.00634265,0.004
 86651,0.00196533,0.00429144,-0.00128855,-0.00248402,0.05264221,-0.0583
 4168,-0.17526390,-0.07007720,-0.00113600,-0.00028555,-0.00101885,-0.00
 466564,-0.02379329,-0.00643712,-0.00129280,-0.00087393,-0.00581932,0.0
 6758321,0.20072383,-0.03296686,-0.06910867,-0.06939435,-0.00240536,0.0
 0031669,-0.00163298,0.00191770,0.00642503,0.00618000,-0.00824070,-0.02
 104761,-0.01514522,0.03608402,0.08310796,0.07642620,0.11926053,0.00047
 758,-0.04231980,0.09535527,0.00040264,0.03419952,-0.02826002,0.0012789
 2,0.00636916,-0.01466428,-0.00005777,0.00197507,-0.02817866,-0.0014672
 2,0.00636589,-0.15665702,0.00047117,-0.01565756,-0.00014794,0.00040938
 ,-0.02040812,0.00011739,0.00977844,-0.00068226,-0.00033780,-0.00006374
 ,0.00212218,0.00000986,-0.00996760,-0.00075683,0.00037976,-0.00067403,
 0.03357441,0.04381494,0.00015568,-0.03016051,-0.01934271,-0.00007009,-
 0.01656024,-0.00289060,-0.00017891,0.00344816,0.01211780,0.00004431,-0
 .00589820,-0.00290064,0.00015612,0.00344852,-0.00774487,-0.00002731,0.
 05024580,-0.00645388,-0.00126578,0.00026763,-0.03503074,-0.01153880,-0
 .01783216,0.00001816,0.00033221,-0.00049553,0.00009070,-0.00021547,0.0
 0044981,-0.00040386,-0.00034491,-0.00025832,0.00661789,-0.01326484,-0.
 01152662,0.03178478,-0.00184315,-0.00089275,0.00049612,-0.01952025,-0.
 17810753,-0.09000497,0.00021057,0.00045351,-0.00013690,-0.00008791,0.0
 0021157,0.00028366,0.00003083,-0.00019999,-0.00020648,0.00062087,0.000
 86056,-0.00130004,0.02331106,0.21170115,-0.00104786,0.00117988,0.00029
 963,-0.02903182,-0.12436687,-0.12591438,-0.00016718,-0.00016504,0.0000
 9527,0.00010896,-0.00008919,0.00013632,0.00028120,-0.00007567,0.000022
 30,0.00059546,-0.00472601,-0.00226363,0.02692303,0.10956289,0.11118914
 ,-0.00647416,0.00122710,0.00027173,-0.03525778,0.01256587,-0.01846367,
 -0.00040607,0.00034374,-0.00025948,0.00008859,0.00021399,0.00045192,0.
 00002187,-0.00033487,-0.00049665,0.00652615,0.01331121,-0.01152740,0.0
 0337780,-0.00272254,0.00233779,0.03212445,0.00180389,-0.00087014,-0.00
 049502,0.02055438,-0.17801293,0.08984386,-0.00003254,-0.00019795,0.000
 20447,0.00008700,0.00021395,-0.00028040,-0.00021332,0.00044940,0.00013
 366,-0.00058090,0.00094714,0.00122023,0.00298685,-0.03402673,0.0186800
 5,-0.02460483,0.21149704,-0.00103872,-0.00118780,0.00029869,-0.0299020
 8,0.12412528,-0.12578161,0.00028076,0.00007746,0.00002245,0.00010840,0
 .00009003,0.00013623,-0.00016826,0.00016404,0.00009539,0.00056133,0.00
 473206,-0.00225988,0.00247228,-0.01869427,0.01643518,0.02768589,-0.109
 30685,0.11105336\\0.00000393,-0.00000564,-0.00000341,-0.00000331,0.000
 00052,-0.00000578,0.00000323,0.00000343,0.00000066,-0.00000429,-0.0000
 0046,0.00000146,-0.00000059,-0.00000021,0.00000394,0.00000057,0.000002
 01,-0.00000173,0.00000030,0.00000169,0.00000267,0.00000015,-0.00000133
 ,0.00000219\\\@


 IN SO FAR AS QUANTUM MECHANICS IS CORRECT, CHEMICAL 
 QUESTIONS ARE PROBLEMS IN APPLIED MATHEMATICS.

                    -- EYRING, WALTER, & KIMBALL, 1944
 Job cpu time:       0 days  0 hours  1 minutes 30.0 seconds.
 Elapsed time:       0 days  0 hours  0 minutes 18.2 seconds.
 File lengths (MBytes):  RWF=      5 Int=      0 D2E=      0 Chk=      2 Scr=      1
 Normal termination of Gaussian 16 at Wed Oct 21 14:44:54 2020.
