 Entering Gaussian System, Link 0=g16
 Input=MN_25_CH4_BH76_TPSSDBJ_631Gs.in
 Output=MN_25_CH4_BH76_TPSSDBJ_631Gs.log
 Initial command:
 /udrive/faculty/rpeverati/g16/g16/l1.exe "/udrive/scratch-directories/gaussian09/rpeverati/Gau-5842.inp" -scrdir="/udrive/scratch-directories/gaussian09/rpeverati/"
 Entering Link 1 = /udrive/faculty/rpeverati/g16/g16/l1.exe PID=      5859.
  
 Copyright (c) 1988,1990,1992,1993,1995,1998,2003,2009,2016,
            Gaussian, Inc.  All Rights Reserved.
  
 This is part of the Gaussian(R) 16 program.  It is based on
 the Gaussian(R) 09 system (copyright 2009, Gaussian, Inc.),
 the Gaussian(R) 03 system (copyright 2003, Gaussian, Inc.),
 the Gaussian(R) 98 system (copyright 1998, Gaussian, Inc.),
 the Gaussian(R) 94 system (copyright 1995, Gaussian, Inc.),
 the Gaussian 92(TM) system (copyright 1992, Gaussian, Inc.),
 the Gaussian 90(TM) system (copyright 1990, Gaussian, Inc.),
 the Gaussian 88(TM) system (copyright 1988, Gaussian, Inc.),
 the Gaussian 86(TM) system (copyright 1986, Carnegie Mellon
 University), and the Gaussian 82(TM) system (copyright 1983,
 Carnegie Mellon University). Gaussian is a federally registered
 trademark of Gaussian, Inc.
  
 This software contains proprietary and confidential information,
 including trade secrets, belonging to Gaussian, Inc.
  
 This software is provided under written license and may be
 used, copied, transmitted, or stored only in accord with that
 written license.
  
 The following legend is applicable only to US Government
 contracts under FAR:
  
                    RESTRICTED RIGHTS LEGEND
  
 Use, reproduction and disclosure by the US Government is
 subject to restrictions as set forth in subparagraphs (a)
 and (c) of the Commercial Computer Software - Restricted
 Rights clause in FAR 52.227-19.
  
 Gaussian, Inc.
 340 Quinnipiac St., Bldg. 40, Wallingford CT 06492
  
  
 ---------------------------------------------------------------
 Warning -- This program may not be used in any manner that
 competes with the business of Gaussian, Inc. or will provide
 assistance to any competitor of Gaussian, Inc.  The licensee
 of this program is prohibited from giving any competitor of
 Gaussian, Inc. access to this program.  By using this program,
 the user acknowledges that Gaussian, Inc. is engaged in the
 business of creating and licensing software in the field of
 computational chemistry and represents and warrants to the
 licensee that it is not a competitor of Gaussian, Inc. and that
 it will not use this program in any manner prohibited above.
 ---------------------------------------------------------------
  

 Cite this work as:
 Gaussian 16, Revision A.03,
 M. J. Frisch, G. W. Trucks, H. B. Schlegel, G. E. Scuseria, 
 M. A. Robb, J. R. Cheeseman, G. Scalmani, V. Barone, 
 G. A. Petersson, H. Nakatsuji, X. Li, M. Caricato, A. V. Marenich, 
 J. Bloino, B. G. Janesko, R. Gomperts, B. Mennucci, H. P. Hratchian, 
 J. V. Ortiz, A. F. Izmaylov, J. L. Sonnenberg, D. Williams-Young, 
 F. Ding, F. Lipparini, F. Egidi, J. Goings, B. Peng, A. Petrone, 
 T. Henderson, D. Ranasinghe, V. G. Zakrzewski, J. Gao, N. Rega, 
 G. Zheng, W. Liang, M. Hada, M. Ehara, K. Toyota, R. Fukuda, 
 J. Hasegawa, M. Ishida, T. Nakajima, Y. Honda, O. Kitao, H. Nakai, 
 T. Vreven, K. Throssell, J. A. Montgomery, Jr., J. E. Peralta, 
 F. Ogliaro, M. J. Bearpark, J. J. Heyd, E. N. Brothers, K. N. Kudin, 
 V. N. Staroverov, T. A. Keith, R. Kobayashi, J. Normand, 
 K. Raghavachari, A. P. Rendell, J. C. Burant, S. S. Iyengar, 
 J. Tomasi, M. Cossi, J. M. Millam, M. Klene, C. Adamo, R. Cammi, 
 J. W. Ochterski, R. L. Martin, K. Morokuma, O. Farkas, 
 J. B. Foresman, and D. J. Fox, Gaussian, Inc., Wallingford CT, 2016.
 
 ******************************************
 Gaussian 16:  ES64L-G16RevA.03 25-Dec-2016
                 7-Oct-2020 
 ******************************************
 %NoSave
 %nproc=12
 Will use up to   12 processors via shared memory.
 %mem=20GB
 %chk=MN_25_CH4_BH76_TPSSDBJ_631Gs
 ----------------------------------------------------------------------
 #P Opt(MaxCyc=100) TPSSTPSS/6-31G* 5D 7F Integral=UltraFineGrid SCF=(N
 oSymm,XQC,MaxCyc=120) EmpiricalDispersion=GD3BJ IOp(1/33=1)
 ----------------------------------------------------------------------
 1/6=100,18=20,19=15,26=4,33=1,38=1/1,3;
 2/9=110,12=2,17=6,18=5,40=1/2;
 3/5=1,6=6,7=1,8=11,11=2,25=1,30=1,71=1,74=2523,75=-5,124=41/1,2,3;
 4/9=2/1;
 5/5=2,7=120,8=3,13=1,38=5/2,8;
 6/7=2,8=2,9=2,10=2,28=1/1;
 7//1,2,3,16;
 1/6=100,18=20,19=15,26=4,33=1/3(2);
 2/9=110/2;
 99//99;
 2/9=110/2;
 3/5=1,6=6,7=1,8=11,11=2,25=1,30=1,71=1,74=2523,75=-5,124=41/1,2,3;
 4/5=5,9=2,16=3,69=1/1;
 5/5=2,7=120,8=3,13=1,38=5/2,8;
 7//1,2,3,16;
 1/6=100,18=20,19=15,26=4,33=1/3(-5);
 2/9=110/2;
 6/7=2,8=2,9=2,10=2,19=2,28=1/1;
 99/9=1/99;
 Leave Link    1 at Wed Oct  7 13:04:06 2020, MaxMem=  2684354560 cpu:               6.4 elap:               0.6
 (Enter /udrive/faculty/rpeverati/g16/g16/l101.exe)
 ONIOM data not found on unit 2.
 ------------------
 TS search on BH76.
 ------------------
 TstMul:  ICh=     0
 TstMul:  Mul=     1
 TstMul:  ICh=     0
 TstMul:  Mul=     1
 Symbolic Z-matrix:
 Charge =  0 Multiplicity = 1
 C                     0.        0.        0. 
 H                     0.62784   0.62784   0.62784 
 H                    -0.62784  -0.62784   0.62784 
 H                     0.62784  -0.62784  -0.62784 
 H                    -0.62784   0.62784  -0.62784 
 
 RdStrC is calling ZToCFu for IStruc=1 NZ=     5.
 PrtBox:  NBox=     1 Levels=  1 BoxLen=    8.00 SMaxX=        2.37
          Shift=            1.186440            1.186440            1.186440
 Box      1 Number                   0 centers from      1 to      5:
 After GenITR:
 ITRead=  0  0  0  0  0
 MicOpt= -1 -1 -1 -1 -1
 ITRead=  0  0  0  0  0
 MicOpt= -1 -1 -1 -1 -1
 NAtoms=      5 NQM=        5 NQMF=       0 NMMI=      0 NMMIF=      0
                NMic=       0 NMicF=      0.
                    Isotopes and Nuclear Properties:
 (Nuclear quadrupole moments (NQMom) in fm**2, nuclear magnetic moments (NMagM)
  in nuclear magnetons)

  Atom         1           2           3           4           5
 IAtWgt=          12           1           1           1           1
 AtmWgt=  12.0000000   1.0078250   1.0078250   1.0078250   1.0078250
 NucSpn=           0           1           1           1           1
 AtZEff=   0.0000000   0.0000000   0.0000000   0.0000000   0.0000000
 NQMom=    0.0000000   0.0000000   0.0000000   0.0000000   0.0000000
 NMagM=    0.0000000   2.7928460   2.7928460   2.7928460   2.7928460
 AtZNuc=   6.0000000   1.0000000   1.0000000   1.0000000   1.0000000
 No MM parameters found.
 Leave Link  101 at Wed Oct  7 13:04:07 2020, MaxMem=  2684354560 cpu:              13.6 elap:               1.3
 (Enter /udrive/faculty/rpeverati/g16/g16/l103.exe)

 GradGradGradGradGradGradGradGradGradGradGradGradGradGradGradGradGradGrad
 Berny optimization.
 Optmz: redundant internal coordinate code flag= 1
 Initialization pass.
                           ----------------------------
                           !    Initial Parameters    !
                           ! (Angstroms and Degrees)  !
 --------------------------                            --------------------------
 ! Name  Definition              Value          Derivative Info.                !
 --------------------------------------------------------------------------------
 ! R1    R(1,2)                  1.0874         estimate D2E/DX2                !
 ! R2    R(1,3)                  1.0874         estimate D2E/DX2                !
 ! R3    R(1,4)                  1.0874         estimate D2E/DX2                !
 ! R4    R(1,5)                  1.0874         estimate D2E/DX2                !
 ! A1    A(2,1,3)              109.4712         estimate D2E/DX2                !
 ! A2    A(2,1,4)              109.4712         estimate D2E/DX2                !
 ! A3    A(2,1,5)              109.4712         estimate D2E/DX2                !
 ! A4    A(3,1,4)              109.4712         estimate D2E/DX2                !
 ! A5    A(3,1,5)              109.4712         estimate D2E/DX2                !
 ! A6    A(4,1,5)              109.4712         estimate D2E/DX2                !
 ! D1    D(2,1,4,3)            120.0            estimate D2E/DX2                !
 ! D2    D(2,1,5,3)           -120.0            estimate D2E/DX2                !
 ! D3    D(2,1,5,4)            120.0            estimate D2E/DX2                !
 ! D4    D(3,1,5,4)           -120.0            estimate D2E/DX2                !
 --------------------------------------------------------------------------------
 Maximum allowed force set to 1.00D+20.
 Trust Radius=3.00D-01 FncErr=1.00D-07 GrdErr=1.00D-06 EigMax=2.50D+02 EigMin=1.00D-04
 Number of steps in this run=    100 maximum allowed number of steps=    100.
 GradGradGradGradGradGradGradGradGradGradGradGradGradGradGradGradGradGrad

 Leave Link  103 at Wed Oct  7 13:04:08 2020, MaxMem=  2684354560 cpu:               1.7 elap:               0.6
 (Enter /udrive/faculty/rpeverati/g16/g16/l202.exe)
                          Input orientation:                          
 ---------------------------------------------------------------------
 Center     Atomic      Atomic             Coordinates (Angstroms)
 Number     Number       Type             X           Y           Z
 ---------------------------------------------------------------------
      1          6           0        0.000000    0.000000    0.000000
      2          1           0        0.627837    0.627837    0.627837
      3          1           0       -0.627837   -0.627837    0.627837
      4          1           0        0.627837   -0.627837   -0.627837
      5          1           0       -0.627837    0.627837   -0.627837
 ---------------------------------------------------------------------
                    Distance matrix (angstroms):
                    1          2          3          4          5
     1  C    0.000000
     2  H    1.087446   0.000000
     3  H    1.087446   1.775791   0.000000
     4  H    1.087446   1.775791   1.775791   0.000000
     5  H    1.087446   1.775791   1.775791   1.775791   0.000000
 Stoichiometry    CH4
 Framework group  TD[O(C),4C3(H)]
 Deg. of freedom     1
 Full point group                 TD      NOp  24
 Largest Abelian subgroup         D2      NOp   4
 Largest concise Abelian subgroup D2      NOp   4
                         Standard orientation:                         
 ---------------------------------------------------------------------
 Center     Atomic      Atomic             Coordinates (Angstroms)
 Number     Number       Type             X           Y           Z
 ---------------------------------------------------------------------
      1          6           0        0.000000    0.000000    0.000000
      2          1           0        0.627837    0.627837    0.627837
      3          1           0       -0.627837   -0.627837    0.627837
      4          1           0        0.627837   -0.627837   -0.627837
      5          1           0       -0.627837    0.627837   -0.627837
 ---------------------------------------------------------------------
 Rotational constants (GHZ):         159.0187163         159.0187163         159.0187163
 Leave Link  202 at Wed Oct  7 13:04:09 2020, MaxMem=  2684354560 cpu:               1.5 elap:               0.5
 (Enter /udrive/faculty/rpeverati/g16/g16/l301.exe)
 Standard basis: 6-31G(d) (5D, 7F)
 Ernie: Thresh=  0.10000D-02 Tol=  0.10000D-05 Strict=F.
 There are     8 symmetry adapted cartesian basis functions of A   symmetry.
 There are     5 symmetry adapted cartesian basis functions of B1  symmetry.
 There are     5 symmetry adapted cartesian basis functions of B2  symmetry.
 There are     5 symmetry adapted cartesian basis functions of B3  symmetry.
 There are     7 symmetry adapted basis functions of A   symmetry.
 There are     5 symmetry adapted basis functions of B1  symmetry.
 There are     5 symmetry adapted basis functions of B2  symmetry.
 There are     5 symmetry adapted basis functions of B3  symmetry.
    22 basis functions,    44 primitive gaussians,    23 cartesian basis functions
     5 alpha electrons        5 beta electrons
       nuclear repulsion energy        13.4669488615 Hartrees.
 IExCor= 2523 DFT=T Ex=TPSS Corr=TPSS ExCW=0 ScaHFX=  0.000000
 ScaDFX=  1.000000  1.000000  1.000000  1.000000 ScalE2=  1.000000  1.000000
 IRadAn=      5 IRanWt=     -1 IRanGd=            0 ICorTp=0 IEmpDi=141
 NAtoms=    5 NActive=    5 NUniq=    2 SFac= 4.00D+00 NAtFMM=   60 NAOKFM=F Big=F
 Integral buffers will be    131072 words long.
 Raffenetti 2 integral format.
 Two-electron integral symmetry is turned on.
 R6Disp:  Grimme-D3(BJ) Dispersion energy=       -0.0013964303 Hartrees.
 Nuclear repulsion after empirical dispersion term =       13.4655524312 Hartrees.
 Leave Link  301 at Wed Oct  7 13:04:10 2020, MaxMem=  2684354560 cpu:               2.3 elap:               0.7
 (Enter /udrive/faculty/rpeverati/g16/g16/l302.exe)
 NPDir=0 NMtPBC=     1 NCelOv=     1 NCel=       1 NClECP=     1 NCelD=      1
         NCelK=      1 NCelE2=     1 NClLst=     1 CellRange=     0.0.
 One-electron integrals computed using PRISM.
 One-electron integral symmetry used in STVInt
 NBasis=    22 RedAO= T EigKep=  2.04D-02  NBF=     7     5     5     5
 NBsUse=    22 1.00D-06 EigRej= -1.00D+00 NBFU=     7     5     5     5
 Precomputing XC quadrature grid using
 IXCGrd= 4 IRadAn=           5 IRanWt=          -1 IRanGd=           0 AccXCQ= 0.00D+00.
 Generated NRdTot=       0 NPtTot=           0 NUsed=           0 NTot=          32
 NSgBfM=    23    23    23    23    23 MxSgAt=     5 MxSgA2=     5.
 Leave Link  302 at Wed Oct  7 13:04:11 2020, MaxMem=  2684354560 cpu:               4.1 elap:               0.7
 (Enter /udrive/faculty/rpeverati/g16/g16/l303.exe)
 DipDrv:  MaxL=1.
 Leave Link  303 at Wed Oct  7 13:04:11 2020, MaxMem=  2684354560 cpu:               1.2 elap:               0.4
 (Enter /udrive/faculty/rpeverati/g16/g16/l401.exe)
 SCF N**3 symmetry information disabled.
 ExpMin= 1.61D-01 ExpMax= 3.05D+03 ExpMxC= 4.57D+02 IAcc=3 IRadAn=         5 AccDes= 0.00D+00
 Harris functional with IExCor= 1009 and IRadAn=       5 diagonalized for initial guess.
 HarFok:  IExCor= 1009 AccDes= 0.00D+00 IRadAn=         5 IDoV= 1 UseB2=F ITyADJ=14
 ICtDFT=  3500011 ScaDFX=  1.000000  1.000000  1.000000  1.000000
 FoFCou: FMM=F IPFlag=           0 FMFlag=      100000 FMFlg1=           0
         NFxFlg=           0 DoJE=T BraDBF=F KetDBF=T FulRan=T
         wScrn=  0.000000 ICntrl=       500 IOpCl=  0 I1Cent=   200000004 NGrid=           0
         NMat0=    1 NMatS0=      1 NMatT0=    0 NMatD0=    1 NMtDS0=    0 NMtDT0=    0
 Petite list used in FoFCou.
 Harris En= -40.5184227925271    
 JPrj=0 DoOrth=F DoCkMO=F.
 Initial guess orbital symmetries:
       Occupied  (A1) (A1) (T2) (T2) (T2)
       Virtual   (A1) (T2) (T2) (T2) (T2) (T2) (T2) (T2) (T2) (T2)
                 (A1) (A1) (E) (E) (T2) (T2) (T2)
 The electronic state of the initial guess is 1-A1.
 Leave Link  401 at Wed Oct  7 13:04:12 2020, MaxMem=  2684354560 cpu:               4.8 elap:               0.8
 (Enter /udrive/faculty/rpeverati/g16/g16/l502.exe)
 Keep J ints in memory in symmetry-blocked form, NReq=10386519.
 FoFCou: FMM=F IPFlag=           0 FMFlag=           0 FMFlg1=           0
         NFxFlg=           0 DoJE=F BraDBF=F KetDBF=F FulRan=T
         wScrn=  0.000000 ICntrl=       600 IOpCl=  0 I1Cent=           0 NGrid=           0
         NMat0=    1 NMatS0=    253 NMatT0=    0 NMatD0=    1 NMtDS0=    0 NMtDT0=    0
 Petite list used in FoFCou.
 Closed shell SCF:
 Using DIIS extrapolation, IDIIS=  1040.
 NGot=  2684354560 LenX=  2684343041 LenY=  2684342071
 Requested convergence on RMS density matrix=1.00D-08 within 120 cycles.
 Requested convergence on MAX density matrix=1.00D-06.
 Requested convergence on             energy=1.00D-06.
 No special actions if energy rises.
 Integral accuracy reduced to 1.0D-05 until final iterations.

 Cycle   1  Pass 0  IDiag  1:
 E= -40.4376756701987    
 DIIS: error= 7.02D-02 at cycle   1 NSaved=   1.
 NSaved= 1 IEnMin= 1 EnMin= -40.4376756701987     IErMin= 1 ErrMin= 7.02D-02
 ErrMax= 7.02D-02  0.00D+00 EMaxC= 1.00D-01 BMatC= 7.85D-02 BMatP= 7.85D-02
 IDIUse=3 WtCom= 2.98D-01 WtEn= 7.02D-01
 Coeff-Com:  0.100D+01
 Coeff-En:   0.100D+01
 Coeff:      0.100D+01
 Gap=     0.382 Goal=   None    Shift=    0.000
 GapD=    0.382 DampG=1.000 DampE=0.500 DampFc=0.5000 IDamp=-1.
 Damping current iteration by 5.00D-01
 RMSDP=2.52D-02 MaxDP=1.61D-01              OVMax= 2.04D-01

 Cycle   2  Pass 0  IDiag  1:
 E= -40.4733230400057     Delta-E=       -0.035647369807 Rises=F Damp=T
 DIIS: error= 1.30D-02 at cycle   2 NSaved=   2.
 NSaved= 2 IEnMin= 2 EnMin= -40.4733230400057     IErMin= 2 ErrMin= 1.30D-02
 ErrMax= 1.30D-02  0.00D+00 EMaxC= 1.00D-01 BMatC= 2.25D-03 BMatP= 7.85D-02
 IDIUse=3 WtCom= 8.70D-01 WtEn= 1.30D-01
 Coeff-Com:  0.124D+00 0.876D+00
 Coeff-En:   0.215D+00 0.785D+00
 Coeff:      0.136D+00 0.864D+00
 Gap=     0.451 Goal=   None    Shift=    0.000
 RMSDP=2.63D-03 MaxDP=2.00D-02 DE=-3.56D-02 OVMax= 1.12D-01

 Cycle   3  Pass 0  IDiag  1:
 E= -40.5235970737290     Delta-E=       -0.050274033723 Rises=F Damp=F
 DIIS: error= 1.55D-03 at cycle   3 NSaved=   3.
 NSaved= 3 IEnMin= 3 EnMin= -40.5235970737290     IErMin= 3 ErrMin= 1.55D-03
 ErrMax= 1.55D-03  0.00D+00 EMaxC= 1.00D-01 BMatC= 4.16D-05 BMatP= 2.25D-03
 IDIUse=3 WtCom= 9.85D-01 WtEn= 1.55D-02
 Coeff-Com:  0.154D-01-0.573D-01 0.104D+01
 Coeff-En:   0.000D+00 0.000D+00 0.100D+01
 Coeff:      0.151D-01-0.565D-01 0.104D+01
 Gap=     0.460 Goal=   None    Shift=    0.000
 RMSDP=1.98D-04 MaxDP=1.62D-03 DE=-5.03D-02 OVMax= 1.79D-03

 Cycle   4  Pass 0  IDiag  1:
 E= -40.5236377897717     Delta-E=       -0.000040716043 Rises=F Damp=F
 DIIS: error= 5.15D-05 at cycle   4 NSaved=   4.
 NSaved= 4 IEnMin= 4 EnMin= -40.5236377897717     IErMin= 4 ErrMin= 5.15D-05
 ErrMax= 5.15D-05  0.00D+00 EMaxC= 1.00D-01 BMatC= 4.70D-08 BMatP= 4.16D-05
 IDIUse=1 WtCom= 1.00D+00 WtEn= 0.00D+00
 Coeff-Com:  0.140D-02-0.763D-03 0.372D-01 0.962D+00
 Coeff:      0.140D-02-0.763D-03 0.372D-01 0.962D+00
 Gap=     0.460 Goal=   None    Shift=    0.000
 RMSDP=8.92D-06 MaxDP=4.66D-05 DE=-4.07D-05 OVMax= 7.11D-05

 Initial convergence to 1.0D-05 achieved.  Increase integral accuracy.
 Cycle   5  Pass 1  IDiag  1:
 E= -40.5236312823550     Delta-E=        0.000006507417 Rises=F Damp=F
 DIIS: error= 2.69D-06 at cycle   1 NSaved=   1.
 NSaved= 1 IEnMin= 1 EnMin= -40.5236312823550     IErMin= 1 ErrMin= 2.69D-06
 ErrMax= 2.69D-06  0.00D+00 EMaxC= 1.00D-01 BMatC= 2.19D-10 BMatP= 2.19D-10
 IDIUse=1 WtCom= 1.00D+00 WtEn= 0.00D+00
 Coeff-Com:  0.100D+01
 Coeff:      0.100D+01
 Gap=     0.460 Goal=   None    Shift=    0.000
 RMSDP=8.92D-06 MaxDP=4.66D-05 DE= 6.51D-06 OVMax= 7.13D-06

 Cycle   6  Pass 1  IDiag  1:
 E= -40.5236312824288     Delta-E=       -0.000000000074 Rises=F Damp=F
 DIIS: error= 3.18D-06 at cycle   2 NSaved=   2.
 NSaved= 2 IEnMin= 2 EnMin= -40.5236312824288     IErMin= 1 ErrMin= 2.69D-06
 ErrMax= 3.18D-06  0.00D+00 EMaxC= 1.00D-01 BMatC= 1.68D-10 BMatP= 2.19D-10
 IDIUse=1 WtCom= 1.00D+00 WtEn= 0.00D+00
 Coeff-Com:  0.463D+00 0.537D+00
 Coeff:      0.463D+00 0.537D+00
 Gap=     0.460 Goal=   None    Shift=    0.000
 RMSDP=5.99D-07 MaxDP=4.15D-06 DE=-7.39D-11 OVMax= 5.02D-06

 Cycle   7  Pass 1  IDiag  1:
 E= -40.5236312825984     Delta-E=       -0.000000000170 Rises=F Damp=F
 DIIS: error= 7.53D-07 at cycle   3 NSaved=   3.
 NSaved= 3 IEnMin= 3 EnMin= -40.5236312825984     IErMin= 3 ErrMin= 7.53D-07
 ErrMax= 7.53D-07  0.00D+00 EMaxC= 1.00D-01 BMatC= 9.52D-12 BMatP= 1.68D-10
 IDIUse=1 WtCom= 1.00D+00 WtEn= 0.00D+00
 Coeff-Com: -0.161D-01 0.183D+00 0.833D+00
 Coeff:     -0.161D-01 0.183D+00 0.833D+00
 Gap=     0.460 Goal=   None    Shift=    0.000
 RMSDP=1.07D-07 MaxDP=8.11D-07 DE=-1.70D-10 OVMax= 9.31D-07

 Cycle   8  Pass 1  IDiag  1:
 E= -40.5236312826085     Delta-E=       -0.000000000010 Rises=F Damp=F
 DIIS: error= 7.73D-09 at cycle   4 NSaved=   4.
 NSaved= 4 IEnMin= 4 EnMin= -40.5236312826085     IErMin= 4 ErrMin= 7.73D-09
 ErrMax= 7.73D-09  0.00D+00 EMaxC= 1.00D-01 BMatC= 9.12D-16 BMatP= 9.52D-12
 IDIUse=1 WtCom= 1.00D+00 WtEn= 0.00D+00
 Coeff-Com: -0.900D-03 0.633D-02 0.392D-01 0.955D+00
 Coeff:     -0.900D-03 0.633D-02 0.392D-01 0.955D+00
 Gap=     0.460 Goal=   None    Shift=    0.000
 RMSDP=1.43D-09 MaxDP=7.52D-09 DE=-1.01D-11 OVMax= 1.07D-08

 SCF Done:  E(RTPSS-TPSS) =  -40.5236312826     A.U. after    8 cycles
            NFock=  8  Conv=0.14D-08     -V/T= 2.0059
 KE= 4.028777471343D+01 PE=-1.201803531027D+02 EE= 2.590339467542D+01
 Leave Link  502 at Wed Oct  7 13:04:14 2020, MaxMem=  2684354560 cpu:              10.0 elap:               1.2
 (Enter /udrive/faculty/rpeverati/g16/g16/l508.exe)
 QCSCF skips out because SCF is already converged.
 Leave Link  508 at Wed Oct  7 13:04:15 2020, MaxMem=  2684354560 cpu:               0.7 elap:               0.5
 (Enter /udrive/faculty/rpeverati/g16/g16/l601.exe)
 Copying SCF densities to generalized density rwf, IOpCl= 0 IROHF=0.

 **********************************************************************

            Population analysis using the SCF density.

 **********************************************************************

 Orbital symmetries:
       Occupied  (A1) (A1) (T2) (T2) (T2)
       Virtual   (A1) (T2) (T2) (T2) (T2) (T2) (T2) (T2) (T2) (T2)
                 (A1) (A1) (E) (E) (T2) (T2) (T2)
 The electronic state is 1-A1.
 Alpha  occ. eigenvalues --   -9.97210  -0.63964  -0.35006  -0.35006  -0.35006
 Alpha virt. eigenvalues --    0.10979   0.16397   0.16397   0.16397   0.51916
 Alpha virt. eigenvalues --    0.51916   0.51916   0.88985   0.88985   0.88985
 Alpha virt. eigenvalues --    0.95657   1.09932   1.62825   1.62825   2.26016
 Alpha virt. eigenvalues --    2.26016   2.26016
          Condensed to atoms (all electrons):
               1          2          3          4          5
     1  C    5.119855   0.383165   0.383165   0.383165   0.383165
     2  H    0.383165   0.534977  -0.027090  -0.027090  -0.027090
     3  H    0.383165  -0.027090   0.534977  -0.027090  -0.027090
     4  H    0.383165  -0.027090  -0.027090   0.534977  -0.027090
     5  H    0.383165  -0.027090  -0.027090  -0.027090   0.534977
 Mulliken charges:
               1
     1  C   -0.652515
     2  H    0.163129
     3  H    0.163129
     4  H    0.163129
     5  H    0.163129
 Sum of Mulliken charges =   0.00000
 Mulliken charges with hydrogens summed into heavy atoms:
               1
     1  C    0.000000
 Electronic spatial extent (au):  <R**2>=             35.2191
 Charge=              0.0000 electrons
 Dipole moment (field-independent basis, Debye):
    X=             -0.0000    Y=              0.0000    Z=             -0.0000  Tot=              0.0000
 Quadrupole moment (field-independent basis, Debye-Ang):
   XX=             -8.2170   YY=             -8.2170   ZZ=             -8.2170
   XY=             -0.0000   XZ=              0.0000   YZ=             -0.0000
 Traceless Quadrupole moment (field-independent basis, Debye-Ang):
   XX=             -0.0000   YY=              0.0000   ZZ=             -0.0000
   XY=             -0.0000   XZ=              0.0000   YZ=             -0.0000
 Octapole moment (field-independent basis, Debye-Ang**2):
  XXX=             -0.0000  YYY=              0.0000  ZZZ=             -0.0000  XYY=             -0.0000
  XXY=              0.0000  XXZ=             -0.0000  XZZ=             -0.0000  YZZ=              0.0000
  YYZ=             -0.0000  XYZ=              0.6549
 Hexadecapole moment (field-independent basis, Debye-Ang**3):
 XXXX=            -15.4841 YYYY=            -15.4841 ZZZZ=            -15.4841 XXXY=              0.0000
 XXXZ=              0.0000 YYYX=             -0.0000 YYYZ=             -0.0000 ZZZX=              0.0000
 ZZZY=             -0.0000 XXYY=             -4.7278 XXZZ=             -4.7278 YYZZ=             -4.7278
 XXYZ=             -0.0000 YYXZ=             -0.0000 ZZXY=             -0.0000
 N-N= 1.346555243121D+01 E-N=-1.201803529215D+02  KE= 4.028777471343D+01
 No NMR shielding tensors so no spin-rotation constants.
 Leave Link  601 at Wed Oct  7 13:04:16 2020, MaxMem=  2684354560 cpu:               4.1 elap:               0.6
 (Enter /udrive/faculty/rpeverati/g16/g16/l701.exe)
 ... and contract with generalized density number  0.
 Compute integral first derivatives.
 R6Disp: Adding Grimme-D3(BJ) dispersion energy 1st derivatives to the gradient.
 Leave Link  701 at Wed Oct  7 13:04:16 2020, MaxMem=  2684354560 cpu:               3.8 elap:               0.6
 (Enter /udrive/faculty/rpeverati/g16/g16/l702.exe)
 L702 exits ... SP integral derivatives will be done elsewhere.
 Leave Link  702 at Wed Oct  7 13:04:17 2020, MaxMem=  2684354560 cpu:               1.1 elap:               0.5
 (Enter /udrive/faculty/rpeverati/g16/g16/l703.exe)
 Integral derivatives from FoFJK, PRISM(SPDF).
 Compute integral first derivatives, UseDBF=F ICtDFT=           0.
 Calling FoFJK, ICntrl=      2527 FMM=F ISym2X=1 I1Cent= 0 IOpClX= 0 NMat=1 NMatS=1 NMatT=0.
 FoFJK:  IHMeth= 1 ICntrl=    2527 DoSepK=F KAlg= 0 I1Cent=           0 FoldK=F
 IRaf=         0 NMat=       1 IRICut=       1 DoRegI=T DoRafI=F ISym2E= 1 IDoP0=0 IntGTp=1.
 FoFCou: FMM=F IPFlag=           0 FMFlag=      100000 FMFlg1=         800
         NFxFlg=           0 DoJE=F BraDBF=F KetDBF=F FulRan=T
         wScrn=  0.000000 ICntrl=      2527 IOpCl=  0 I1Cent=           0 NGrid=           0
         NMat0=    1 NMatS0=      1 NMatT0=    0 NMatD0=    1 NMtDS0=    0 NMtDT0=    0
 Petite list used in FoFCou.
 Leave Link  703 at Wed Oct  7 13:04:18 2020, MaxMem=  2684354560 cpu:               4.7 elap:               0.7
 (Enter /udrive/faculty/rpeverati/g16/g16/l716.exe)
 Dipole        =-2.22044605D-16 2.22044605D-16 0.00000000D+00
 ***** Axes restored to original set *****
 -------------------------------------------------------------------
 Center     Atomic                   Forces (Hartrees/Bohr)
 Number     Number              X              Y              Z
 -------------------------------------------------------------------
      1        6           0.000000000    0.000000000   -0.000000000
      2        1           0.003315662    0.003315662    0.003315662
      3        1          -0.003315662   -0.003315662    0.003315662
      4        1           0.003315662   -0.003315662   -0.003315662
      5        1          -0.003315662    0.003315662   -0.003315662
 -------------------------------------------------------------------
 Cartesian Forces:  Max     0.003315662 RMS     0.002965618
 Leave Link  716 at Wed Oct  7 13:04:19 2020, MaxMem=  2684354560 cpu:               1.6 elap:               0.4
 (Enter /udrive/faculty/rpeverati/g16/g16/l103.exe)

 GradGradGradGradGradGradGradGradGradGradGradGradGradGradGradGradGradGrad
 Berny optimization.
 Optmz: redundant internal coordinate code flag= 1
 FormGI is forming the generalized inverse of G from B-inverse, IUseBI=4.
 Internal  Forces:  Max     0.005742895 RMS     0.003069706
 Search for a local minimum.
 Step number   1 out of a maximum of  100
 All quantities printed in internal units (Hartrees-Bohrs-Radians)
 RMS Force = .30697D-02 SwitMx=.10000D-02 MixMth= 1
 Mixed Optimization -- RFO/linear search
 Second derivative matrix not updated -- first step.
 The second derivative matrix:
                          R1        R2        R3        R4        A1
           R1           0.35110
           R2           0.00000   0.35110
           R3           0.00000   0.00000   0.35110
           R4           0.00000   0.00000   0.00000   0.35110
           A1           0.00000   0.00000   0.00000   0.00000   0.16000
           A2           0.00000   0.00000   0.00000   0.00000   0.00000
           A3           0.00000   0.00000   0.00000   0.00000   0.00000
           A4           0.00000   0.00000   0.00000   0.00000   0.00000
           A5           0.00000   0.00000   0.00000   0.00000   0.00000
           A6           0.00000   0.00000   0.00000   0.00000   0.00000
           D1           0.00000   0.00000   0.00000   0.00000   0.00000
           D2           0.00000   0.00000   0.00000   0.00000   0.00000
           D3           0.00000   0.00000   0.00000   0.00000   0.00000
           D4           0.00000   0.00000   0.00000   0.00000   0.00000
                          A2        A3        A4        A5        A6
           A2           0.16000
           A3           0.00000   0.16000
           A4           0.00000   0.00000   0.16000
           A5           0.00000   0.00000   0.00000   0.16000
           A6           0.00000   0.00000   0.00000   0.00000   0.16000
           D1           0.00000   0.00000   0.00000   0.00000   0.00000
           D2           0.00000   0.00000   0.00000   0.00000   0.00000
           D3           0.00000   0.00000   0.00000   0.00000   0.00000
           D4           0.00000   0.00000   0.00000   0.00000   0.00000
                          D1        D2        D3        D4
           D1           0.00269
           D2           0.00000   0.00269
           D3           0.00000   0.00000   0.00269
           D4           0.00000   0.00000   0.00000   0.00269
 ITU=  0
 Eigenvectors of the second derivative matrix:
                           1         2         3         4         5
     Eigenvalues --     0.05109   0.05740   0.08659   0.16000   0.16000
   1         R1        -0.00000  -0.00000   0.00000  -0.00000  -0.00000
   2         R2         0.00000   0.00000   0.00000   0.00000   0.00000
   3         R3        -0.00000  -0.00000   0.00000   0.00000   0.00000
   4         R4        -0.00000   0.00000   0.00000  -0.00000  -0.00000
   5         A1        -0.47305   0.00000  -0.13591   0.09798  -0.24865
   6         A2         0.11826   0.37300  -0.33976   0.19623   0.36458
   7         A3         0.00000   0.18650   0.37374  -0.68640   0.01679
   8         A4         0.11826  -0.37300  -0.33976  -0.39219   0.13272
   9         A5         0.00000  -0.18650   0.37374   0.49044   0.48052
  10         A6         0.23652  -0.00000   0.06795   0.29394  -0.74596
  11         D1        -0.43452   0.00000  -0.58258   0.00000   0.00000
  12         D2         0.57937  -0.00000  -0.29129   0.00000   0.00000
  13         D3         0.28968   0.57104  -0.14564  -0.00000   0.00000
  14         D4        -0.28968   0.57104   0.14564  -0.00000   0.00000
                           6         7         8         9
     Eigenvalues --     0.35110   0.35110   0.35110   0.35110
   1         R1        -0.56777  -0.37827  -0.57033   0.45746
   2         R2        -0.34441   0.34402  -0.47388  -0.73380
   3         R3         0.65549   0.29584  -0.64841   0.24978
   4         R4         0.35967  -0.80687  -0.17240  -0.43575
   5         A1         0.00000  -0.00000  -0.00000  -0.00000
   6         A2         0.00000  -0.00000  -0.00000   0.00000
   7         A3        -0.00000   0.00000   0.00000   0.00000
   8         A4        -0.00000   0.00000  -0.00000  -0.00000
   9         A5         0.00000  -0.00000   0.00000   0.00000
  10         A6         0.00000  -0.00000  -0.00000  -0.00000
  11         D1        -0.00000  -0.00000  -0.00000  -0.00000
  12         D2         0.00000  -0.00000  -0.00000  -0.00000
  13         D3         0.00000  -0.00000  -0.00000   0.00000
  14         D4         0.00000   0.00000  -0.00000   0.00000
 Iter=   1 RLamda= 0.00000000D+00 Sum=-3.75748205D-04.
 Iter=   2 RLamda=-3.75748205D-04 Sum=-3.75346503D-04.
 Iter=   3 RLamda=-3.75346503D-04 Sum=-3.75346932D-04.
 RFO step:  Lambda=-3.75346503D-04 EMin= 5.10904457D-02
 Linear search not attempted -- first point.
 Iteration  1 RMS(Cart)=  0.00873390 RMS(Int)=  0.00000000
 Iteration  2 RMS(Cart)=  0.00000000 RMS(Int)=  0.00000000
 ITry= 1 IFail=0 DXMaxC= 9.43D-03 DCOld= 1.00D+10 DXMaxT= 3.00D-01 DXLimC= 3.00D+00 Rises=F
 ClnCor:  largest displacement from symmetrization is 8.18D-15 for atom     3.
 Variable       Old X    -DE/DX   Delta X   Delta X   Delta X     New X
                                 (Linear)    (Quad)   (Total)
    R1        2.05497   0.00574   0.00000   0.01634   0.01634   2.07131
    R2        2.05497   0.00574   0.00000   0.01634   0.01634   2.07131
    R3        2.05497   0.00574   0.00000   0.01634   0.01634   2.07131
    R4        2.05497   0.00574   0.00000   0.01634   0.01634   2.07131
    A1        1.91063   0.00000   0.00000   0.00000  -0.00000   1.91063
    A2        1.91063  -0.00000   0.00000   0.00000   0.00000   1.91063
    A3        1.91063   0.00000   0.00000   0.00000   0.00000   1.91063
    A4        1.91063  -0.00000   0.00000  -0.00000   0.00000   1.91063
    A5        1.91063  -0.00000   0.00000  -0.00000   0.00000   1.91063
    A6        1.91063   0.00000   0.00000   0.00000  -0.00000   1.91063
    D1        2.09440  -0.00000   0.00000  -0.00000   0.00000   2.09440
    D2       -2.09440  -0.00000   0.00000  -0.00000   0.00000  -2.09440
    D3        2.09440   0.00000   0.00000   0.00000   0.00000   2.09440
    D4       -2.09440   0.00000   0.00000   0.00000   0.00000  -2.09440
         Item               Value     Threshold  Converged?
 Maximum Force            0.005743     0.000450     NO 
 RMS     Force            0.003070     0.000300     NO 
 Maximum Displacement     0.009434     0.001800     NO 
 RMS     Displacement     0.008734     0.001200     NO 
 Predicted change in Energy=-1.878739D-04
 Lowest energy point so far.  Saving SCF results.
 Largest change from initial coordinates is atom    2       0.009 Angstoms.
 GradGradGradGradGradGradGradGradGradGradGradGradGradGradGradGradGradGrad

 Leave Link  103 at Wed Oct  7 13:04:19 2020, MaxMem=  2684354560 cpu:               1.8 elap:               0.4
 (Enter /udrive/faculty/rpeverati/g16/g16/l202.exe)
                          Input orientation:                          
 ---------------------------------------------------------------------
 Center     Atomic      Atomic             Coordinates (Angstroms)
 Number     Number       Type             X           Y           Z
 ---------------------------------------------------------------------
      1          6           0       -0.000000    0.000000    0.000000
      2          1           0        0.632829    0.632829    0.632829
      3          1           0       -0.632829   -0.632829    0.632829
      4          1           0        0.632829   -0.632829   -0.632829
      5          1           0       -0.632829    0.632829   -0.632829
 ---------------------------------------------------------------------
                    Distance matrix (angstroms):
                    1          2          3          4          5
     1  C    0.000000
     2  H    1.096092   0.000000
     3  H    1.096092   1.789911   0.000000
     4  H    1.096092   1.789911   1.789911   0.000000
     5  H    1.096092   1.789911   1.789911   1.789911   0.000000
 Stoichiometry    CH4
 Framework group  TD[O(C),4C3(H)]
 Deg. of freedom     1
 Full point group                 TD      NOp  24
 RotChk:  IX=0 Diff= 5.74D-16
 Largest Abelian subgroup         D2      NOp   4
 Largest concise Abelian subgroup D2      NOp   4
                         Standard orientation:                         
 ---------------------------------------------------------------------
 Center     Atomic      Atomic             Coordinates (Angstroms)
 Number     Number       Type             X           Y           Z
 ---------------------------------------------------------------------
      1          6           0        0.000000    0.000000    0.000000
      2          1           0        0.632829    0.632829    0.632829
      3          1           0       -0.632829   -0.632829    0.632829
      4          1           0        0.632829   -0.632829   -0.632829
      5          1           0       -0.632829    0.632829   -0.632829
 ---------------------------------------------------------------------
 Rotational constants (GHZ):         156.5197640         156.5197640         156.5197640
 Leave Link  202 at Wed Oct  7 13:04:20 2020, MaxMem=  2684354560 cpu:               0.9 elap:               0.3
 (Enter /udrive/faculty/rpeverati/g16/g16/l301.exe)
 Standard basis: 6-31G(d) (5D, 7F)
 Ernie: Thresh=  0.10000D-02 Tol=  0.10000D-05 Strict=F.
 There are     8 symmetry adapted cartesian basis functions of A   symmetry.
 There are     5 symmetry adapted cartesian basis functions of B1  symmetry.
 There are     5 symmetry adapted cartesian basis functions of B2  symmetry.
 There are     5 symmetry adapted cartesian basis functions of B3  symmetry.
 There are     7 symmetry adapted basis functions of A   symmetry.
 There are     5 symmetry adapted basis functions of B1  symmetry.
 There are     5 symmetry adapted basis functions of B2  symmetry.
 There are     5 symmetry adapted basis functions of B3  symmetry.
    22 basis functions,    44 primitive gaussians,    23 cartesian basis functions
     5 alpha electrons        5 beta electrons
       nuclear repulsion energy        13.3607144276 Hartrees.
 IExCor= 2523 DFT=T Ex=TPSS Corr=TPSS ExCW=0 ScaHFX=  0.000000
 ScaDFX=  1.000000  1.000000  1.000000  1.000000 ScalE2=  1.000000  1.000000
 IRadAn=      5 IRanWt=     -1 IRanGd=            0 ICorTp=0 IEmpDi=141
 NAtoms=    5 NActive=    5 NUniq=    2 SFac= 4.00D+00 NAtFMM=   60 NAOKFM=F Big=F
 Integral buffers will be    131072 words long.
 Raffenetti 2 integral format.
 Two-electron integral symmetry is turned on.
 R6Disp:  Grimme-D3(BJ) Dispersion energy=       -0.0013960840 Hartrees.
 Nuclear repulsion after empirical dispersion term =       13.3593183436 Hartrees.
 Leave Link  301 at Wed Oct  7 13:04:20 2020, MaxMem=  2684354560 cpu:               1.7 elap:               0.5
 (Enter /udrive/faculty/rpeverati/g16/g16/l302.exe)
 NPDir=0 NMtPBC=     1 NCelOv=     1 NCel=       1 NClECP=     1 NCelD=      1
         NCelK=      1 NCelE2=     1 NClLst=     1 CellRange=     0.0.
 One-electron integrals computed using PRISM.
 One-electron integral symmetry used in STVInt
 NBasis=    22 RedAO= T EigKep=  2.09D-02  NBF=     7     5     5     5
 NBsUse=    22 1.00D-06 EigRej= -1.00D+00 NBFU=     7     5     5     5
 Precomputing XC quadrature grid using
 IXCGrd= 4 IRadAn=           5 IRanWt=          -1 IRanGd=           0 AccXCQ= 0.00D+00.
 Generated NRdTot=       0 NPtTot=           0 NUsed=           0 NTot=          32
 NSgBfM=    23    23    23    23    23 MxSgAt=     5 MxSgA2=     5.
 Leave Link  302 at Wed Oct  7 13:04:21 2020, MaxMem=  2684354560 cpu:               3.5 elap:               0.5
 (Enter /udrive/faculty/rpeverati/g16/g16/l303.exe)
 DipDrv:  MaxL=1.
 Leave Link  303 at Wed Oct  7 13:04:22 2020, MaxMem=  2684354560 cpu:               1.4 elap:               0.4
 (Enter /udrive/faculty/rpeverati/g16/g16/l401.exe)
 Initial guess from the checkpoint file:  "MN_25_CH4_BH76_TPSSDBJ_631Gs.chk"
 SCF N**3 symmetry information disabled.
 B after Tr=     0.000000    0.000000    0.000000
         Rot=    1.000000    0.000000    0.000000    0.000000 Ang=   0.00 deg.
 Guess basis will be translated and rotated to current coordinates.
 JPrj=2 DoOrth=T DoCkMO=T.
 Initial guess orbital symmetries:
       Occupied  (A1) (A1) (T2) (T2) (T2)
       Virtual   (A1) (T2) (T2) (T2) (T2) (T2) (T2) (T2) (T2) (T2)
                 (A1) (A1) (E) (E) (T2) (T2) (T2)
 The electronic state of the initial guess is 1-A1.
 Leave Link  401 at Wed Oct  7 13:04:22 2020, MaxMem=  2684354560 cpu:               1.8 elap:               0.4
 (Enter /udrive/faculty/rpeverati/g16/g16/l502.exe)
 Keep J ints in memory in symmetry-blocked form, NReq=10386519.
 FoFCou: FMM=F IPFlag=           0 FMFlag=           0 FMFlg1=           0
         NFxFlg=           0 DoJE=F BraDBF=F KetDBF=F FulRan=T
         wScrn=  0.000000 ICntrl=       600 IOpCl=  0 I1Cent=           0 NGrid=           0
         NMat0=    1 NMatS0=    253 NMatT0=    0 NMatD0=    1 NMtDS0=    0 NMtDT0=    0
 Petite list used in FoFCou.
 Closed shell SCF:
 Using DIIS extrapolation, IDIIS=  1040.
 NGot=  2684354560 LenX=  2684343041 LenY=  2684342071
 Requested convergence on RMS density matrix=1.00D-08 within 120 cycles.
 Requested convergence on MAX density matrix=1.00D-06.
 Requested convergence on             energy=1.00D-06.
 No special actions if energy rises.

 Cycle   1  Pass 1  IDiag  1:
 E= -40.5237739111897    
 DIIS: error= 1.39D-03 at cycle   1 NSaved=   1.
 NSaved= 1 IEnMin= 1 EnMin= -40.5237739111897     IErMin= 1 ErrMin= 1.39D-03
 ErrMax= 1.39D-03  0.00D+00 EMaxC= 1.00D-01 BMatC= 3.19D-05 BMatP= 3.19D-05
 IDIUse=3 WtCom= 9.86D-01 WtEn= 1.39D-02
 Coeff-Com:  0.100D+01
 Coeff-En:   0.100D+01
 Coeff:      0.100D+01
 Gap=     0.455 Goal=   None    Shift=    0.000
 GapD=    0.455 DampG=2.000 DampE=1.000 DampFc=2.0000 IDamp=-1.
 RMSDP=4.47D-04 MaxDP=3.05D-03              OVMax= 3.76D-03

 Cycle   2  Pass 1  IDiag  1:
 E= -40.5237731520463     Delta-E=        0.000000759143 Rises=F Damp=F
 DIIS: error= 1.53D-03 at cycle   2 NSaved=   2.
 NSaved= 2 IEnMin= 1 EnMin= -40.5237739111897     IErMin= 1 ErrMin= 1.39D-03
 ErrMax= 1.53D-03  0.00D+00 EMaxC= 1.00D-01 BMatC= 3.81D-05 BMatP= 3.19D-05
 IDIUse=3 WtCom= 2.04D-01 WtEn= 7.96D-01
 Coeff-Com:  0.525D+00 0.475D+00
 Coeff-En:   0.505D+00 0.495D+00
 Coeff:      0.509D+00 0.491D+00
 Gap=     0.456 Goal=   None    Shift=    0.000
 RMSDP=2.62D-04 MaxDP=1.82D-03 DE= 7.59D-07 OVMax= 2.21D-03

 Cycle   3  Pass 1  IDiag  1:
 E= -40.5238135227937     Delta-E=       -0.000040370747 Rises=F Damp=F
 DIIS: error= 2.06D-04 at cycle   3 NSaved=   3.
 NSaved= 3 IEnMin= 3 EnMin= -40.5238135227937     IErMin= 3 ErrMin= 2.06D-04
 ErrMax= 2.06D-04  0.00D+00 EMaxC= 1.00D-01 BMatC= 7.67D-07 BMatP= 3.19D-05
 IDIUse=3 WtCom= 9.98D-01 WtEn= 2.06D-03
 Coeff-Com:  0.233D-01 0.135D+00 0.842D+00
 Coeff-En:   0.000D+00 0.000D+00 0.100D+01
 Coeff:      0.233D-01 0.134D+00 0.842D+00
 Gap=     0.456 Goal=   None    Shift=    0.000
 RMSDP=2.98D-05 MaxDP=2.25D-04 DE=-4.04D-05 OVMax= 2.67D-04

 Cycle   4  Pass 1  IDiag  1:
 E= -40.5238143251589     Delta-E=       -0.000000802365 Rises=F Damp=F
 DIIS: error= 1.33D-06 at cycle   4 NSaved=   4.
 NSaved= 4 IEnMin= 4 EnMin= -40.5238143251589     IErMin= 4 ErrMin= 1.33D-06
 ErrMax= 1.33D-06  0.00D+00 EMaxC= 1.00D-01 BMatC= 4.40D-11 BMatP= 7.67D-07
 IDIUse=1 WtCom= 1.00D+00 WtEn= 0.00D+00
 Coeff-Com: -0.365D-03 0.491D-02 0.346D-01 0.961D+00
 Coeff:     -0.365D-03 0.491D-02 0.346D-01 0.961D+00
 Gap=     0.456 Goal=   None    Shift=    0.000
 RMSDP=3.89D-07 MaxDP=1.92D-06 DE=-8.02D-07 OVMax= 2.92D-06

 Cycle   5  Pass 1  IDiag  1:
 E= -40.5238143252286     Delta-E=       -0.000000000070 Rises=F Damp=F
 DIIS: error= 6.36D-08 at cycle   5 NSaved=   5.
 NSaved= 5 IEnMin= 5 EnMin= -40.5238143252286     IErMin= 5 ErrMin= 6.36D-08
 ErrMax= 6.36D-08  0.00D+00 EMaxC= 1.00D-01 BMatC= 6.76D-14 BMatP= 4.40D-11
 IDIUse=1 WtCom= 1.00D+00 WtEn= 0.00D+00
 Coeff-Com:  0.698D-05-0.317D-03-0.190D-02-0.455D-01 0.105D+01
 Coeff:      0.698D-05-0.317D-03-0.190D-02-0.455D-01 0.105D+01
 Gap=     0.456 Goal=   None    Shift=    0.000
 RMSDP=9.18D-09 MaxDP=5.96D-08 DE=-6.96D-11 OVMax= 7.14D-08

 SCF Done:  E(RTPSS-TPSS) =  -40.5238143252     A.U. after    5 cycles
            NFock=  5  Conv=0.92D-08     -V/T= 2.0070
 KE= 4.024235847425D+01 PE=-1.199358232692D+02 EE= 2.581033212610D+01
 Leave Link  502 at Wed Oct  7 13:04:24 2020, MaxMem=  2684354560 cpu:               8.0 elap:               1.0
 (Enter /udrive/faculty/rpeverati/g16/g16/l508.exe)
 QCSCF skips out because SCF is already converged.
 Leave Link  508 at Wed Oct  7 13:04:24 2020, MaxMem=  2684354560 cpu:               0.3 elap:               0.3
 (Enter /udrive/faculty/rpeverati/g16/g16/l701.exe)
 ... and contract with generalized density number  0.
 Compute integral first derivatives.
 R6Disp: Adding Grimme-D3(BJ) dispersion energy 1st derivatives to the gradient.
 Leave Link  701 at Wed Oct  7 13:04:25 2020, MaxMem=  2684354560 cpu:               3.9 elap:               0.6
 (Enter /udrive/faculty/rpeverati/g16/g16/l702.exe)
 L702 exits ... SP integral derivatives will be done elsewhere.
 Leave Link  702 at Wed Oct  7 13:04:26 2020, MaxMem=  2684354560 cpu:               1.0 elap:               0.4
 (Enter /udrive/faculty/rpeverati/g16/g16/l703.exe)
 Integral derivatives from FoFJK, PRISM(SPDF).
 Compute integral first derivatives, UseDBF=F ICtDFT=           0.
 Calling FoFJK, ICntrl=      2527 FMM=F ISym2X=1 I1Cent= 0 IOpClX= 0 NMat=1 NMatS=1 NMatT=0.
 FoFJK:  IHMeth= 1 ICntrl=    2527 DoSepK=F KAlg= 0 I1Cent=           0 FoldK=F
 IRaf=         0 NMat=       1 IRICut=       1 DoRegI=T DoRafI=F ISym2E= 1 IDoP0=0 IntGTp=1.
 FoFCou: FMM=F IPFlag=           0 FMFlag=      100000 FMFlg1=         800
         NFxFlg=           0 DoJE=F BraDBF=F KetDBF=F FulRan=T
         wScrn=  0.000000 ICntrl=      2527 IOpCl=  0 I1Cent=           0 NGrid=           0
         NMat0=    1 NMatS0=      1 NMatT0=    0 NMatD0=    1 NMtDS0=    0 NMtDT0=    0
 Petite list used in FoFCou.
 Leave Link  703 at Wed Oct  7 13:04:27 2020, MaxMem=  2684354560 cpu:               4.8 elap:               0.7
 (Enter /udrive/faculty/rpeverati/g16/g16/l716.exe)
 Dipole        = 2.22044605D-16 0.00000000D+00 0.00000000D+00
 ***** Axes restored to original set *****
 -------------------------------------------------------------------
 Center     Atomic                   Forces (Hartrees/Bohr)
 Number     Number              X              Y              Z
 -------------------------------------------------------------------
      1        6           0.000000000    0.000000000    0.000000000
      2        1          -0.000055047   -0.000055047   -0.000055047
      3        1           0.000055047    0.000055047   -0.000055047
      4        1          -0.000055047    0.000055047    0.000055047
      5        1           0.000055047   -0.000055047    0.000055047
 -------------------------------------------------------------------
 Cartesian Forces:  Max     0.000055047 RMS     0.000049236
 Leave Link  716 at Wed Oct  7 13:04:27 2020, MaxMem=  2684354560 cpu:               2.0 elap:               0.6
 (Enter /udrive/faculty/rpeverati/g16/g16/l103.exe)

 GradGradGradGradGradGradGradGradGradGradGradGradGradGradGradGradGradGrad
 Berny optimization.
 Optmz: redundant internal coordinate code flag= 1
 Using GEDIIS/GDIIS optimizer.
 Red2BG:  D1=  6.99D-01 OD1=  2.36D-02 B2RMS=  0.00D+00 IAprox=0
 FormGI is forming the generalized inverse of G from B-inverse, IUseBI=4.
 Internal  Forces:  Max     0.000095345 RMS     0.000050964
 Search for a local minimum.
 Step number   2 out of a maximum of  100
 All quantities printed in internal units (Hartrees-Bohrs-Radians)
 RMS Force = .50964D-04 SwitMx=.10000D-02 MixMth= 2
 Mixed Optimization -- En-DIIS/RFO-DIIS
 Update second derivatives using D2CorX and points    1    2
 DE= -1.83D-04 DEPred=-1.88D-04 R= 9.74D-01
 TightC=F SS=  1.41D+00  RLast= 3.27D-02 DXNew= 5.0454D-01 9.8038D-02
 Trust test= 9.74D-01 RLast= 3.27D-02 DXMaxT set to 3.00D-01
 The second derivative matrix:
                          R1        R2        R3        R4        A1
           R1           0.35265
           R2           0.00155   0.35265
           R3           0.00155   0.00155   0.35265
           R4           0.00155   0.00155   0.00155   0.35265
           A1           0.00000   0.00000   0.00000   0.00000   0.16000
           A2          -0.00000  -0.00000  -0.00000  -0.00000  -0.00000
           A3          -0.00000  -0.00000  -0.00000  -0.00000  -0.00000
           A4          -0.00000  -0.00000  -0.00000  -0.00000  -0.00000
           A5          -0.00000  -0.00000  -0.00000  -0.00000  -0.00000
           A6           0.00000   0.00000   0.00000   0.00000   0.00000
           D1           0.00000   0.00000   0.00000   0.00000   0.00000
           D2          -0.00000  -0.00000  -0.00000  -0.00000  -0.00000
           D3          -0.00000  -0.00000  -0.00000  -0.00000  -0.00000
           D4           0.00000   0.00000   0.00000   0.00000   0.00000
                          A2        A3        A4        A5        A6
           A2           0.16000
           A3           0.00000   0.16000
           A4           0.00000   0.00000   0.16000
           A5           0.00000   0.00000   0.00000   0.16000
           A6          -0.00000  -0.00000  -0.00000  -0.00000   0.16000
           D1          -0.00000  -0.00000  -0.00000  -0.00000   0.00000
           D2           0.00000   0.00000   0.00000   0.00000  -0.00000
           D3           0.00000   0.00000   0.00000   0.00000  -0.00000
           D4          -0.00000  -0.00000  -0.00000  -0.00000   0.00000
                          D1        D2        D3        D4
           D1           0.00269
           D2          -0.00000   0.00269
           D3          -0.00000   0.00000   0.00269
           D4           0.00000  -0.00000  -0.00000   0.00269
 ITU=  1  0
 Use linear search instead of GDIIS.
 Eigenvectors of the second derivative matrix:
                           1         2         3         4         5
     Eigenvalues --     0.05109   0.05740   0.08659   0.16000   0.16000
   1         R1         0.00000   0.00000   0.00000   0.00000   0.00000
   2         R2         0.00000   0.00000   0.00000   0.00000   0.00000
   3         R3         0.00000   0.00000   0.00000   0.00000   0.00000
   4         R4         0.00000   0.00000   0.00000   0.00000   0.00000
   5         A1        -0.47305   0.00000  -0.13591  -0.26640  -0.02148
   6         A2         0.11826   0.37300  -0.33976   0.24098   0.33669
   7         A3        -0.00000   0.18650   0.37374   0.31723  -0.60893
   8         A4         0.11826  -0.37300  -0.33976   0.29181  -0.29372
   9         A5        -0.00000  -0.18650   0.37374   0.21556   0.65189
  10         A6         0.23652  -0.00000   0.06795  -0.79919  -0.06445
  11         D1        -0.43452   0.00000  -0.58258   0.00000   0.00000
  12         D2         0.57937  -0.00000  -0.29129  -0.00000   0.00000
  13         D3         0.28968   0.57104  -0.14564  -0.00000  -0.00000
  14         D4        -0.28968   0.57104   0.14564   0.00000  -0.00000
                           6         7         8         9
     Eigenvalues --     0.35110   0.35110   0.35110   0.35731
   1         R1         0.54001  -0.62618  -0.25747  -0.50000
   2         R2        -0.54050  -0.31345   0.59968  -0.50000
   3         R3         0.45646   0.65448   0.33661  -0.50000
   4         R4        -0.45596   0.28515  -0.67881  -0.50000
   5         A1        -0.00000   0.00000  -0.00000  -0.00000
   6         A2        -0.00000   0.00000   0.00000   0.00000
   7         A3         0.00000  -0.00000  -0.00000   0.00000
   8         A4         0.00000  -0.00000  -0.00000   0.00000
   9         A5        -0.00000   0.00000   0.00000   0.00000
  10         A6        -0.00000  -0.00000   0.00000  -0.00000
  11         D1        -0.00000   0.00000  -0.00000  -0.00000
  12         D2         0.00000  -0.00000  -0.00000   0.00000
  13         D3         0.00000  -0.00000   0.00000   0.00000
  14         D4        -0.00000   0.00000   0.00000  -0.00000
 Iter=   1 RLamda= 0.00000000D+00 Sum=-4.24058930D-29.
 RFO step:  Lambda= 0.00000000D+00 EMin= 5.10904457D-02
 Quartic linear search produced a step of -0.01672.
 Iteration  1 RMS(Cart)=  0.00014604 RMS(Int)=  0.00000000
 Iteration  2 RMS(Cart)=  0.00000000 RMS(Int)=  0.00000000
 ITry= 1 IFail=0 DXMaxC= 1.58D-04 DCOld= 1.00D+10 DXMaxT= 3.00D-01 DXLimC= 3.00D+00 Rises=F
 ClnCor:  largest displacement from symmetrization is 1.04D-14 for atom     2.
 Variable       Old X    -DE/DX   Delta X   Delta X   Delta X     New X
                                 (Linear)    (Quad)   (Total)
    R1        2.07131  -0.00010  -0.00027  -0.00000  -0.00027   2.07104
    R2        2.07131  -0.00010  -0.00027  -0.00000  -0.00027   2.07104
    R3        2.07131  -0.00010  -0.00027   0.00000  -0.00027   2.07104
    R4        2.07131  -0.00010  -0.00027   0.00000  -0.00027   2.07104
    A1        1.91063  -0.00000   0.00000  -0.00000  -0.00000   1.91063
    A2        1.91063   0.00000   0.00000   0.00000   0.00000   1.91063
    A3        1.91063   0.00000   0.00000   0.00000  -0.00000   1.91063
    A4        1.91063   0.00000   0.00000  -0.00000  -0.00000   1.91063
    A5        1.91063   0.00000   0.00000   0.00000   0.00000   1.91063
    A6        1.91063  -0.00000   0.00000  -0.00000  -0.00000   1.91063
    D1        2.09440  -0.00000   0.00000  -0.00000   0.00000   2.09440
    D2       -2.09440  -0.00000   0.00000   0.00000   0.00000  -2.09440
    D3        2.09440   0.00000   0.00000   0.00000   0.00000   2.09440
    D4       -2.09440   0.00000   0.00000   0.00000   0.00000  -2.09440
         Item               Value     Threshold  Converged?
 Maximum Force            0.000095     0.000450     YES
 RMS     Force            0.000051     0.000300     YES
 Maximum Displacement     0.000158     0.001800     YES
 RMS     Displacement     0.000146     0.001200     YES
 Predicted change in Energy=-5.085519D-08
 Optimization completed.
    -- Stationary point found.
                           ----------------------------
                           !   Optimized Parameters   !
                           ! (Angstroms and Degrees)  !
 --------------------------                            --------------------------
 ! Name  Definition              Value          Derivative Info.                !
 --------------------------------------------------------------------------------
 ! R1    R(1,2)                  1.0961         -DE/DX =   -0.0001              !
 ! R2    R(1,3)                  1.0961         -DE/DX =   -0.0001              !
 ! R3    R(1,4)                  1.0961         -DE/DX =   -0.0001              !
 ! R4    R(1,5)                  1.0961         -DE/DX =   -0.0001              !
 ! A1    A(2,1,3)              109.4712         -DE/DX =    0.0                 !
 ! A2    A(2,1,4)              109.4712         -DE/DX =    0.0                 !
 ! A3    A(2,1,5)              109.4712         -DE/DX =    0.0                 !
 ! A4    A(3,1,4)              109.4712         -DE/DX =    0.0                 !
 ! A5    A(3,1,5)              109.4712         -DE/DX =    0.0                 !
 ! A6    A(4,1,5)              109.4712         -DE/DX =    0.0                 !
 ! D1    D(2,1,4,3)            120.0            -DE/DX =    0.0                 !
 ! D2    D(2,1,5,3)           -120.0            -DE/DX =    0.0                 !
 ! D3    D(2,1,5,4)            120.0            -DE/DX =    0.0                 !
 ! D4    D(3,1,5,4)           -120.0            -DE/DX =    0.0                 !
 --------------------------------------------------------------------------------
 Lowest energy point so far.  Saving SCF results.
 Largest change from initial coordinates is atom    2       0.009 Angstoms.
 GradGradGradGradGradGradGradGradGradGradGradGradGradGradGradGradGradGrad

 Leave Link  103 at Wed Oct  7 13:04:28 2020, MaxMem=  2684354560 cpu:               1.5 elap:               0.4
 (Enter /udrive/faculty/rpeverati/g16/g16/l202.exe)
                          Input orientation:                          
 ---------------------------------------------------------------------
 Center     Atomic      Atomic             Coordinates (Angstroms)
 Number     Number       Type             X           Y           Z
 ---------------------------------------------------------------------
      1          6           0        0.000000    0.000000    0.000000
      2          1           0        0.632829    0.632829    0.632829
      3          1           0       -0.632829   -0.632829    0.632829
      4          1           0        0.632829   -0.632829   -0.632829
      5          1           0       -0.632829    0.632829   -0.632829
 ---------------------------------------------------------------------
                    Distance matrix (angstroms):
                    1          2          3          4          5
     1  C    0.000000
     2  H    1.096092   0.000000
     3  H    1.096092   1.789911   0.000000
     4  H    1.096092   1.789911   1.789911   0.000000
     5  H    1.096092   1.789911   1.789911   1.789911   0.000000
 Stoichiometry    CH4
 Framework group  TD[O(C),4C3(H)]
 Deg. of freedom     1
 Full point group                 TD      NOp  24
 RotChk:  IX=0 Diff= 3.68D-16
 Largest Abelian subgroup         D2      NOp   4
 Largest concise Abelian subgroup D2      NOp   4
                         Standard orientation:                         
 ---------------------------------------------------------------------
 Center     Atomic      Atomic             Coordinates (Angstroms)
 Number     Number       Type             X           Y           Z
 ---------------------------------------------------------------------
      1          6           0        0.000000    0.000000    0.000000
      2          1           0        0.632829    0.632829    0.632829
      3          1           0       -0.632829   -0.632829    0.632829
      4          1           0        0.632829   -0.632829   -0.632829
      5          1           0       -0.632829    0.632829   -0.632829
 ---------------------------------------------------------------------
 Rotational constants (GHZ):         156.5197640         156.5197640         156.5197640
 Leave Link  202 at Wed Oct  7 13:04:29 2020, MaxMem=  2684354560 cpu:               0.9 elap:               0.4
 (Enter /udrive/faculty/rpeverati/g16/g16/l601.exe)
 Copying SCF densities to generalized density rwf, IOpCl= 0 IROHF=0.

 **********************************************************************

            Population analysis using the SCF density.

 **********************************************************************

 Orbital symmetries:
       Occupied  (A1) (A1) (T2) (T2) (T2)
       Virtual   (A1) (T2) (T2) (T2) (T2) (T2) (T2) (T2) (T2) (T2)
                 (A1) (A1) (E) (E) (T2) (T2) (T2)
 The electronic state is 1-A1.
 Alpha  occ. eigenvalues --   -9.97584  -0.63723  -0.34885  -0.34885  -0.34885
 Alpha virt. eigenvalues --    0.10747   0.16109   0.16109   0.16109   0.52165
 Alpha virt. eigenvalues --    0.52165   0.52165   0.88351   0.88351   0.88351
 Alpha virt. eigenvalues --    0.94350   1.09693   1.62991   1.62991   2.24784
 Alpha virt. eigenvalues --    2.24784   2.24784
          Condensed to atoms (all electrons):
               1          2          3          4          5
     1  C    5.122388   0.381542   0.381542   0.381542   0.381542
     2  H    0.381542   0.536953  -0.026878  -0.026878  -0.026878
     3  H    0.381542  -0.026878   0.536953  -0.026878  -0.026878
     4  H    0.381542  -0.026878  -0.026878   0.536953  -0.026878
     5  H    0.381542  -0.026878  -0.026878  -0.026878   0.536953
 Mulliken charges:
               1
     1  C   -0.648556
     2  H    0.162139
     3  H    0.162139
     4  H    0.162139
     5  H    0.162139
 Sum of Mulliken charges =   0.00000
 Mulliken charges with hydrogens summed into heavy atoms:
               1
     1  C    0.000000
 Electronic spatial extent (au):  <R**2>=             35.5420
 Charge=             -0.0000 electrons
 Dipole moment (field-independent basis, Debye):
    X=              0.0000    Y=             -0.0000    Z=              0.0000  Tot=              0.0000
 Quadrupole moment (field-independent basis, Debye-Ang):
   XX=             -8.2409   YY=             -8.2409   ZZ=             -8.2409
   XY=             -0.0000   XZ=             -0.0000   YZ=             -0.0000
 Traceless Quadrupole moment (field-independent basis, Debye-Ang):
   XX=              0.0000   YY=              0.0000   ZZ=              0.0000
   XY=             -0.0000   XZ=             -0.0000   YZ=             -0.0000
 Octapole moment (field-independent basis, Debye-Ang**2):
  XXX=              0.0000  YYY=              0.0000  ZZZ=             -0.0000  XYY=              0.0000
  XXY=             -0.0000  XXZ=              0.0000  XZZ=              0.0000  YZZ=              0.0000
  YYZ=             -0.0000  XYZ=              0.6759
 Hexadecapole moment (field-independent basis, Debye-Ang**3):
 XXXX=            -15.6906 YYYY=            -15.6906 ZZZZ=            -15.6906 XXXY=              0.0000
 XXXZ=             -0.0000 YYYX=             -0.0000 YYYZ=              0.0000 ZZZX=             -0.0000
 ZZZY=              0.0000 XXYY=             -4.7820 XXZZ=             -4.7820 YYZZ=             -4.7820
 XXYZ=             -0.0000 YYXZ=             -0.0000 ZZXY=              0.0000
 N-N= 1.335931834359D+01 E-N=-1.199358245628D+02  KE= 4.024235847425D+01
 No NMR shielding tensors so no spin-rotation constants.
 Leave Link  601 at Wed Oct  7 13:04:30 2020, MaxMem=  2684354560 cpu:               3.3 elap:               0.7
 (Enter /udrive/faculty/rpeverati/g16/g16/l9999.exe)

 Test job not archived.
 1\1\GINC-NODE20\FOpt\RTPSSTPSS\6-31G(d)\C1H4\RPEVERATI\07-Oct-2020\0\\
 #P Opt(MaxCyc=100) TPSSTPSS/6-31G* 5D 7F Integral=UltraFineGrid SCF=(N
 oSymm,XQC,MaxCyc=120) EmpiricalDispersion=GD3BJ IOp(1/33=1)\\TS search
  on BH76.\\0,1\C,0.,0.,0.\H,0.6328291015,0.6328291015,0.6328291015\H,-
 0.6328291015,-0.6328291015,0.6328291015\H,0.6328291015,-0.6328291015,-
 0.6328291015\H,-0.6328291015,0.6328291015,-0.6328291015\\Version=ES64L
 -G16RevA.03\State=1-A1\HF=-40.5238143\RMSD=9.177e-09\RMSF=4.924e-05\Di
 pole=0.,0.,0.\Quadrupole=0.,0.,0.,0.,0.,0.\PG=TD [O(C1),4C3(H1)]\\@


 Life may have no meaning.  Or even worse, it may have a
 meaning of which I disapprove.
                                 -- Ashleigh Brilliant
 Job cpu time:       0 days  0 hours  1 minutes 40.7 seconds.
 Elapsed time:       0 days  0 hours  0 minutes 18.2 seconds.
 File lengths (MBytes):  RWF=      5 Int=      0 D2E=      0 Chk=      1 Scr=      1
 Normal termination of Gaussian 16 at Wed Oct  7 13:04:31 2020.
