 Entering Gaussian System, Link 0=g16
 Input=MN_23_ch3oh_lower_BH76_TPSSDBJ_631Gs.in
 Output=MN_23_ch3oh_lower_BH76_TPSSDBJ_631Gs.log
 Initial command:
 /udrive/faculty/rpeverati/g16/g16/l1.exe "/udrive/scratch-directories/gaussian09/rpeverati/Gau-36896.inp" -scrdir="/udrive/scratch-directories/gaussian09/rpeverati/"
 Entering Link 1 = /udrive/faculty/rpeverati/g16/g16/l1.exe PID=     36897.
  
 Copyright (c) 1988,1990,1992,1993,1995,1998,2003,2009,2016,
            Gaussian, Inc.  All Rights Reserved.
  
 This is part of the Gaussian(R) 16 program.  It is based on
 the Gaussian(R) 09 system (copyright 2009, Gaussian, Inc.),
 the Gaussian(R) 03 system (copyright 2003, Gaussian, Inc.),
 the Gaussian(R) 98 system (copyright 1998, Gaussian, Inc.),
 the Gaussian(R) 94 system (copyright 1995, Gaussian, Inc.),
 the Gaussian 92(TM) system (copyright 1992, Gaussian, Inc.),
 the Gaussian 90(TM) system (copyright 1990, Gaussian, Inc.),
 the Gaussian 88(TM) system (copyright 1988, Gaussian, Inc.),
 the Gaussian 86(TM) system (copyright 1986, Carnegie Mellon
 University), and the Gaussian 82(TM) system (copyright 1983,
 Carnegie Mellon University). Gaussian is a federally registered
 trademark of Gaussian, Inc.
  
 This software contains proprietary and confidential information,
 including trade secrets, belonging to Gaussian, Inc.
  
 This software is provided under written license and may be
 used, copied, transmitted, or stored only in accord with that
 written license.
  
 The following legend is applicable only to US Government
 contracts under FAR:
  
                    RESTRICTED RIGHTS LEGEND
  
 Use, reproduction and disclosure by the US Government is
 subject to restrictions as set forth in subparagraphs (a)
 and (c) of the Commercial Computer Software - Restricted
 Rights clause in FAR 52.227-19.
  
 Gaussian, Inc.
 340 Quinnipiac St., Bldg. 40, Wallingford CT 06492
  
  
 ---------------------------------------------------------------
 Warning -- This program may not be used in any manner that
 competes with the business of Gaussian, Inc. or will provide
 assistance to any competitor of Gaussian, Inc.  The licensee
 of this program is prohibited from giving any competitor of
 Gaussian, Inc. access to this program.  By using this program,
 the user acknowledges that Gaussian, Inc. is engaged in the
 business of creating and licensing software in the field of
 computational chemistry and represents and warrants to the
 licensee that it is not a competitor of Gaussian, Inc. and that
 it will not use this program in any manner prohibited above.
 ---------------------------------------------------------------
  

 Cite this work as:
 Gaussian 16, Revision A.03,
 M. J. Frisch, G. W. Trucks, H. B. Schlegel, G. E. Scuseria, 
 M. A. Robb, J. R. Cheeseman, G. Scalmani, V. Barone, 
 G. A. Petersson, H. Nakatsuji, X. Li, M. Caricato, A. V. Marenich, 
 J. Bloino, B. G. Janesko, R. Gomperts, B. Mennucci, H. P. Hratchian, 
 J. V. Ortiz, A. F. Izmaylov, J. L. Sonnenberg, D. Williams-Young, 
 F. Ding, F. Lipparini, F. Egidi, J. Goings, B. Peng, A. Petrone, 
 T. Henderson, D. Ranasinghe, V. G. Zakrzewski, J. Gao, N. Rega, 
 G. Zheng, W. Liang, M. Hada, M. Ehara, K. Toyota, R. Fukuda, 
 J. Hasegawa, M. Ishida, T. Nakajima, Y. Honda, O. Kitao, H. Nakai, 
 T. Vreven, K. Throssell, J. A. Montgomery, Jr., J. E. Peralta, 
 F. Ogliaro, M. J. Bearpark, J. J. Heyd, E. N. Brothers, K. N. Kudin, 
 V. N. Staroverov, T. A. Keith, R. Kobayashi, J. Normand, 
 K. Raghavachari, A. P. Rendell, J. C. Burant, S. S. Iyengar, 
 J. Tomasi, M. Cossi, J. M. Millam, M. Klene, C. Adamo, R. Cammi, 
 J. W. Ochterski, R. L. Martin, K. Morokuma, O. Farkas, 
 J. B. Foresman, and D. J. Fox, Gaussian, Inc., Wallingford CT, 2016.
 
 ******************************************
 Gaussian 16:  ES64L-G16RevA.03 25-Dec-2016
                 7-Oct-2020 
 ******************************************
 %NoSave
 %nproc=12
 Will use up to   12 processors via shared memory.
 %mem=20GB
 %chk=MN_23_ch3oh_lower_BH76_TPSSDBJ_631Gs
 ----------------------------------------------------------------------
 #P Opt(MaxCyc=100) TPSSTPSS/6-31G* 5D 7F Integral=UltraFineGrid SCF=(N
 oSymm,XQC,MaxCyc=120) EmpiricalDispersion=GD3BJ IOp(1/33=1)
 ----------------------------------------------------------------------
 1/6=100,18=20,19=15,26=4,33=1,38=1/1,3;
 2/9=110,12=2,17=6,18=5,40=1/2;
 3/5=1,6=6,7=1,8=11,11=2,25=1,30=1,71=1,74=2523,75=-5,124=41/1,2,3;
 4/9=2/1;
 5/5=2,7=120,8=3,13=1,38=5/2,8;
 6/7=2,8=2,9=2,10=2,28=1/1;
 7//1,2,3,16;
 1/6=100,18=20,19=15,26=4,33=1/3(2);
 2/9=110/2;
 99//99;
 2/9=110/2;
 3/5=1,6=6,7=1,8=11,11=2,25=1,30=1,71=1,74=2523,75=-5,124=41/1,2,3;
 4/5=5,9=2,16=3,69=1/1;
 5/5=2,7=120,8=3,13=1,38=5/2,8;
 7//1,2,3,16;
 1/6=100,18=20,19=15,26=4,33=1/3(-5);
 2/9=110/2;
 6/7=2,8=2,9=2,10=2,19=2,28=1/1;
 99/9=1/99;
 Leave Link    1 at Wed Oct  7 13:03:56 2020, MaxMem=  2684354560 cpu:               9.3 elap:               0.9
 (Enter /udrive/faculty/rpeverati/g16/g16/l101.exe)
 ONIOM data not found on unit 2.
 ------------------
 TS search on BH76.
 ------------------
 TstMul:  ICh=     0
 TstMul:  Mul=     1
 TstMul:  ICh=     0
 TstMul:  Mul=     1
 Symbolic Z-matrix:
 Charge =  0 Multiplicity = 1
 C                    -0.04642   0.66307   0. 
 O                    -0.04642  -0.75506   0. 
 H                    -1.08696   0.97594   0. 
 H                     0.86059  -1.05704   0. 
 H                     0.43814   1.07159   0.88954 
 H                     0.43814   1.07159  -0.88954 
 
 RdStrC is calling ZToCFu for IStruc=1 NZ=     6.
 PrtBox:  NBox=     1 Levels=  1 BoxLen=    8.00 SMaxX=        4.02
          Shift=            2.054050            1.997520            1.680990
 Box      1 Number                   0 centers from      1 to      6:
 After GenITR:
 ITRead=  0  0  0  0  0  0
 MicOpt= -1 -1 -1 -1 -1 -1
 ITRead=  0  0  0  0  0  0
 MicOpt= -1 -1 -1 -1 -1 -1
 NAtoms=      6 NQM=        6 NQMF=       0 NMMI=      0 NMMIF=      0
                NMic=       0 NMicF=      0.
                    Isotopes and Nuclear Properties:
 (Nuclear quadrupole moments (NQMom) in fm**2, nuclear magnetic moments (NMagM)
  in nuclear magnetons)

  Atom         1           2           3           4           5           6
 IAtWgt=          12          16           1           1           1           1
 AtmWgt=  12.0000000  15.9949146   1.0078250   1.0078250   1.0078250   1.0078250
 NucSpn=           0           0           1           1           1           1
 AtZEff=   0.0000000   0.0000000   0.0000000   0.0000000   0.0000000   0.0000000
 NQMom=    0.0000000   0.0000000   0.0000000   0.0000000   0.0000000   0.0000000
 NMagM=    0.0000000   0.0000000   2.7928460   2.7928460   2.7928460   2.7928460
 AtZNuc=   6.0000000   8.0000000   1.0000000   1.0000000   1.0000000   1.0000000
 No MM parameters found.
 Leave Link  101 at Wed Oct  7 13:03:58 2020, MaxMem=  2684354560 cpu:              13.5 elap:               1.4
 (Enter /udrive/faculty/rpeverati/g16/g16/l103.exe)

 GradGradGradGradGradGradGradGradGradGradGradGradGradGradGradGradGradGrad
 Berny optimization.
 Optmz: redundant internal coordinate code flag= 1
 Initialization pass.
                           ----------------------------
                           !    Initial Parameters    !
                           ! (Angstroms and Degrees)  !
 --------------------------                            --------------------------
 ! Name  Definition              Value          Derivative Info.                !
 --------------------------------------------------------------------------------
 ! R1    R(1,2)                  1.4181         estimate D2E/DX2                !
 ! R2    R(1,3)                  1.0866         estimate D2E/DX2                !
 ! R3    R(1,5)                  1.0922         estimate D2E/DX2                !
 ! R4    R(1,6)                  1.0922         estimate D2E/DX2                !
 ! R5    R(2,4)                  0.956          estimate D2E/DX2                !
 ! A1    A(2,1,3)              106.7351         estimate D2E/DX2                !
 ! A2    A(2,1,5)              111.9641         estimate D2E/DX2                !
 ! A3    A(2,1,6)              111.9641         estimate D2E/DX2                !
 ! A4    A(3,1,5)              108.4911         estimate D2E/DX2                !
 ! A5    A(3,1,6)              108.4911         estimate D2E/DX2                !
 ! A6    A(5,1,6)              109.0604         estimate D2E/DX2                !
 ! A7    A(1,2,4)              108.4146         estimate D2E/DX2                !
 ! D1    D(3,1,2,4)            180.0            estimate D2E/DX2                !
 ! D2    D(5,1,2,4)            -61.4211         estimate D2E/DX2                !
 ! D3    D(6,1,2,4)             61.4211         estimate D2E/DX2                !
 --------------------------------------------------------------------------------
 Maximum allowed force set to 1.00D+20.
 Trust Radius=3.00D-01 FncErr=1.00D-07 GrdErr=1.00D-06 EigMax=2.50D+02 EigMin=1.00D-04
 Number of steps in this run=    100 maximum allowed number of steps=    100.
 GradGradGradGradGradGradGradGradGradGradGradGradGradGradGradGradGradGrad

 Leave Link  103 at Wed Oct  7 13:04:00 2020, MaxMem=  2684354560 cpu:               3.2 elap:               0.8
 (Enter /udrive/faculty/rpeverati/g16/g16/l202.exe)
                          Input orientation:                          
 ---------------------------------------------------------------------
 Center     Atomic      Atomic             Coordinates (Angstroms)
 Number     Number       Type             X           Y           Z
 ---------------------------------------------------------------------
      1          6           0       -0.046423    0.663070    0.000000
      2          8           0       -0.046423   -0.755062    0.000000
      3          1           0       -1.086956    0.975940    0.000000
      4          1           0        0.860590   -1.057042    0.000000
      5          1           0        0.438145    1.071594    0.889542
      6          1           0        0.438145    1.071594   -0.889542
 ---------------------------------------------------------------------
                    Distance matrix (angstroms):
                    1          2          3          4          5
     1  C    0.000000
     2  O    1.418131   0.000000
     3  H    1.086553   2.019673   0.000000
     4  H    1.944597   0.955963   2.815307   0.000000
     5  H    1.092238   2.088723   1.768154   2.345386   0.000000
     6  H    1.092238   2.088723   1.768154   2.345386   1.779083
                    6
     6  H    0.000000
 Stoichiometry    CH4O
 Framework group  CS[SG(CH2O),X(H2)]
 Deg. of freedom     8
 Full point group                 CS      NOp   2
 Largest Abelian subgroup         CS      NOp   2
 Largest concise Abelian subgroup CS      NOp   2
                         Standard orientation:                         
 ---------------------------------------------------------------------
 Center     Atomic      Atomic             Coordinates (Angstroms)
 Number     Number       Type             X           Y           Z
 ---------------------------------------------------------------------
      1          6           0       -0.046423    0.663069    0.000000
      2          8           0       -0.046423   -0.755062    0.000000
      3          1           0       -1.086957    0.975940    0.000000
      4          1           0        0.860590   -1.057043    0.000000
      5          1           0        0.438145    1.071594    0.889542
      6          1           0        0.438145    1.071594   -0.889542
 ---------------------------------------------------------------------
 Rotational constants (GHZ):         128.9894271          24.8848955          24.0236274
 Leave Link  202 at Wed Oct  7 13:04:00 2020, MaxMem=  2684354560 cpu:               1.4 elap:               0.6
 (Enter /udrive/faculty/rpeverati/g16/g16/l301.exe)
 Standard basis: 6-31G(d) (5D, 7F)
 Ernie: Thresh=  0.10000D-02 Tol=  0.10000D-05 Strict=F.
 There are    28 symmetry adapted cartesian basis functions of A'  symmetry.
 There are    10 symmetry adapted cartesian basis functions of A"  symmetry.
 There are    26 symmetry adapted basis functions of A'  symmetry.
 There are    10 symmetry adapted basis functions of A"  symmetry.
    36 basis functions,    72 primitive gaussians,    38 cartesian basis functions
     9 alpha electrons        9 beta electrons
       nuclear repulsion energy        40.3933629809 Hartrees.
 IExCor= 2523 DFT=T Ex=TPSS Corr=TPSS ExCW=0 ScaHFX=  0.000000
 ScaDFX=  1.000000  1.000000  1.000000  1.000000 ScalE2=  1.000000  1.000000
 IRadAn=      5 IRanWt=     -1 IRanGd=            0 ICorTp=0 IEmpDi=141
 NAtoms=    6 NActive=    6 NUniq=    5 SFac= 1.44D+00 NAtFMM=   60 NAOKFM=F Big=F
 Integral buffers will be    131072 words long.
 Raffenetti 2 integral format.
 Two-electron integral symmetry is turned on.
 R6Disp:  Grimme-D3(BJ) Dispersion energy=       -0.0022665047 Hartrees.
 Nuclear repulsion after empirical dispersion term =       40.3910964762 Hartrees.
 Leave Link  301 at Wed Oct  7 13:04:01 2020, MaxMem=  2684354560 cpu:               2.2 elap:               0.7
 (Enter /udrive/faculty/rpeverati/g16/g16/l302.exe)
 NPDir=0 NMtPBC=     1 NCelOv=     1 NCel=       1 NClECP=     1 NCelD=      1
         NCelK=      1 NCelE2=     1 NClLst=     1 CellRange=     0.0.
 One-electron integrals computed using PRISM.
 One-electron integral symmetry used in STVInt
 NBasis=    36 RedAO= T EigKep=  1.46D-02  NBF=    26    10
 NBsUse=    36 1.00D-06 EigRej= -1.00D+00 NBFU=    26    10
 Precomputing XC quadrature grid using
 IXCGrd= 4 IRadAn=           5 IRanWt=          -1 IRanGd=           0 AccXCQ= 0.00D+00.
 Generated NRdTot=       0 NPtTot=           0 NUsed=           0 NTot=          32
 NSgBfM=    38    38    38    38    38 MxSgAt=     6 MxSgA2=     6.
 Leave Link  302 at Wed Oct  7 13:04:02 2020, MaxMem=  2684354560 cpu:               3.4 elap:               0.6
 (Enter /udrive/faculty/rpeverati/g16/g16/l303.exe)
 DipDrv:  MaxL=1.
 Leave Link  303 at Wed Oct  7 13:04:03 2020, MaxMem=  2684354560 cpu:               2.0 elap:               0.5
 (Enter /udrive/faculty/rpeverati/g16/g16/l401.exe)
 SCF N**3 symmetry information disabled.
 ExpMin= 1.61D-01 ExpMax= 5.48D+03 ExpMxC= 8.25D+02 IAcc=3 IRadAn=         5 AccDes= 0.00D+00
 Harris functional with IExCor= 1009 and IRadAn=       5 diagonalized for initial guess.
 HarFok:  IExCor= 1009 AccDes= 0.00D+00 IRadAn=         5 IDoV= 1 UseB2=F ITyADJ=14
 ICtDFT=  3500011 ScaDFX=  1.000000  1.000000  1.000000  1.000000
 FoFCou: FMM=F IPFlag=           0 FMFlag=      100000 FMFlg1=           0
         NFxFlg=           0 DoJE=T BraDBF=F KetDBF=T FulRan=T
         wScrn=  0.000000 ICntrl=       500 IOpCl=  0 I1Cent=   200000004 NGrid=           0
         NMat0=    1 NMatS0=      1 NMatT0=    0 NMatD0=    1 NMtDS0=    0 NMtDT0=    0
 Petite list used in FoFCou.
 Harris En= -115.633209412581    
 JPrj=0 DoOrth=F DoCkMO=F.
 Initial guess orbital symmetries:
       Occupied  (A') (A') (A') (A') (A') (A") (A') (A') (A")
       Virtual   (A') (A') (A') (A") (A') (A') (A") (A') (A') (A")
                 (A') (A') (A") (A') (A') (A') (A") (A') (A') (A")
                 (A') (A') (A") (A') (A") (A') (A')
 The electronic state of the initial guess is 1-A'.
 Leave Link  401 at Wed Oct  7 13:04:04 2020, MaxMem=  2684354560 cpu:               5.2 elap:               0.8
 (Enter /udrive/faculty/rpeverati/g16/g16/l502.exe)
 Keep J ints in memory in symmetry-blocked form, NReq=10588067.
 FoFCou: FMM=F IPFlag=           0 FMFlag=           0 FMFlg1=           0
         NFxFlg=           0 DoJE=F BraDBF=F KetDBF=F FulRan=T
         wScrn=  0.000000 ICntrl=       600 IOpCl=  0 I1Cent=           0 NGrid=           0
         NMat0=    1 NMatS0=    666 NMatT0=    0 NMatD0=    1 NMtDS0=    0 NMtDT0=    0
 Petite list used in FoFCou.
 Closed shell SCF:
 Using DIIS extrapolation, IDIIS=  1040.
 NGot=  2684354560 LenX=  2684232161 LenY=  2684230276
 Requested convergence on RMS density matrix=1.00D-08 within 120 cycles.
 Requested convergence on MAX density matrix=1.00D-06.
 Requested convergence on             energy=1.00D-06.
 No special actions if energy rises.
 Integral accuracy reduced to 1.0D-05 until final iterations.

 Cycle   1  Pass 0  IDiag  1:
 E= -115.654689740629    
 DIIS: error= 4.47D-02 at cycle   1 NSaved=   1.
 NSaved= 1 IEnMin= 1 EnMin= -115.654689740629     IErMin= 1 ErrMin= 4.47D-02
 ErrMax= 4.47D-02  0.00D+00 EMaxC= 1.00D-01 BMatC= 7.48D-02 BMatP= 7.48D-02
 IDIUse=3 WtCom= 5.53D-01 WtEn= 4.47D-01
 Coeff-Com:  0.100D+01
 Coeff-En:   0.100D+01
 Coeff:      0.100D+01
 Gap=     0.225 Goal=   None    Shift=    0.000
 GapD=    0.225 DampG=1.000 DampE=0.500 DampFc=0.5000 IDamp=-1.
 Damping current iteration by 5.00D-01
 RMSDP=1.82D-02 MaxDP=1.46D-01              OVMax= 1.57D-01

 Cycle   2  Pass 0  IDiag  1:
 E= -115.678161289899     Delta-E=       -0.023471549270 Rises=F Damp=T
 DIIS: error= 1.11D-02 at cycle   2 NSaved=   2.
 NSaved= 2 IEnMin= 2 EnMin= -115.678161289899     IErMin= 2 ErrMin= 1.11D-02
 ErrMax= 1.11D-02  0.00D+00 EMaxC= 1.00D-01 BMatC= 7.37D-03 BMatP= 7.48D-02
 IDIUse=3 WtCom= 8.89D-01 WtEn= 1.11D-01
 Coeff-Com:  0.199D+00 0.801D+00
 Coeff-En:   0.302D+00 0.698D+00
 Coeff:      0.211D+00 0.789D+00
 Gap=     0.282 Goal=   None    Shift=    0.000
 RMSDP=3.08D-03 MaxDP=2.34D-02 DE=-2.35D-02 OVMax= 1.02D-01

 Cycle   3  Pass 0  IDiag  1:
 E= -115.723864532224     Delta-E=       -0.045703242326 Rises=F Damp=F
 DIIS: error= 6.95D-03 at cycle   3 NSaved=   3.
 NSaved= 3 IEnMin= 3 EnMin= -115.723864532224     IErMin= 3 ErrMin= 6.95D-03
 ErrMax= 6.95D-03  0.00D+00 EMaxC= 1.00D-01 BMatC= 2.03D-03 BMatP= 7.37D-03
 IDIUse=3 WtCom= 9.30D-01 WtEn= 6.95D-02
 Coeff-Com:  0.762D-01 0.364D+00 0.560D+00
 Coeff-En:   0.000D+00 0.000D+00 0.100D+01
 Coeff:      0.709D-01 0.339D+00 0.590D+00
 Gap=     0.278 Goal=   None    Shift=    0.000
 RMSDP=1.31D-03 MaxDP=1.41D-02 DE=-4.57D-02 OVMax= 1.70D-02

 Cycle   4  Pass 0  IDiag  1:
 E= -115.725256527792     Delta-E=       -0.001391995568 Rises=F Damp=F
 DIIS: error= 3.41D-03 at cycle   4 NSaved=   4.
 NSaved= 4 IEnMin= 4 EnMin= -115.725256527792     IErMin= 4 ErrMin= 3.41D-03
 ErrMax= 3.41D-03  0.00D+00 EMaxC= 1.00D-01 BMatC= 4.96D-04 BMatP= 2.03D-03
 IDIUse=3 WtCom= 9.66D-01 WtEn= 3.41D-02
 Coeff-Com:  0.160D-01 0.685D-01 0.333D+00 0.582D+00
 Coeff-En:   0.000D+00 0.000D+00 0.198D+00 0.802D+00
 Coeff:      0.155D-01 0.662D-01 0.328D+00 0.590D+00
 Gap=     0.280 Goal=   None    Shift=    0.000
 RMSDP=4.62D-04 MaxDP=4.67D-03 DE=-1.39D-03 OVMax= 6.06D-03

 Cycle   5  Pass 0  IDiag  1:
 E= -115.725675603400     Delta-E=       -0.000419075608 Rises=F Damp=F
 DIIS: error= 4.01D-04 at cycle   5 NSaved=   5.
 NSaved= 5 IEnMin= 5 EnMin= -115.725675603400     IErMin= 5 ErrMin= 4.01D-04
 ErrMax= 4.01D-04  0.00D+00 EMaxC= 1.00D-01 BMatC= 6.98D-06 BMatP= 4.96D-04
 IDIUse=3 WtCom= 9.96D-01 WtEn= 4.01D-03
 Coeff-Com:  0.105D-02-0.180D-02 0.661D-01 0.188D+00 0.747D+00
 Coeff-En:   0.000D+00 0.000D+00 0.000D+00 0.000D+00 0.100D+01
 Coeff:      0.105D-02-0.179D-02 0.658D-01 0.187D+00 0.748D+00
 Gap=     0.279 Goal=   None    Shift=    0.000
 RMSDP=5.37D-05 MaxDP=3.84D-04 DE=-4.19D-04 OVMax= 6.47D-04

 Cycle   6  Pass 0  IDiag  1:
 E= -115.725681475435     Delta-E=       -0.000005872035 Rises=F Damp=F
 DIIS: error= 1.48D-05 at cycle   6 NSaved=   6.
 NSaved= 6 IEnMin= 6 EnMin= -115.725681475435     IErMin= 6 ErrMin= 1.48D-05
 ErrMax= 1.48D-05  0.00D+00 EMaxC= 1.00D-01 BMatC= 9.51D-09 BMatP= 6.98D-06
 IDIUse=1 WtCom= 1.00D+00 WtEn= 0.00D+00
 Coeff-Com:  0.275D-03-0.679D-03 0.107D-01 0.307D-01 0.135D+00 0.824D+00
 Coeff:      0.275D-03-0.679D-03 0.107D-01 0.307D-01 0.135D+00 0.824D+00
 Gap=     0.279 Goal=   None    Shift=    0.000
 RMSDP=4.40D-06 MaxDP=3.06D-05 DE=-5.87D-06 OVMax= 4.42D-05

 Initial convergence to 1.0D-05 achieved.  Increase integral accuracy.
 Cycle   7  Pass 1  IDiag  1:
 E= -115.725681866017     Delta-E=       -0.000000390582 Rises=F Damp=F
 DIIS: error= 1.93D-06 at cycle   1 NSaved=   1.
 NSaved= 1 IEnMin= 1 EnMin= -115.725681866017     IErMin= 1 ErrMin= 1.93D-06
 ErrMax= 1.93D-06  0.00D+00 EMaxC= 1.00D-01 BMatC= 3.03D-10 BMatP= 3.03D-10
 IDIUse=1 WtCom= 1.00D+00 WtEn= 0.00D+00
 Coeff-Com:  0.100D+01
 Coeff:      0.100D+01
 Gap=     0.279 Goal=   None    Shift=    0.000
 RMSDP=4.40D-06 MaxDP=3.06D-05 DE=-3.91D-07 OVMax= 8.88D-06

 Cycle   8  Pass 1  IDiag  1:
 E= -115.725681866261     Delta-E=       -0.000000000244 Rises=F Damp=F
 DIIS: error= 1.21D-06 at cycle   2 NSaved=   2.
 NSaved= 2 IEnMin= 2 EnMin= -115.725681866261     IErMin= 2 ErrMin= 1.21D-06
 ErrMax= 1.21D-06  0.00D+00 EMaxC= 1.00D-01 BMatC= 7.94D-11 BMatP= 3.03D-10
 IDIUse=1 WtCom= 1.00D+00 WtEn= 0.00D+00
 Coeff-Com:  0.318D+00 0.682D+00
 Coeff:      0.318D+00 0.682D+00
 Gap=     0.279 Goal=   None    Shift=    0.000
 RMSDP=3.25D-07 MaxDP=2.63D-06 DE=-2.44D-10 OVMax= 4.05D-06

 Cycle   9  Pass 1  IDiag  1:
 E= -115.725681866330     Delta-E=       -0.000000000069 Rises=F Damp=F
 DIIS: error= 8.51D-07 at cycle   3 NSaved=   3.
 NSaved= 3 IEnMin= 3 EnMin= -115.725681866330     IErMin= 3 ErrMin= 8.51D-07
 ErrMax= 8.51D-07  0.00D+00 EMaxC= 1.00D-01 BMatC= 1.68D-11 BMatP= 7.94D-11
 IDIUse=1 WtCom= 1.00D+00 WtEn= 0.00D+00
 Coeff-Com:  0.111D+00 0.357D+00 0.531D+00
 Coeff:      0.111D+00 0.357D+00 0.531D+00
 Gap=     0.279 Goal=   None    Shift=    0.000
 RMSDP=9.83D-08 MaxDP=1.16D-06 DE=-6.90D-11 OVMax= 1.34D-06

 Cycle  10  Pass 1  IDiag  1:
 E= -115.725681866345     Delta-E=       -0.000000000016 Rises=F Damp=F
 DIIS: error= 1.03D-07 at cycle   4 NSaved=   4.
 NSaved= 4 IEnMin= 4 EnMin= -115.725681866345     IErMin= 4 ErrMin= 1.03D-07
 ErrMax= 1.03D-07  0.00D+00 EMaxC= 1.00D-01 BMatC= 7.02D-13 BMatP= 1.68D-11
 IDIUse=1 WtCom= 1.00D+00 WtEn= 0.00D+00
 Coeff-Com:  0.754D-02 0.719D-01 0.204D+00 0.716D+00
 Coeff:      0.754D-02 0.719D-01 0.204D+00 0.716D+00
 Gap=     0.279 Goal=   None    Shift=    0.000
 RMSDP=2.28D-08 MaxDP=2.67D-07 DE=-1.56D-11 OVMax= 2.68D-07

 Cycle  11  Pass 1  IDiag  1:
 E= -115.725681866346     Delta-E=       -0.000000000001 Rises=F Damp=F
 DIIS: error= 7.87D-08 at cycle   5 NSaved=   5.
 NSaved= 5 IEnMin= 5 EnMin= -115.725681866346     IErMin= 5 ErrMin= 7.87D-08
 ErrMax= 7.87D-08  0.00D+00 EMaxC= 1.00D-01 BMatC= 2.74D-13 BMatP= 7.02D-13
 IDIUse=1 WtCom= 1.00D+00 WtEn= 0.00D+00
 Coeff-Com: -0.204D-02 0.194D-01 0.884D-01 0.463D+00 0.431D+00
 Coeff:     -0.204D-02 0.194D-01 0.884D-01 0.463D+00 0.431D+00
 Gap=     0.279 Goal=   None    Shift=    0.000
 RMSDP=1.24D-08 MaxDP=1.09D-07 DE=-5.68D-13 OVMax= 1.27D-07

 Cycle  12  Pass 1  IDiag  1:
 E= -115.725681866346     Delta-E=       -0.000000000000 Rises=F Damp=F
 DIIS: error= 2.75D-09 at cycle   6 NSaved=   6.
 NSaved= 6 IEnMin= 6 EnMin= -115.725681866346     IErMin= 6 ErrMin= 2.75D-09
 ErrMax= 2.75D-09  0.00D+00 EMaxC= 1.00D-01 BMatC= 3.75D-16 BMatP= 2.74D-13
 IDIUse=1 WtCom= 1.00D+00 WtEn= 0.00D+00
 Coeff-Com: -0.674D-03 0.499D-02 0.228D-01 0.129D+00 0.120D+00 0.724D+00
 Coeff:     -0.674D-03 0.499D-02 0.228D-01 0.129D+00 0.120D+00 0.724D+00
 Gap=     0.279 Goal=   None    Shift=    0.000
 RMSDP=5.74D-10 MaxDP=4.65D-09 DE=-2.84D-13 OVMax= 7.40D-09

 SCF Done:  E(RTPSS-TPSS) =  -115.725681866     A.U. after   12 cycles
            NFock= 12  Conv=0.57D-09     -V/T= 2.0052
 KE= 1.151213940526D+02 PE=-3.522960153404D+02 EE= 8.105784294529D+01
 Leave Link  502 at Wed Oct  7 13:04:07 2020, MaxMem=  2684354560 cpu:              21.1 elap:               2.3
 (Enter /udrive/faculty/rpeverati/g16/g16/l508.exe)
 QCSCF skips out because SCF is already converged.
 Leave Link  508 at Wed Oct  7 13:04:08 2020, MaxMem=  2684354560 cpu:               0.3 elap:               0.6
 (Enter /udrive/faculty/rpeverati/g16/g16/l601.exe)
 Copying SCF densities to generalized density rwf, IOpCl= 0 IROHF=0.

 **********************************************************************

            Population analysis using the SCF density.

 **********************************************************************

 Orbital symmetries:
       Occupied  (A') (A') (A') (A') (A') (A") (A') (A') (A")
       Virtual   (A') (A') (A') (A") (A') (A') (A') (A") (A') (A")
                 (A') (A') (A") (A') (A') (A') (A") (A') (A') (A")
                 (A') (A') (A") (A') (A") (A') (A')
 The electronic state is 1-A'.
 Alpha  occ. eigenvalues --  -18.88580 -10.02803  -0.94135  -0.62763  -0.45488
 Alpha  occ. eigenvalues --   -0.39085  -0.37551  -0.28186  -0.21317
 Alpha virt. eigenvalues --    0.06629   0.12239   0.15402   0.16324   0.18436
 Alpha virt. eigenvalues --    0.51208   0.55410   0.56349   0.77282   0.84142
 Alpha virt. eigenvalues --    0.85738   0.90893   0.94859   0.97949   1.01369
 Alpha virt. eigenvalues --    1.10433   1.46691   1.49317   1.61903   1.71139
 Alpha virt. eigenvalues --    2.02411   2.10406   2.13311   2.33758   2.38357
 Alpha virt. eigenvalues --    2.45588   2.76864
          Condensed to atoms (all electrons):
               1          2          3          4          5          6
     1  C    4.858313   0.273088   0.386500  -0.036007   0.368448   0.368448
     2  O    0.273088   8.214212  -0.036237   0.245710  -0.040084  -0.040084
     3  H    0.386500  -0.036237   0.549506   0.006899  -0.037211  -0.037211
     4  H   -0.036007   0.245710   0.006899   0.397701  -0.005036  -0.005036
     5  H    0.368448  -0.040084  -0.037211  -0.005036   0.629237  -0.051289
     6  H    0.368448  -0.040084  -0.037211  -0.005036  -0.051289   0.629237
 Mulliken charges:
               1
     1  C   -0.218790
     2  O   -0.616606
     3  H    0.167754
     4  H    0.395770
     5  H    0.135936
     6  H    0.135936
 Sum of Mulliken charges =  -0.00000
 Mulliken charges with hydrogens summed into heavy atoms:
               1
     1  C    0.220837
     2  O   -0.220837
 Electronic spatial extent (au):  <R**2>=             83.5336
 Charge=              0.0000 electrons
 Dipole moment (field-independent basis, Debye):
    X=              1.4026    Y=              0.8594    Z=              0.0000  Tot=              1.6449
 Quadrupole moment (field-independent basis, Debye-Ang):
   XX=            -11.5404   YY=            -12.9159   ZZ=            -13.5259
   XY=             -2.1119   XZ=              0.0000   YZ=              0.0000
 Traceless Quadrupole moment (field-independent basis, Debye-Ang):
   XX=              1.1203   YY=             -0.2551   ZZ=             -0.8652
   XY=             -2.1119   XZ=              0.0000   YZ=              0.0000
 Octapole moment (field-independent basis, Debye-Ang**2):
  XXX=              1.0815  YYY=             -4.0646  ZZZ=              0.0000  XYY=              2.1456
  XXY=             -2.2105  XXZ=              0.0000  XZZ=              0.5555  YZZ=             -0.5862
  YYZ=              0.0000  XYZ=              0.0000
 Hexadecapole moment (field-independent basis, Debye-Ang**3):
 XXXX=            -18.2274 YYYY=            -59.9439 ZZZZ=            -18.8026 XXXY=             -0.9585
 XXXZ=             -0.0000 YYYX=             -1.2531 YYYZ=              0.0000 ZZZX=              0.0000
 ZZZY=              0.0000 XXYY=            -11.8491 XXZZ=             -6.5139 YYZZ=            -13.5229
 XXYZ=             -0.0000 YYXZ=              0.0000 ZZXY=              0.7097
 N-N= 4.039109647620D+01 E-N=-3.522960154220D+02  KE= 1.151213940526D+02
 No NMR shielding tensors so no spin-rotation constants.
 Leave Link  601 at Wed Oct  7 13:04:09 2020, MaxMem=  2684354560 cpu:               3.3 elap:               0.8
 (Enter /udrive/faculty/rpeverati/g16/g16/l701.exe)
 ... and contract with generalized density number  0.
 Compute integral first derivatives.
 R6Disp: Adding Grimme-D3(BJ) dispersion energy 1st derivatives to the gradient.
 Leave Link  701 at Wed Oct  7 13:04:10 2020, MaxMem=  2684354560 cpu:               3.3 elap:               0.6
 (Enter /udrive/faculty/rpeverati/g16/g16/l702.exe)
 L702 exits ... SP integral derivatives will be done elsewhere.
 Leave Link  702 at Wed Oct  7 13:04:11 2020, MaxMem=  2684354560 cpu:               1.4 elap:               0.6
 (Enter /udrive/faculty/rpeverati/g16/g16/l703.exe)
 Integral derivatives from FoFJK, PRISM(SPDF).
 Compute integral first derivatives, UseDBF=F ICtDFT=           0.
 Calling FoFJK, ICntrl=      2527 FMM=F ISym2X=1 I1Cent= 0 IOpClX= 0 NMat=1 NMatS=1 NMatT=0.
 FoFJK:  IHMeth= 1 ICntrl=    2527 DoSepK=F KAlg= 0 I1Cent=           0 FoldK=F
 IRaf=         0 NMat=       1 IRICut=       1 DoRegI=T DoRafI=F ISym2E= 1 IDoP0=0 IntGTp=1.
 FoFCou: FMM=F IPFlag=           0 FMFlag=      100000 FMFlg1=         800
         NFxFlg=           0 DoJE=F BraDBF=F KetDBF=F FulRan=T
         wScrn=  0.000000 ICntrl=      2527 IOpCl=  0 I1Cent=           0 NGrid=           0
         NMat0=    1 NMatS0=      1 NMatT0=    0 NMatD0=    1 NMtDS0=    0 NMtDT0=    0
 Petite list used in FoFCou.
 Leave Link  703 at Wed Oct  7 13:04:12 2020, MaxMem=  2684354560 cpu:               5.3 elap:               1.0
 (Enter /udrive/faculty/rpeverati/g16/g16/l716.exe)
 Dipole        = 5.51827697D-01 3.38097982D-01 2.22044605D-16
 ***** Axes restored to original set *****
 -------------------------------------------------------------------
 Center     Atomic                   Forces (Hartrees/Bohr)
 Number     Number              X              Y              Z
 -------------------------------------------------------------------
      1        6           0.002080562   -0.003070005    0.000000000
      2        8          -0.021452467   -0.002470297    0.000000000
      3        1          -0.005751652    0.001113208   -0.000000000
      4        1           0.018685374   -0.004435712   -0.000000000
      5        1           0.003219092    0.004431403    0.005672891
      6        1           0.003219092    0.004431403   -0.005672891
 -------------------------------------------------------------------
 Cartesian Forces:  Max     0.021452467 RMS     0.007481707
 Leave Link  716 at Wed Oct  7 13:04:13 2020, MaxMem=  2684354560 cpu:               1.6 elap:               0.6
 (Enter /udrive/faculty/rpeverati/g16/g16/l103.exe)

 GradGradGradGradGradGradGradGradGradGradGradGradGradGradGradGradGradGrad
 Berny optimization.
 Optmz: redundant internal coordinate code flag= 1
 FormGI is forming the generalized inverse of G from B-inverse, IUseBI=4.
 Internal  Forces:  Max     0.019129657 RMS     0.006288177
 Search for a local minimum.
 Step number   1 out of a maximum of  100
 All quantities printed in internal units (Hartrees-Bohrs-Radians)
 RMS Force = .62882D-02 SwitMx=.10000D-02 MixMth= 1
 Mixed Optimization -- RFO/linear search
 Second derivative matrix not updated -- first step.
 The second derivative matrix:
                          R1        R2        R3        R4        R5
           R1           0.42743
           R2           0.00000   0.35214
           R3           0.00000   0.00000   0.34555
           R4           0.00000   0.00000   0.00000   0.34555
           R5           0.00000   0.00000   0.00000   0.00000   0.56351
           A1           0.00000   0.00000   0.00000   0.00000   0.00000
           A2           0.00000   0.00000   0.00000   0.00000   0.00000
           A3           0.00000   0.00000   0.00000   0.00000   0.00000
           A4           0.00000   0.00000   0.00000   0.00000   0.00000
           A5           0.00000   0.00000   0.00000   0.00000   0.00000
           A6           0.00000   0.00000   0.00000   0.00000   0.00000
           A7           0.00000   0.00000   0.00000   0.00000   0.00000
           D1           0.00000   0.00000   0.00000   0.00000   0.00000
           D2           0.00000   0.00000   0.00000   0.00000   0.00000
           D3           0.00000   0.00000   0.00000   0.00000   0.00000
                          A1        A2        A3        A4        A5
           A1           0.16000
           A2           0.00000   0.16000
           A3           0.00000   0.00000   0.16000
           A4           0.00000   0.00000   0.00000   0.16000
           A5           0.00000   0.00000   0.00000   0.00000   0.16000
           A6           0.00000   0.00000   0.00000   0.00000   0.00000
           A7           0.00000   0.00000   0.00000   0.00000   0.00000
           D1           0.00000   0.00000   0.00000   0.00000   0.00000
           D2           0.00000   0.00000   0.00000   0.00000   0.00000
           D3           0.00000   0.00000   0.00000   0.00000   0.00000
                          A6        A7        D1        D2        D3
           A6           0.16000
           A7           0.00000   0.16000
           D1           0.00000   0.00000   0.01452
           D2           0.00000   0.00000   0.00000   0.01452
           D3           0.00000   0.00000   0.00000   0.00000   0.01452
 ITU=  0
 Eigenvectors of the second derivative matrix:
                           1         2         3         4         5
     Eigenvalues --     0.01452   0.09937   0.10555   0.16000   0.16000
   1         R1         0.00000  -0.00000   0.00000  -0.00000   0.00000
   2         R2        -0.00000  -0.00000   0.00000  -0.00000  -0.00000
   3         R3         0.00000  -0.00000  -0.00000  -0.00000   0.00000
   4         R4        -0.00000  -0.00000  -0.00000  -0.00000   0.00000
   5         R5        -0.00000   0.00000  -0.00000   0.00000   0.00000
   6         A1        -0.00000   0.30133  -0.00000   0.27209  -0.26142
   7         A2         0.00000  -0.15797  -0.23469  -0.00905   0.22587
   8         A3        -0.00000  -0.15797   0.23469   0.63952   0.40066
   9         A4         0.00000   0.29405  -0.50771  -0.13523   0.02953
  10         A5        -0.00000   0.29405   0.50771  -0.43504  -0.05126
  11         A6        -0.00000  -0.51921  -0.00000  -0.35687  -0.35464
  12         A7        -0.00000   0.00000  -0.00000  -0.42661   0.76867
  13         D1        -0.57735   0.00000   0.49953  -0.00000  -0.00000
  14         D2        -0.57735   0.45650  -0.24976   0.00000   0.00000
  15         D3        -0.57735  -0.45650  -0.24976   0.00000  -0.00000
                           6         7         8         9        10
     Eigenvalues --     0.16000   0.16000   0.34555   0.34555   0.35214
   1         R1        -0.00000   0.00000  -0.00000  -0.00000  -0.00000
   2         R2         0.00000  -0.00000  -0.00000  -0.00000   1.00000
   3         R3         0.00000  -0.00000  -0.99646  -0.08404  -0.00000
   4         R4        -0.00000   0.00000   0.08404  -0.99646  -0.00000
   5         R5         0.00000  -0.00000  -0.00000  -0.00000  -0.00000
   6         A1        -0.66679   0.30954  -0.00000   0.00000   0.00000
   7         A2         0.36866   0.71114  -0.00000   0.00000   0.00000
   8         A3         0.07554  -0.34279   0.00000  -0.00000  -0.00000
   9         A4         0.17124  -0.48733   0.00000   0.00000   0.00000
  10         A5         0.30673  -0.00014  -0.00000  -0.00000  -0.00000
  11         A6        -0.25143  -0.20850   0.00000   0.00000  -0.00000
  12         A7        -0.47660  -0.00250   0.00000   0.00000   0.00000
  13         D1         0.00000  -0.00000  -0.00000  -0.00000  -0.00000
  14         D2         0.00000   0.00000  -0.00000   0.00000   0.00000
  15         D3         0.00000   0.00000   0.00000   0.00000   0.00000
                          11        12
     Eigenvalues --     0.42743   0.56351
   1         R1         1.00000   0.00000
   2         R2         0.00000   0.00000
   3         R3        -0.00000  -0.00000
   4         R4        -0.00000  -0.00000
   5         R5        -0.00000   1.00000
   6         A1        -0.00000   0.00000
   7         A2        -0.00000   0.00000
   8         A3         0.00000  -0.00000
   9         A4         0.00000  -0.00000
  10         A5         0.00000  -0.00000
  11         A6         0.00000   0.00000
  12         A7        -0.00000   0.00000
  13         D1         0.00000   0.00000
  14         D2         0.00000  -0.00000
  15         D3        -0.00000   0.00000
 Iter=   1 RLamda= 0.00000000D+00 Sum=-1.37434155D-03.
 Iter=   2 RLamda=-1.37434155D-03 Sum=-1.36911087D-03.
 Iter=   3 RLamda=-1.36911087D-03 Sum=-1.36913068D-03.
 Iter=   4 RLamda=-1.36913068D-03 Sum=-1.36913060D-03.
 RFO step:  Lambda=-1.36913068D-03 EMin= 1.45193641D-02
 Linear search not attempted -- first point.
 Iteration  1 RMS(Cart)=  0.01439559 RMS(Int)=  0.00011087
 Iteration  2 RMS(Cart)=  0.00011309 RMS(Int)=  0.00005942
 Iteration  3 RMS(Cart)=  0.00000001 RMS(Int)=  0.00005942
 ITry= 1 IFail=0 DXMaxC= 2.30D-02 DCOld= 1.00D+10 DXMaxT= 3.00D-01 DXLimC= 3.00D+00 Rises=F
 ClnCor:  largest displacement from symmetrization is 4.33D-13 for atom     6.
 Variable       Old X    -DE/DX   Delta X   Delta X   Delta X     New X
                                 (Linear)    (Quad)   (Total)
    R1        2.67988   0.00691   0.00000   0.01611   0.01611   2.69599
    R2        2.05329   0.00583   0.00000   0.01649   0.01649   2.06978
    R3        2.06403   0.00771   0.00000   0.02221   0.02221   2.08624
    R4        2.06403   0.00771   0.00000   0.02221   0.02221   2.08624
    R5        1.80651   0.01913   0.00000   0.03387   0.03387   1.84037
    A1        1.86288  -0.00181   0.00000  -0.01261  -0.01258   1.85030
    A2        1.95414   0.00224   0.00000   0.01462   0.01456   1.96870
    A3        1.95414   0.00224   0.00000   0.01462   0.01456   1.96870
    A4        1.89353  -0.00058   0.00000  -0.00498  -0.00495   1.88857
    A5        1.89353  -0.00058   0.00000  -0.00498  -0.00495   1.88857
    A6        1.90346  -0.00166   0.00000  -0.00785  -0.00797   1.89549
    A7        1.89219  -0.00306   0.00000  -0.01896  -0.01896   1.87323
    D1        3.14159   0.00000   0.00000   0.00000   0.00000   3.14159
    D2       -1.07200  -0.00057   0.00000  -0.00569  -0.00581  -1.07781
    D3        1.07200   0.00057   0.00000   0.00569   0.00581   1.07781
         Item               Value     Threshold  Converged?
 Maximum Force            0.019130     0.000450     NO 
 RMS     Force            0.006288     0.000300     NO 
 Maximum Displacement     0.023008     0.001800     NO 
 RMS     Displacement     0.014357     0.001200     NO 
 Predicted change in Energy=-6.873502D-04
 Lowest energy point so far.  Saving SCF results.
 Largest change from initial coordinates is atom    2       0.014 Angstoms.
 GradGradGradGradGradGradGradGradGradGradGradGradGradGradGradGradGradGrad

 Leave Link  103 at Wed Oct  7 13:04:15 2020, MaxMem=  2684354560 cpu:               5.0 elap:               1.0
 (Enter /udrive/faculty/rpeverati/g16/g16/l202.exe)
                          Input orientation:                          
 ---------------------------------------------------------------------
 Center     Atomic      Atomic             Coordinates (Angstroms)
 Number     Number       Type             X           Y           Z
 ---------------------------------------------------------------------
      1          6           0       -0.043734    0.660731    0.000000
      2          8           0       -0.058598   -0.765846    0.000000
      3          1           0       -1.093303    0.973843    0.000000
      4          1           0        0.868013   -1.065582    0.000000
      5          1           0        0.442350    1.083474    0.896553
      6          1           0        0.442350    1.083474   -0.896553
 ---------------------------------------------------------------------
                    Distance matrix (angstroms):
                    1          2          3          4          5
     1  C    0.000000
     2  O    1.426654   0.000000
     3  H    1.095278   2.024138   0.000000
     4  H    1.952291   0.973884   2.829490   0.000000
     5  H    1.103992   2.115358   1.781589   2.367158   0.000000
     6  H    1.103992   2.115358   1.781589   2.367158   1.793106
                    6
     6  H    0.000000
 Stoichiometry    CH4O
 Framework group  CS[SG(CH2O),X(H2)]
 Deg. of freedom     8
 Full point group                 CS      NOp   2
 RotChk:  IX=0 Diff= 1.47D-02
 Largest Abelian subgroup         CS      NOp   2
 Largest concise Abelian subgroup CS      NOp   2
                         Standard orientation:                         
 ---------------------------------------------------------------------
 Center     Atomic      Atomic             Coordinates (Angstroms)
 Number     Number       Type             X           Y           Z
 ---------------------------------------------------------------------
      1          6           0       -0.046679    0.665124    0.000000
      2          8           0       -0.046679   -0.761531    0.000000
      3          1           0       -1.099453    0.967284    0.000000
      4          1           0        0.883005   -1.051596    0.000000
      5          1           0        0.434975    1.092908    0.896553
      6          1           0        0.434975    1.092908   -0.896553
 ---------------------------------------------------------------------
 Rotational constants (GHZ):         126.1876621          24.5530935          23.6736977
 Leave Link  202 at Wed Oct  7 13:04:16 2020, MaxMem=  2684354560 cpu:               1.6 elap:               0.6
 (Enter /udrive/faculty/rpeverati/g16/g16/l301.exe)
 Standard basis: 6-31G(d) (5D, 7F)
 Ernie: Thresh=  0.10000D-02 Tol=  0.10000D-05 Strict=F.
 There are    28 symmetry adapted cartesian basis functions of A'  symmetry.
 There are    10 symmetry adapted cartesian basis functions of A"  symmetry.
 There are    26 symmetry adapted basis functions of A'  symmetry.
 There are    10 symmetry adapted basis functions of A"  symmetry.
    36 basis functions,    72 primitive gaussians,    38 cartesian basis functions
     9 alpha electrons        9 beta electrons
       nuclear repulsion energy        40.0456667000 Hartrees.
 IExCor= 2523 DFT=T Ex=TPSS Corr=TPSS ExCW=0 ScaHFX=  0.000000
 ScaDFX=  1.000000  1.000000  1.000000  1.000000 ScalE2=  1.000000  1.000000
 IRadAn=      5 IRanWt=     -1 IRanGd=            0 ICorTp=0 IEmpDi=141
 NAtoms=    6 NActive=    6 NUniq=    5 SFac= 1.44D+00 NAtFMM=   60 NAOKFM=F Big=F
 Integral buffers will be    131072 words long.
 Raffenetti 2 integral format.
 Two-electron integral symmetry is turned on.
 R6Disp:  Grimme-D3(BJ) Dispersion energy=       -0.0022635092 Hartrees.
 Nuclear repulsion after empirical dispersion term =       40.0434031908 Hartrees.
 Leave Link  301 at Wed Oct  7 13:04:17 2020, MaxMem=  2684354560 cpu:               1.8 elap:               0.5
 (Enter /udrive/faculty/rpeverati/g16/g16/l302.exe)
 NPDir=0 NMtPBC=     1 NCelOv=     1 NCel=       1 NClECP=     1 NCelD=      1
         NCelK=      1 NCelE2=     1 NClLst=     1 CellRange=     0.0.
 One-electron integrals computed using PRISM.
 One-electron integral symmetry used in STVInt
 NBasis=    36 RedAO= T EigKep=  1.51D-02  NBF=    26    10
 NBsUse=    36 1.00D-06 EigRej= -1.00D+00 NBFU=    26    10
 Precomputing XC quadrature grid using
 IXCGrd= 4 IRadAn=           5 IRanWt=          -1 IRanGd=           0 AccXCQ= 0.00D+00.
 Generated NRdTot=       0 NPtTot=           0 NUsed=           0 NTot=          32
 NSgBfM=    38    38    38    38    38 MxSgAt=     6 MxSgA2=     6.
 Leave Link  302 at Wed Oct  7 13:04:18 2020, MaxMem=  2684354560 cpu:               3.7 elap:               0.8
 (Enter /udrive/faculty/rpeverati/g16/g16/l303.exe)
 DipDrv:  MaxL=1.
 Leave Link  303 at Wed Oct  7 13:04:19 2020, MaxMem=  2684354560 cpu:               1.4 elap:               0.6
 (Enter /udrive/faculty/rpeverati/g16/g16/l401.exe)
 Initial guess from the checkpoint file:  "MN_23_ch3oh_lower_BH76_TPSSDBJ_631Gs.chk"
 SCF N**3 symmetry information disabled.
 B after Tr=     0.000000   -0.000000    0.000000
         Rot=    0.999996   -0.000000   -0.000000   -0.002739 Ang=  -0.31 deg.
 Guess basis will be translated and rotated to current coordinates.
 JPrj=2 DoOrth=T DoCkMO=T.
 Initial guess orbital symmetries:
       Occupied  (A') (A') (A') (A') (A') (A") (A') (A') (A")
       Virtual   (A') (A') (A') (A") (A') (A') (A') (A") (A') (A")
                 (A') (A') (A") (A') (A') (A') (A") (A') (A') (A")
                 (A') (A') (A") (A') (A") (A') (A')
 The electronic state of the initial guess is 1-A'.
 Generating alternative initial guess.
 ExpMin= 1.61D-01 ExpMax= 5.48D+03 ExpMxC= 8.25D+02 IAcc=2 IRadAn=         4 AccDes= 0.00D+00
 Harris functional with IExCor= 1009 and IRadAn=       4 diagonalized for initial guess.
 HarFok:  IExCor= 1009 AccDes= 0.00D+00 IRadAn=         4 IDoV= 1 UseB2=F ITyADJ=14
 ICtDFT=  3500011 ScaDFX=  1.000000  1.000000  1.000000  1.000000
 FoFCou: FMM=F IPFlag=           0 FMFlag=      100000 FMFlg1=           0
         NFxFlg=           0 DoJE=T BraDBF=F KetDBF=T FulRan=T
         wScrn=  0.000000 ICntrl=       500 IOpCl=  0 I1Cent=   200000004 NGrid=           0
         NMat0=    1 NMatS0=      1 NMatT0=    0 NMatD0=    1 NMtDS0=    0 NMtDT0=    0
 Petite list used in FoFCou.
 Harris En= -115.630375333682    
 Leave Link  401 at Wed Oct  7 13:04:20 2020, MaxMem=  2684354560 cpu:               6.2 elap:               0.9
 (Enter /udrive/faculty/rpeverati/g16/g16/l502.exe)
 Keep J ints in memory in symmetry-blocked form, NReq=10588067.
 FoFCou: FMM=F IPFlag=           0 FMFlag=           0 FMFlg1=           0
         NFxFlg=           0 DoJE=F BraDBF=F KetDBF=F FulRan=T
         wScrn=  0.000000 ICntrl=       600 IOpCl=  0 I1Cent=           0 NGrid=           0
         NMat0=    1 NMatS0=    666 NMatT0=    0 NMatD0=    1 NMtDS0=    0 NMtDT0=    0
 Petite list used in FoFCou.
 Closed shell SCF:
 Using DIIS extrapolation, IDIIS=  1040.
 NGot=  2684354560 LenX=  2684232161 LenY=  2684230276
 Requested convergence on RMS density matrix=1.00D-08 within 120 cycles.
 Requested convergence on MAX density matrix=1.00D-06.
 Requested convergence on             energy=1.00D-06.
 No special actions if energy rises.
 Integral accuracy reduced to 1.0D-05 until final iterations.

 Cycle   1  Pass 0  IDiag  1:
 E= -115.726190241595    
 DIIS: error= 1.70D-03 at cycle   1 NSaved=   1.
 NSaved= 1 IEnMin= 1 EnMin= -115.726190241595     IErMin= 1 ErrMin= 1.70D-03
 ErrMax= 1.70D-03  0.00D+00 EMaxC= 1.00D-01 BMatC= 1.49D-04 BMatP= 1.49D-04
 IDIUse=3 WtCom= 9.83D-01 WtEn= 1.70D-02
 Coeff-Com:  0.100D+01
 Coeff-En:   0.100D+01
 Coeff:      0.100D+01
 Gap=     0.275 Goal=   None    Shift=    0.000
 GapD=    0.275 DampG=1.000 DampE=1.000 DampFc=1.0000 IDamp=-1.
 RMSDP=6.46D-04 MaxDP=5.31D-03              OVMax= 7.55D-03

 Cycle   2  Pass 0  IDiag  1:
 E= -115.726324895357     Delta-E=       -0.000134653762 Rises=F Damp=F
 DIIS: error= 1.48D-03 at cycle   2 NSaved=   2.
 NSaved= 2 IEnMin= 2 EnMin= -115.726324895357     IErMin= 2 ErrMin= 1.48D-03
 ErrMax= 1.48D-03  0.00D+00 EMaxC= 1.00D-01 BMatC= 7.64D-05 BMatP= 1.49D-04
 IDIUse=3 WtCom= 9.85D-01 WtEn= 1.48D-02
 Coeff-Com:  0.388D+00 0.612D+00
 Coeff-En:   0.000D+00 0.100D+01
 Coeff:      0.382D+00 0.618D+00
 Gap=     0.277 Goal=   None    Shift=    0.000
 RMSDP=3.27D-04 MaxDP=2.55D-03 DE=-1.35D-04 OVMax= 3.09D-03

 Cycle   3  Pass 0  IDiag  1:
 E= -115.726376915533     Delta-E=       -0.000052020175 Rises=F Damp=F
 DIIS: error= 6.93D-04 at cycle   3 NSaved=   3.
 NSaved= 3 IEnMin= 3 EnMin= -115.726376915533     IErMin= 3 ErrMin= 6.93D-04
 ErrMax= 6.93D-04  0.00D+00 EMaxC= 1.00D-01 BMatC= 2.20D-05 BMatP= 7.64D-05
 IDIUse=3 WtCom= 9.93D-01 WtEn= 6.93D-03
 Coeff-Com:  0.426D-01 0.346D+00 0.611D+00
 Coeff-En:   0.000D+00 0.213D+00 0.787D+00
 Coeff:      0.423D-01 0.345D+00 0.612D+00
 Gap=     0.276 Goal=   None    Shift=    0.000
 RMSDP=1.18D-04 MaxDP=1.21D-03 DE=-5.20D-05 OVMax= 1.26D-03

 Cycle   4  Pass 0  IDiag  1:
 E= -115.726393755259     Delta-E=       -0.000016839726 Rises=F Damp=F
 DIIS: error= 1.89D-04 at cycle   4 NSaved=   4.
 NSaved= 4 IEnMin= 4 EnMin= -115.726393755259     IErMin= 4 ErrMin= 1.89D-04
 ErrMax= 1.89D-04  0.00D+00 EMaxC= 1.00D-01 BMatC= 1.60D-06 BMatP= 2.20D-05
 IDIUse=3 WtCom= 9.98D-01 WtEn= 1.89D-03
 Coeff-Com:  0.629D-02 0.168D+00 0.349D+00 0.477D+00
 Coeff-En:   0.000D+00 0.000D+00 0.000D+00 0.100D+01
 Coeff:      0.627D-02 0.168D+00 0.348D+00 0.478D+00
 Gap=     0.276 Goal=   None    Shift=    0.000
 RMSDP=2.81D-05 MaxDP=2.89D-04 DE=-1.68D-05 OVMax= 3.88D-04

 Cycle   5  Pass 0  IDiag  1:
 E= -115.726395019310     Delta-E=       -0.000001264051 Rises=F Damp=F
 DIIS: error= 3.74D-05 at cycle   5 NSaved=   5.
 NSaved= 5 IEnMin= 5 EnMin= -115.726395019310     IErMin= 5 ErrMin= 3.74D-05
 ErrMax= 3.74D-05  0.00D+00 EMaxC= 1.00D-01 BMatC= 7.89D-08 BMatP= 1.60D-06
 IDIUse=1 WtCom= 1.00D+00 WtEn= 0.00D+00
 Coeff-Com: -0.373D-03 0.524D-01 0.116D+00 0.238D+00 0.594D+00
 Coeff:     -0.373D-03 0.524D-01 0.116D+00 0.238D+00 0.594D+00
 Gap=     0.276 Goal=   None    Shift=    0.000
 RMSDP=6.11D-06 MaxDP=5.70D-05 DE=-1.26D-06 OVMax= 7.68D-05

 Initial convergence to 1.0D-05 achieved.  Increase integral accuracy.
 Cycle   6  Pass 1  IDiag  1:
 E= -115.726394723376     Delta-E=        0.000000295934 Rises=F Damp=F
 DIIS: error= 3.58D-06 at cycle   1 NSaved=   1.
 NSaved= 1 IEnMin= 1 EnMin= -115.726394723376     IErMin= 1 ErrMin= 3.58D-06
 ErrMax= 3.58D-06  0.00D+00 EMaxC= 1.00D-01 BMatC= 5.45D-10 BMatP= 5.45D-10
 IDIUse=1 WtCom= 1.00D+00 WtEn= 0.00D+00
 Coeff-Com:  0.100D+01
 Coeff:      0.100D+01
 Gap=     0.276 Goal=   None    Shift=    0.000
 RMSDP=6.11D-06 MaxDP=5.70D-05 DE= 2.96D-07 OVMax= 1.57D-05

 Cycle   7  Pass 1  IDiag  1:
 E= -115.726394723639     Delta-E=       -0.000000000263 Rises=F Damp=F
 DIIS: error= 2.99D-06 at cycle   2 NSaved=   2.
 NSaved= 2 IEnMin= 2 EnMin= -115.726394723639     IErMin= 2 ErrMin= 2.99D-06
 ErrMax= 2.99D-06  0.00D+00 EMaxC= 1.00D-01 BMatC= 3.91D-10 BMatP= 5.45D-10
 IDIUse=1 WtCom= 1.00D+00 WtEn= 0.00D+00
 Coeff-Com:  0.456D+00 0.544D+00
 Coeff:      0.456D+00 0.544D+00
 Gap=     0.276 Goal=   None    Shift=    0.000
 RMSDP=5.60D-07 MaxDP=4.92D-06 DE=-2.63D-10 OVMax= 6.70D-06

 Cycle   8  Pass 1  IDiag  1:
 E= -115.726394724013     Delta-E=       -0.000000000375 Rises=F Damp=F
 DIIS: error= 9.72D-07 at cycle   3 NSaved=   3.
 NSaved= 3 IEnMin= 3 EnMin= -115.726394724013     IErMin= 3 ErrMin= 9.72D-07
 ErrMax= 9.72D-07  0.00D+00 EMaxC= 1.00D-01 BMatC= 2.04D-11 BMatP= 3.91D-10
 IDIUse=1 WtCom= 1.00D+00 WtEn= 0.00D+00
 Coeff-Com:  0.165D+00 0.250D+00 0.585D+00
 Coeff:      0.165D+00 0.250D+00 0.585D+00
 Gap=     0.276 Goal=   None    Shift=    0.000
 RMSDP=1.25D-07 MaxDP=1.56D-06 DE=-3.75D-10 OVMax= 1.95D-06

 Cycle   9  Pass 1  IDiag  1:
 E= -115.726394724033     Delta-E=       -0.000000000020 Rises=F Damp=F
 DIIS: error= 1.86D-07 at cycle   4 NSaved=   4.
 NSaved= 4 IEnMin= 4 EnMin= -115.726394724033     IErMin= 4 ErrMin= 1.86D-07
 ErrMax= 1.86D-07  0.00D+00 EMaxC= 1.00D-01 BMatC= 1.57D-12 BMatP= 2.04D-11
 IDIUse=1 WtCom= 1.00D+00 WtEn= 0.00D+00
 Coeff-Com:  0.282D-01 0.492D-01 0.247D+00 0.676D+00
 Coeff:      0.282D-01 0.492D-01 0.247D+00 0.676D+00
 Gap=     0.276 Goal=   None    Shift=    0.000
 RMSDP=3.33D-08 MaxDP=3.60D-07 DE=-1.97D-11 OVMax= 4.09D-07

 Cycle  10  Pass 1  IDiag  1:
 E= -115.726394724034     Delta-E=       -0.000000000001 Rises=F Damp=F
 DIIS: error= 1.13D-07 at cycle   5 NSaved=   5.
 NSaved= 5 IEnMin= 5 EnMin= -115.726394724034     IErMin= 5 ErrMin= 1.13D-07
 ErrMax= 1.13D-07  0.00D+00 EMaxC= 1.00D-01 BMatC= 4.91D-13 BMatP= 1.57D-12
 IDIUse=1 WtCom= 1.00D+00 WtEn= 0.00D+00
 Coeff-Com:  0.286D-02 0.908D-02 0.111D+00 0.435D+00 0.442D+00
 Coeff:      0.286D-02 0.908D-02 0.111D+00 0.435D+00 0.442D+00
 Gap=     0.276 Goal=   None    Shift=    0.000
 RMSDP=1.61D-08 MaxDP=1.56D-07 DE=-1.08D-12 OVMax= 1.70D-07

 Cycle  11  Pass 1  IDiag  1:
 E= -115.726394724034     Delta-E=        0.000000000000 Rises=F Damp=F
 DIIS: error= 7.11D-09 at cycle   6 NSaved=   6.
 NSaved= 6 IEnMin= 5 EnMin= -115.726394724034     IErMin= 6 ErrMin= 7.11D-09
 ErrMax= 7.11D-09  0.00D+00 EMaxC= 1.00D-01 BMatC= 1.49D-15 BMatP= 4.91D-13
 IDIUse=1 WtCom= 1.00D+00 WtEn= 0.00D+00
 Coeff-Com: -0.470D-03 0.452D-03 0.154D-01 0.655D-01 0.102D+00 0.817D+00
 Coeff:     -0.470D-03 0.452D-03 0.154D-01 0.655D-01 0.102D+00 0.817D+00
 Gap=     0.276 Goal=   None    Shift=    0.000
 RMSDP=9.74D-10 MaxDP=7.52D-09 DE= 1.14D-13 OVMax= 1.09D-08

 SCF Done:  E(RTPSS-TPSS) =  -115.726394724     A.U. after   11 cycles
            NFock= 11  Conv=0.97D-09     -V/T= 2.0060
 KE= 1.150322361715D+02 PE=-3.515392192043D+02 EE= 8.073718511792D+01
 Leave Link  502 at Wed Oct  7 13:04:22 2020, MaxMem=  2684354560 cpu:              17.9 elap:               1.9
 (Enter /udrive/faculty/rpeverati/g16/g16/l508.exe)
 QCSCF skips out because SCF is already converged.
 Leave Link  508 at Wed Oct  7 13:04:23 2020, MaxMem=  2684354560 cpu:               0.3 elap:               0.3
 (Enter /udrive/faculty/rpeverati/g16/g16/l701.exe)
 ... and contract with generalized density number  0.
 Compute integral first derivatives.
 R6Disp: Adding Grimme-D3(BJ) dispersion energy 1st derivatives to the gradient.
 Leave Link  701 at Wed Oct  7 13:04:24 2020, MaxMem=  2684354560 cpu:               3.1 elap:               0.7
 (Enter /udrive/faculty/rpeverati/g16/g16/l702.exe)
 L702 exits ... SP integral derivatives will be done elsewhere.
 Leave Link  702 at Wed Oct  7 13:04:24 2020, MaxMem=  2684354560 cpu:               1.9 elap:               0.5
 (Enter /udrive/faculty/rpeverati/g16/g16/l703.exe)
 Integral derivatives from FoFJK, PRISM(SPDF).
 Compute integral first derivatives, UseDBF=F ICtDFT=           0.
 Calling FoFJK, ICntrl=      2527 FMM=F ISym2X=1 I1Cent= 0 IOpClX= 0 NMat=1 NMatS=1 NMatT=0.
 FoFJK:  IHMeth= 1 ICntrl=    2527 DoSepK=F KAlg= 0 I1Cent=           0 FoldK=F
 IRaf=         0 NMat=       1 IRICut=       1 DoRegI=T DoRafI=F ISym2E= 1 IDoP0=0 IntGTp=1.
 FoFCou: FMM=F IPFlag=           0 FMFlag=      100000 FMFlg1=         800
         NFxFlg=           0 DoJE=F BraDBF=F KetDBF=F FulRan=T
         wScrn=  0.000000 ICntrl=      2527 IOpCl=  0 I1Cent=           0 NGrid=           0
         NMat0=    1 NMatS0=      1 NMatT0=    0 NMatD0=    1 NMtDS0=    0 NMtDT0=    0
 Petite list used in FoFCou.
 Leave Link  703 at Wed Oct  7 13:04:26 2020, MaxMem=  2684354560 cpu:               6.7 elap:               0.9
 (Enter /udrive/faculty/rpeverati/g16/g16/l716.exe)
 Dipole        = 5.53031996D-01 3.44505035D-01 0.00000000D+00
 ***** Axes restored to original set *****
 -------------------------------------------------------------------
 Center     Atomic                   Forces (Hartrees/Bohr)
 Number     Number              X              Y              Z
 -------------------------------------------------------------------
      1        6          -0.000754222    0.000798439   -0.000000000
      2        8          -0.002036589   -0.000066954    0.000000000
      3        1          -0.000070483    0.000164730   -0.000000000
      4        1           0.002269526   -0.000415686   -0.000000000
      5        1           0.000295884   -0.000240264    0.000070038
      6        1           0.000295884   -0.000240264   -0.000070038
 -------------------------------------------------------------------
 Cartesian Forces:  Max     0.002269526 RMS     0.000782252
 Leave Link  716 at Wed Oct  7 13:04:26 2020, MaxMem=  2684354560 cpu:               1.5 elap:               0.5
 (Enter /udrive/faculty/rpeverati/g16/g16/l103.exe)

 GradGradGradGradGradGradGradGradGradGradGradGradGradGradGradGradGradGrad
 Berny optimization.
 Optmz: redundant internal coordinate code flag= 1
 Using GEDIIS/GDIIS optimizer.
 Red2BG:  D1=  2.68D-01 OD1=  5.39D-02 B2RMS=  0.00D+00 IAprox=0
 FormGI is forming the generalized inverse of G from B-inverse, IUseBI=4.
 Internal  Forces:  Max     0.002287302 RMS     0.000674566
 Search for a local minimum.
 Step number   2 out of a maximum of  100
 All quantities printed in internal units (Hartrees-Bohrs-Radians)
 RMS Force = .67457D-03 SwitMx=.10000D-02 MixMth= 2
 Mixed Optimization -- En-DIIS/RFO-DIIS
 Update second derivatives using D2CorX and points    1    2
 DE= -7.13D-04 DEPred=-6.87D-04 R= 1.04D+00
 TightC=F SS=  1.41D+00  RLast= 6.15D-02 DXNew= 5.0454D-01 1.8461D-01
 Trust test= 1.04D+00 RLast= 6.15D-02 DXMaxT set to 3.00D-01
 The second derivative matrix:
                          R1        R2        R3        R4        R5
           R1           0.42458
           R2          -0.00094   0.35265
           R3          -0.00096   0.00092   0.34711
           R4          -0.00096   0.00092   0.00156   0.34711
           R5          -0.01271  -0.00689  -0.00836  -0.00836   0.51564
           A1          -0.00134  -0.00166  -0.00229  -0.00229  -0.00197
           A2           0.00173   0.00208   0.00287   0.00287   0.00276
           A3           0.00173   0.00208   0.00287   0.00287   0.00276
           A4           0.00004  -0.00015  -0.00023  -0.00023   0.00071
           A5           0.00004  -0.00015  -0.00023  -0.00023   0.00071
           A6          -0.00218  -0.00223  -0.00303  -0.00303  -0.00474
           A7           0.00289   0.00187   0.00236   0.00236   0.00989
           D1           0.00000   0.00000   0.00000   0.00000   0.00000
           D2          -0.00402  -0.00359  -0.00479  -0.00479  -0.01047
           D3           0.00402   0.00359   0.00479   0.00479   0.01047
                          A1        A2        A3        A4        A5
           A1           0.16117
           A2          -0.00142   0.16173
           A3          -0.00142   0.00173   0.16173
           A4           0.00026  -0.00032  -0.00032   0.16003
           A5           0.00026  -0.00032  -0.00032   0.00003   0.16003
           A6           0.00122  -0.00147  -0.00147   0.00033   0.00033
           A7          -0.00000  -0.00007  -0.00007  -0.00022  -0.00022
           D1          -0.00000   0.00000   0.00000  -0.00000  -0.00000
           D2           0.00148  -0.00174  -0.00174   0.00050   0.00050
           D3          -0.00148   0.00174   0.00174  -0.00050  -0.00050
                          A6        A7        D1        D2        D3
           A6           0.16114
           A7           0.00052   0.15809
           D1          -0.00000  -0.00000   0.01452
           D2           0.00112   0.00154  -0.00000   0.01513
           D3          -0.00112  -0.00154   0.00000  -0.00061   0.01513
 ITU=  1  0
 Use linear search instead of GDIIS.
 Eigenvectors of the second derivative matrix:
                           1         2         3         4         5
     Eigenvalues --     0.01452   0.09904   0.10573   0.15762   0.16000
   1         R1         0.00000   0.01159  -0.00000  -0.01358  -0.00000
   2         R2         0.00000   0.01352  -0.00000  -0.01246  -0.00000
   3         R3         0.00000   0.01852  -0.00000  -0.01636  -0.00000
   4         R4         0.00000   0.01852  -0.00000  -0.01636  -0.00000
   5         R5         0.00000   0.02122  -0.00000  -0.03043  -0.00000
   6         A1        -0.00000   0.28763  -0.00000  -0.06898  -0.67010
   7         A2         0.00000  -0.13645  -0.23115   0.04603  -0.38748
   8         A3         0.00000  -0.13645   0.23115   0.04603   0.11819
   9         A4        -0.00000   0.29191  -0.50994   0.02246   0.52327
  10         A5        -0.00000   0.29191   0.50994   0.02246   0.29406
  11         A6        -0.00000  -0.53057   0.00000  -0.06757   0.15753
  12         A7        -0.00000  -0.02364   0.00000   0.99170  -0.04189
  13         D1        -0.57735   0.00000   0.49871  -0.00000  -0.00000
  14         D2        -0.57735   0.46157  -0.24936   0.00917  -0.00000
  15         D3        -0.57735  -0.46157  -0.24936  -0.00917   0.00000
                           6         7         8         9        10
     Eigenvalues --     0.16000   0.16538   0.34555   0.34816   0.35281
   1         R1         0.00000  -0.01411  -0.00000  -0.01962   0.02396
   2         R2        -0.00000  -0.02162  -0.00000   0.25254   0.96605
   3         R3        -0.00000  -0.03061  -0.70711  -0.68204   0.17459
   4         R4        -0.00000  -0.03061   0.70711  -0.68204   0.17459
   5         R5        -0.00000  -0.01815  -0.00000  -0.05551   0.05721
   6         A1        -0.28603  -0.38686   0.00000   0.02281  -0.02027
   7         A2         0.53485   0.50755  -0.00000  -0.02335   0.02062
   8         A3        -0.64980   0.50755  -0.00000  -0.02335   0.02062
   9         A4        -0.09405  -0.04763   0.00000   0.00815  -0.00730
  10         A5         0.44293  -0.04763   0.00000   0.00815  -0.00730
  11         A6         0.06724  -0.56059   0.00000   0.01021  -0.00870
  12         A7        -0.01788  -0.11169  -0.00000  -0.01744   0.01659
  13         D1         0.00000   0.00000   0.00000  -0.00000   0.00000
  14         D2        -0.00000  -0.02222   0.00000   0.01144  -0.01031
  15         D3        -0.00000   0.02222  -0.00000  -0.01144   0.01031
                          11        12
     Eigenvalues --     0.42318   0.51887
   1         R1         0.99079  -0.12986
   2         R2        -0.02421  -0.03973
   3         R3        -0.02473  -0.04674
   4         R4        -0.02473  -0.04674
   5         R5         0.12608   0.98795
   6         A1        -0.01040  -0.01162
   7         A2         0.00980   0.00991
   8         A3         0.00980   0.00991
   9         A4        -0.00411  -0.00505
  10         A5        -0.00411  -0.00505
  11         A6        -0.00224   0.00038
  12         A7         0.01483   0.02517
  13         D1         0.00000   0.00000
  14         D2        -0.00617  -0.00801
  15         D3         0.00617   0.00801
 Iter=   1 RLamda= 0.00000000D+00 Sum=-1.77710667D-05.
 Iter=   2 RLamda=-1.77710667D-05 Sum=-1.77689865D-05.
 RFO step:  Lambda=-1.77710667D-05 EMin= 1.45193641D-02
 Quartic linear search produced a step of  0.06077.
 Iteration  1 RMS(Cart)=  0.00370535 RMS(Int)=  0.00001356
 Iteration  2 RMS(Cart)=  0.00001237 RMS(Int)=  0.00000947
 Iteration  3 RMS(Cart)=  0.00000000 RMS(Int)=  0.00000947
 ITry= 1 IFail=0 DXMaxC= 6.26D-03 DCOld= 1.00D+10 DXMaxT= 3.00D-01 DXLimC= 3.00D+00 Rises=F
 ClnCor:  largest displacement from symmetrization is 8.77D-14 for atom     6.
 Variable       Old X    -DE/DX   Delta X   Delta X   Delta X     New X
                                 (Linear)    (Quad)   (Total)
    R1        2.69599   0.00048   0.00098   0.00046   0.00144   2.69743
    R2        2.06978   0.00011   0.00100  -0.00039   0.00061   2.07038
    R3        2.08624   0.00010   0.00135  -0.00070   0.00065   2.08689
    R4        2.08624   0.00010   0.00135  -0.00070   0.00065   2.08689
    R5        1.84037   0.00229   0.00206   0.00275   0.00481   1.84519
    A1        1.85030   0.00051  -0.00076   0.00480   0.00403   1.85433
    A2        1.96870  -0.00048   0.00088  -0.00424  -0.00337   1.96533
    A3        1.96870  -0.00048   0.00088  -0.00424  -0.00337   1.96533
    A4        1.88857   0.00022  -0.00030   0.00250   0.00220   1.89077
    A5        1.88857   0.00022  -0.00030   0.00250   0.00220   1.89077
    A6        1.89549   0.00008  -0.00048  -0.00061  -0.00112   1.89437
    A7        1.87323  -0.00056  -0.00115  -0.00290  -0.00405   1.86918
    D1        3.14159   0.00000   0.00000  -0.00000   0.00000   3.14159
    D2       -1.07781   0.00032  -0.00035   0.00373   0.00336  -1.07445
    D3        1.07781  -0.00032   0.00035  -0.00373  -0.00336   1.07445
         Item               Value     Threshold  Converged?
 Maximum Force            0.002287     0.000450     NO 
 RMS     Force            0.000675     0.000300     NO 
 Maximum Displacement     0.006256     0.001800     NO 
 RMS     Displacement     0.003711     0.001200     NO 
 Predicted change in Energy=-1.116063D-05
 Lowest energy point so far.  Saving SCF results.
 Largest change from initial coordinates is atom    4       0.020 Angstoms.
 GradGradGradGradGradGradGradGradGradGradGradGradGradGradGradGradGradGrad

 Leave Link  103 at Wed Oct  7 13:04:28 2020, MaxMem=  2684354560 cpu:               3.3 elap:               0.8
 (Enter /udrive/faculty/rpeverati/g16/g16/l202.exe)
                          Input orientation:                          
 ---------------------------------------------------------------------
 Center     Atomic      Atomic             Coordinates (Angstroms)
 Number     Number       Type             X           Y           Z
 ---------------------------------------------------------------------
      1          6           0       -0.046093    0.660744    0.000000
      2          8           0       -0.059567   -0.766608    0.000000
      3          1           0       -1.095008    0.977154    0.000000
      4          1           0        0.870967   -1.062450    0.000000
      5          1           0        0.443389    1.080628    0.896470
      6          1           0        0.443389    1.080628   -0.896470
 ---------------------------------------------------------------------
                    Distance matrix (angstroms):
                    1          2          3          4          5
     1  C    0.000000
     2  O    1.427416   0.000000
     3  H    1.095599   2.028015   0.000000
     4  H    1.952024   0.976430   2.832850   0.000000
     5  H    1.104333   2.113978   1.783544   2.362046   0.000000
     6  H    1.104333   2.113978   1.783544   2.362046   1.792939
                    6
     6  H    0.000000
 Stoichiometry    CH4O
 Framework group  CS[SG(CH2O),X(H2)]
 Deg. of freedom     8
 Full point group                 CS      NOp   2
 RotChk:  IX=0 Diff= 1.38D-03
 Largest Abelian subgroup         CS      NOp   2
 Largest concise Abelian subgroup CS      NOp   2
                         Standard orientation:                         
 ---------------------------------------------------------------------
 Center     Atomic      Atomic             Coordinates (Angstroms)
 Number     Number       Type             X           Y           Z
 ---------------------------------------------------------------------
      1          6           0       -0.047357    0.665463    0.000000
      2          8           0       -0.047357   -0.761954    0.000000
      3          1           0       -1.099212    0.971957    0.000000
      4          1           0        0.885928   -1.048998    0.000000
      5          1           0        0.438139    1.089948    0.896470
      6          1           0        0.438139    1.089948   -0.896470
 ---------------------------------------------------------------------
 Rotational constants (GHZ):         125.8283930          24.5462146          23.6539673
 Leave Link  202 at Wed Oct  7 13:04:28 2020, MaxMem=  2684354560 cpu:               2.0 elap:               0.5
 (Enter /udrive/faculty/rpeverati/g16/g16/l301.exe)
 Standard basis: 6-31G(d) (5D, 7F)
 Ernie: Thresh=  0.10000D-02 Tol=  0.10000D-05 Strict=F.
 There are    28 symmetry adapted cartesian basis functions of A'  symmetry.
 There are    10 symmetry adapted cartesian basis functions of A"  symmetry.
 There are    26 symmetry adapted basis functions of A'  symmetry.
 There are    10 symmetry adapted basis functions of A"  symmetry.
    36 basis functions,    72 primitive gaussians,    38 cartesian basis functions
     9 alpha electrons        9 beta electrons
       nuclear repulsion energy        40.0211529109 Hartrees.
 IExCor= 2523 DFT=T Ex=TPSS Corr=TPSS ExCW=0 ScaHFX=  0.000000
 ScaDFX=  1.000000  1.000000  1.000000  1.000000 ScalE2=  1.000000  1.000000
 IRadAn=      5 IRanWt=     -1 IRanGd=            0 ICorTp=0 IEmpDi=141
 NAtoms=    6 NActive=    6 NUniq=    5 SFac= 1.44D+00 NAtFMM=   60 NAOKFM=F Big=F
 Integral buffers will be    131072 words long.
 Raffenetti 2 integral format.
 Two-electron integral symmetry is turned on.
 R6Disp:  Grimme-D3(BJ) Dispersion energy=       -0.0022636440 Hartrees.
 Nuclear repulsion after empirical dispersion term =       40.0188892669 Hartrees.
 Leave Link  301 at Wed Oct  7 13:04:29 2020, MaxMem=  2684354560 cpu:               2.6 elap:               0.6
 (Enter /udrive/faculty/rpeverati/g16/g16/l302.exe)
 NPDir=0 NMtPBC=     1 NCelOv=     1 NCel=       1 NClECP=     1 NCelD=      1
         NCelK=      1 NCelE2=     1 NClLst=     1 CellRange=     0.0.
 One-electron integrals computed using PRISM.
 One-electron integral symmetry used in STVInt
 NBasis=    36 RedAO= T EigKep=  1.51D-02  NBF=    26    10
 NBsUse=    36 1.00D-06 EigRej= -1.00D+00 NBFU=    26    10
 Precomputing XC quadrature grid using
 IXCGrd= 4 IRadAn=           5 IRanWt=          -1 IRanGd=           0 AccXCQ= 0.00D+00.
 Generated NRdTot=       0 NPtTot=           0 NUsed=           0 NTot=          32
 NSgBfM=    38    38    38    38    38 MxSgAt=     6 MxSgA2=     6.
 Leave Link  302 at Wed Oct  7 13:04:30 2020, MaxMem=  2684354560 cpu:               3.0 elap:               0.6
 (Enter /udrive/faculty/rpeverati/g16/g16/l303.exe)
 DipDrv:  MaxL=1.
 Leave Link  303 at Wed Oct  7 13:04:31 2020, MaxMem=  2684354560 cpu:               1.6 elap:               0.4
 (Enter /udrive/faculty/rpeverati/g16/g16/l401.exe)
 Initial guess from the checkpoint file:  "MN_23_ch3oh_lower_BH76_TPSSDBJ_631Gs.chk"
 SCF N**3 symmetry information disabled.
 B after Tr=    -0.000000    0.000000    0.000000
         Rot=    1.000000    0.000000   -0.000000    0.000384 Ang=   0.04 deg.
 Guess basis will be translated and rotated to current coordinates.
 JPrj=2 DoOrth=T DoCkMO=T.
 Initial guess orbital symmetries:
       Occupied  (A') (A') (A') (A') (A') (A") (A') (A') (A")
       Virtual   (A') (A') (A') (A") (A') (A') (A') (A") (A') (A")
                 (A') (A') (A") (A') (A') (A') (A") (A') (A') (A")
                 (A') (A') (A") (A') (A") (A') (A')
 The electronic state of the initial guess is 1-A'.
 Leave Link  401 at Wed Oct  7 13:04:32 2020, MaxMem=  2684354560 cpu:               4.0 elap:               0.8
 (Enter /udrive/faculty/rpeverati/g16/g16/l502.exe)
 Keep J ints in memory in symmetry-blocked form, NReq=10588067.
 FoFCou: FMM=F IPFlag=           0 FMFlag=           0 FMFlg1=           0
         NFxFlg=           0 DoJE=F BraDBF=F KetDBF=F FulRan=T
         wScrn=  0.000000 ICntrl=       600 IOpCl=  0 I1Cent=           0 NGrid=           0
         NMat0=    1 NMatS0=    666 NMatT0=    0 NMatD0=    1 NMtDS0=    0 NMtDT0=    0
 Petite list used in FoFCou.
 Closed shell SCF:
 Using DIIS extrapolation, IDIIS=  1040.
 NGot=  2684354560 LenX=  2684232161 LenY=  2684230276
 Requested convergence on RMS density matrix=1.00D-08 within 120 cycles.
 Requested convergence on MAX density matrix=1.00D-06.
 Requested convergence on             energy=1.00D-06.
 No special actions if energy rises.

 Cycle   1  Pass 1  IDiag  1:
 E= -115.726397967399    
 DIIS: error= 3.14D-04 at cycle   1 NSaved=   1.
 NSaved= 1 IEnMin= 1 EnMin= -115.726397967399     IErMin= 1 ErrMin= 3.14D-04
 ErrMax= 3.14D-04  0.00D+00 EMaxC= 1.00D-01 BMatC= 4.89D-06 BMatP= 4.89D-06
 IDIUse=3 WtCom= 9.97D-01 WtEn= 3.14D-03
 Coeff-Com:  0.100D+01
 Coeff-En:   0.100D+01
 Coeff:      0.100D+01
 Gap=     0.275 Goal=   None    Shift=    0.000
 RMSDP=1.00D-04 MaxDP=8.67D-04              OVMax= 1.33D-03

 Cycle   2  Pass 1  IDiag  1:
 E= -115.726403913893     Delta-E=       -0.000005946494 Rises=F Damp=F
 DIIS: error= 2.05D-04 at cycle   2 NSaved=   2.
 NSaved= 2 IEnMin= 2 EnMin= -115.726403913893     IErMin= 2 ErrMin= 2.05D-04
 ErrMax= 2.05D-04  0.00D+00 EMaxC= 1.00D-01 BMatC= 1.73D-06 BMatP= 4.89D-06
 IDIUse=3 WtCom= 9.98D-01 WtEn= 2.05D-03
 Coeff-Com:  0.317D+00 0.683D+00
 Coeff-En:   0.000D+00 0.100D+01
 Coeff:      0.316D+00 0.684D+00
 Gap=     0.275 Goal=   None    Shift=    0.000
 RMSDP=5.25D-05 MaxDP=5.26D-04 DE=-5.95D-06 OVMax= 5.36D-04

 Cycle   3  Pass 1  IDiag  1:
 E= -115.726404180478     Delta-E=       -0.000000266585 Rises=F Damp=F
 DIIS: error= 1.80D-04 at cycle   3 NSaved=   3.
 NSaved= 3 IEnMin= 3 EnMin= -115.726404180478     IErMin= 3 ErrMin= 1.80D-04
 ErrMax= 1.80D-04  0.00D+00 EMaxC= 1.00D-01 BMatC= 1.42D-06 BMatP= 1.73D-06
 IDIUse=3 WtCom= 9.98D-01 WtEn= 1.80D-03
 Coeff-Com:  0.189D-01 0.471D+00 0.510D+00
 Coeff-En:   0.000D+00 0.455D+00 0.545D+00
 Coeff:      0.189D-01 0.471D+00 0.510D+00
 Gap=     0.275 Goal=   None    Shift=    0.000
 RMSDP=2.46D-05 MaxDP=2.54D-04 DE=-2.67D-07 OVMax= 2.69D-04

 Cycle   4  Pass 1  IDiag  1:
 E= -115.726405232496     Delta-E=       -0.000001052018 Rises=F Damp=F
 DIIS: error= 1.74D-05 at cycle   4 NSaved=   4.
 NSaved= 4 IEnMin= 4 EnMin= -115.726405232496     IErMin= 4 ErrMin= 1.74D-05
 ErrMax= 1.74D-05  0.00D+00 EMaxC= 1.00D-01 BMatC= 7.89D-09 BMatP= 1.42D-06
 IDIUse=1 WtCom= 1.00D+00 WtEn= 0.00D+00
 Coeff-Com:  0.134D-02 0.175D+00 0.204D+00 0.619D+00
 Coeff:      0.134D-02 0.175D+00 0.204D+00 0.619D+00
 Gap=     0.275 Goal=   None    Shift=    0.000
 RMSDP=2.74D-06 MaxDP=3.04D-05 DE=-1.05D-06 OVMax= 3.64D-05

 Cycle   5  Pass 1  IDiag  1:
 E= -115.726405239597     Delta-E=       -0.000000007101 Rises=F Damp=F
 DIIS: error= 7.09D-06 at cycle   5 NSaved=   5.
 NSaved= 5 IEnMin= 5 EnMin= -115.726405239597     IErMin= 5 ErrMin= 7.09D-06
 ErrMax= 7.09D-06  0.00D+00 EMaxC= 1.00D-01 BMatC= 1.10D-09 BMatP= 7.89D-09
 IDIUse=1 WtCom= 1.00D+00 WtEn= 0.00D+00
 Coeff-Com: -0.128D-02 0.537D-01 0.650D-01 0.318D+00 0.565D+00
 Coeff:     -0.128D-02 0.537D-01 0.650D-01 0.318D+00 0.565D+00
 Gap=     0.275 Goal=   None    Shift=    0.000
 RMSDP=8.14D-07 MaxDP=9.52D-06 DE=-7.10D-09 OVMax= 1.06D-05

 Cycle   6  Pass 1  IDiag  1:
 E= -115.726405240689     Delta-E=       -0.000000001092 Rises=F Damp=F
 DIIS: error= 4.36D-07 at cycle   6 NSaved=   6.
 NSaved= 6 IEnMin= 6 EnMin= -115.726405240689     IErMin= 6 ErrMin= 4.36D-07
 ErrMax= 4.36D-07  0.00D+00 EMaxC= 1.00D-01 BMatC= 1.33D-11 BMatP= 1.10D-09
 IDIUse=1 WtCom= 1.00D+00 WtEn= 0.00D+00
 Coeff-Com: -0.254D-03 0.695D-02 0.827D-02 0.588D-01 0.160D+00 0.766D+00
 Coeff:     -0.254D-03 0.695D-02 0.827D-02 0.588D-01 0.160D+00 0.766D+00
 Gap=     0.275 Goal=   None    Shift=    0.000
 RMSDP=9.03D-08 MaxDP=8.03D-07 DE=-1.09D-09 OVMax= 1.37D-06

 Cycle   7  Pass 1  IDiag  1:
 E= -115.726405240702     Delta-E=       -0.000000000013 Rises=F Damp=F
 DIIS: error= 6.91D-08 at cycle   7 NSaved=   7.
 NSaved= 7 IEnMin= 7 EnMin= -115.726405240702     IErMin= 7 ErrMin= 6.91D-08
 ErrMax= 6.91D-08  0.00D+00 EMaxC= 1.00D-01 BMatC= 1.66D-13 BMatP= 1.33D-11
 IDIUse=1 WtCom= 1.00D+00 WtEn= 0.00D+00
 Coeff-Com: -0.298D-04 0.531D-03 0.555D-03 0.793D-02 0.281D-01 0.184D+00
 Coeff-Com:  0.779D+00
 Coeff:     -0.298D-04 0.531D-03 0.555D-03 0.793D-02 0.281D-01 0.184D+00
 Coeff:      0.779D+00
 Gap=     0.275 Goal=   None    Shift=    0.000
 RMSDP=1.01D-08 MaxDP=6.17D-08 DE=-1.26D-11 OVMax= 1.08D-07

 Cycle   8  Pass 1  IDiag  1:
 E= -115.726405240702     Delta-E=       -0.000000000000 Rises=F Damp=F
 DIIS: error= 9.32D-09 at cycle   8 NSaved=   8.
 NSaved= 8 IEnMin= 8 EnMin= -115.726405240702     IErMin= 8 ErrMin= 9.32D-09
 ErrMax= 9.32D-09  0.00D+00 EMaxC= 1.00D-01 BMatC= 2.74D-15 BMatP= 1.66D-13
 IDIUse=1 WtCom= 1.00D+00 WtEn= 0.00D+00
 Coeff-Com: -0.601D-05 0.225D-04 0.190D-04 0.967D-03 0.400D-02 0.295D-01
 Coeff-Com:  0.179D+00 0.787D+00
 Coeff:     -0.601D-05 0.225D-04 0.190D-04 0.967D-03 0.400D-02 0.295D-01
 Coeff:      0.179D+00 0.787D+00
 Gap=     0.275 Goal=   None    Shift=    0.000
 RMSDP=1.75D-09 MaxDP=9.68D-09 DE=-2.27D-13 OVMax= 2.14D-08

 SCF Done:  E(RTPSS-TPSS) =  -115.726405241     A.U. after    8 cycles
            NFock=  8  Conv=0.18D-08     -V/T= 2.0061
 KE= 1.150260046235D+02 PE=-3.514874317267D+02 EE= 8.071613259550D+01
 Leave Link  502 at Wed Oct  7 13:04:34 2020, MaxMem=  2684354560 cpu:              15.4 elap:               1.7
 (Enter /udrive/faculty/rpeverati/g16/g16/l508.exe)
 QCSCF skips out because SCF is already converged.
 Leave Link  508 at Wed Oct  7 13:04:35 2020, MaxMem=  2684354560 cpu:               0.3 elap:               0.5
 (Enter /udrive/faculty/rpeverati/g16/g16/l701.exe)
 ... and contract with generalized density number  0.
 Compute integral first derivatives.
 R6Disp: Adding Grimme-D3(BJ) dispersion energy 1st derivatives to the gradient.
 Leave Link  701 at Wed Oct  7 13:04:36 2020, MaxMem=  2684354560 cpu:               5.5 elap:               0.9
 (Enter /udrive/faculty/rpeverati/g16/g16/l702.exe)
 L702 exits ... SP integral derivatives will be done elsewhere.
 Leave Link  702 at Wed Oct  7 13:04:37 2020, MaxMem=  2684354560 cpu:               1.5 elap:               0.6
 (Enter /udrive/faculty/rpeverati/g16/g16/l703.exe)
 Integral derivatives from FoFJK, PRISM(SPDF).
 Compute integral first derivatives, UseDBF=F ICtDFT=           0.
 Calling FoFJK, ICntrl=      2527 FMM=F ISym2X=1 I1Cent= 0 IOpClX= 0 NMat=1 NMatS=1 NMatT=0.
 FoFJK:  IHMeth= 1 ICntrl=    2527 DoSepK=F KAlg= 0 I1Cent=           0 FoldK=F
 IRaf=         0 NMat=       1 IRICut=       1 DoRegI=T DoRafI=F ISym2E= 1 IDoP0=0 IntGTp=1.
 FoFCou: FMM=F IPFlag=           0 FMFlag=      100000 FMFlg1=         800
         NFxFlg=           0 DoJE=F BraDBF=F KetDBF=F FulRan=T
         wScrn=  0.000000 ICntrl=      2527 IOpCl=  0 I1Cent=           0 NGrid=           0
         NMat0=    1 NMatS0=      1 NMatT0=    0 NMatD0=    1 NMtDS0=    0 NMtDT0=    0
 Petite list used in FoFCou.
 Leave Link  703 at Wed Oct  7 13:04:38 2020, MaxMem=  2684354560 cpu:               5.8 elap:               0.9
 (Enter /udrive/faculty/rpeverati/g16/g16/l716.exe)
 Dipole        = 5.53747420D-01 3.47693761D-01 0.00000000D+00
 ***** Axes restored to original set *****
 -------------------------------------------------------------------
 Center     Atomic                   Forces (Hartrees/Bohr)
 Number     Number              X              Y              Z
 -------------------------------------------------------------------
      1        6           0.000179969    0.000556250   -0.000000000
      2        8          -0.000153313   -0.000381861    0.000000000
      3        1           0.000167114   -0.000176517    0.000000000
      4        1          -0.000011543    0.000054832   -0.000000000
      5        1          -0.000091114   -0.000026352   -0.000091790
      6        1          -0.000091114   -0.000026352    0.000091790
 -------------------------------------------------------------------
 Cartesian Forces:  Max     0.000556250 RMS     0.000183817
 Leave Link  716 at Wed Oct  7 13:04:39 2020, MaxMem=  2684354560 cpu:               1.1 elap:               0.4
 (Enter /udrive/faculty/rpeverati/g16/g16/l103.exe)

 GradGradGradGradGradGradGradGradGradGradGradGradGradGradGradGradGradGrad
 Berny optimization.
 Optmz: redundant internal coordinate code flag= 1
 Using GEDIIS/GDIIS optimizer.
 Red2BG:  D1=  2.67D-01 OD1=  1.71D-02 B2RMS=  0.00D+00 IAprox=0
 FormGI is forming the generalized inverse of G from B-inverse, IUseBI=4.
 Internal  Forces:  Max     0.000328543 RMS     0.000133045
 Search for a local minimum.
 Step number   3 out of a maximum of  100
 All quantities printed in internal units (Hartrees-Bohrs-Radians)
 RMS Force = .13305D-03 SwitMx=.10000D-02 MixMth= 2
 Mixed Optimization -- En-DIIS/RFO-DIIS
 Swapping is turned off.
 Update second derivatives using D2CorX and points    1    2    3
 DE= -1.05D-05 DEPred=-1.12D-05 R= 9.42D-01
 TightC=F SS=  1.41D+00  RLast= 1.07D-02 DXNew= 5.0454D-01 3.2216D-02
 Trust test= 9.42D-01 RLast= 1.07D-02 DXMaxT set to 3.00D-01
 The second derivative matrix:
                          R1        R2        R3        R4        R5
           R1           0.41242
           R2          -0.00243   0.35776
           R3          -0.00356   0.00461   0.34961
           R4          -0.00356   0.00461   0.00405   0.34961
           R5          -0.05141   0.01209   0.00114   0.00114   0.50079
           A1          -0.00978   0.00413   0.00097   0.00097   0.00273
           A2           0.00920  -0.00154   0.00112   0.00112   0.00540
           A3           0.00920  -0.00154   0.00112   0.00112   0.00540
           A4          -0.00677  -0.00060  -0.00143  -0.00143  -0.01888
           A5          -0.00677  -0.00060  -0.00143  -0.00143  -0.01888
           A6           0.00335   0.00036  -0.00040  -0.00040   0.02149
           A7           0.01309  -0.00076   0.00165   0.00165   0.02445
           D1           0.00000   0.00000   0.00000   0.00000   0.00000
           D2          -0.00013   0.00309   0.00070   0.00070   0.03005
           D3           0.00013  -0.00309  -0.00070  -0.00070  -0.03005
                          A1        A2        A3        A4        A5
           A1           0.16461
           A2          -0.00250   0.16137
           A3          -0.00250   0.00137   0.16137
           A4          -0.00379   0.00338   0.00338   0.15631
           A5          -0.00379   0.00338   0.00338  -0.00369   0.15631
           A6           0.00755  -0.00652  -0.00652   0.00357   0.00357
           A7           0.00182  -0.00280  -0.00280   0.00511   0.00511
           D1           0.00000  -0.00000  -0.00000   0.00000   0.00000
           D2           0.01235  -0.00958  -0.00958   0.00319   0.00319
           D3          -0.01235   0.00958   0.00958  -0.00319  -0.00319
                          A6        A7        D1        D2        D3
           A6           0.15932
           A7          -0.00553   0.15251
           D1           0.00000  -0.00000   0.01452
           D2           0.00161  -0.00635   0.00000   0.02122
           D3          -0.00161   0.00635  -0.00000  -0.00671   0.02122
 ITU=  1  1  0
 Eigenvectors of the second derivative matrix:
                           1         2         3         4         5
     Eigenvalues --     0.01452   0.10557   0.10579   0.14792   0.16000
   1         R1        -0.00000  -0.00000  -0.03389   0.06752   0.00000
   2         R2        -0.00000   0.00000   0.01261  -0.00405   0.00000
   3         R3        -0.00000  -0.00000  -0.00131   0.01291   0.00000
   4         R4        -0.00000  -0.00000  -0.00131   0.01291   0.00000
   5         R5        -0.00000  -0.00000  -0.00208   0.08853   0.00000
   6         A1        -0.00000  -0.00000  -0.17472  -0.22692   0.00000
   7         A2         0.00000  -0.23260   0.08770  -0.10883   0.64308
   8         A3         0.00000   0.23260   0.08770  -0.10883  -0.64308
   9         A4        -0.00000  -0.50874  -0.32088   0.14710  -0.29402
  10         A5        -0.00000   0.50874  -0.32088   0.14710   0.29402
  11         A6         0.00000   0.00000   0.57947   0.16316  -0.00000
  12         A7         0.00000   0.00000   0.04414  -0.91704  -0.00000
  13         D1         0.57735   0.49944  -0.00000   0.00000  -0.00000
  14         D2         0.57735  -0.24972  -0.45228  -0.02469  -0.00000
  15         D3         0.57735  -0.24972   0.45228   0.02469   0.00000
                           6         7         8         9        10
     Eigenvalues --     0.16064   0.17797   0.34555   0.34847   0.36179
   1         R1         0.00042   0.04654  -0.00000   0.07775   0.03580
   2         R2         0.00845  -0.02420   0.00000  -0.60309   0.79184
   3         R3         0.00896   0.00303  -0.70711   0.55903   0.42839
   4         R4         0.00896   0.00303   0.70711   0.55903   0.42839
   5         R5         0.00810  -0.03071  -0.00000   0.06229  -0.06509
   6         A1        -0.50636   0.65437   0.00000  -0.00591   0.01790
   7         A2        -0.29162  -0.44359  -0.00000   0.01448  -0.00190
   8         A3        -0.29162  -0.44359  -0.00000   0.01448  -0.00190
   9         A4         0.39432  -0.06847   0.00000  -0.00877  -0.00452
  10         A5         0.39432  -0.06847   0.00000  -0.00877  -0.00452
  11         A6         0.34027   0.38898   0.00000  -0.00721  -0.00494
  12         A7         0.38268  -0.01320  -0.00000   0.02441  -0.00165
  13         D1        -0.00000   0.00000  -0.00000   0.00000   0.00000
  14         D2        -0.00179   0.08270   0.00000  -0.00635   0.00474
  15         D3         0.00179  -0.08270  -0.00000   0.00635  -0.00474
                          11        12
     Eigenvalues --     0.39205   0.52733
   1         R1         0.90439  -0.40850
   2         R2         0.05559   0.07320
   3         R3        -0.05850   0.01702
   4         R4        -0.05850   0.01702
   5         R5         0.40157   0.90652
   6         A1        -0.00050   0.05036
   7         A2         0.02664  -0.01453
   8         A3         0.02664  -0.01453
   9         A4        -0.02339  -0.01030
  10         A5        -0.02339  -0.01030
  11         A6        -0.00982   0.00002
  12         A7         0.08876   0.04468
  13         D1         0.00000   0.00000
  14         D2        -0.01396   0.01115
  15         D3         0.01396  -0.01115
 DoSqrt=T IScMMF=    -3 MM Scaling Factor =       0.00000
 En-DIIS/RFO-DIIS/Sim-DIIS IScMMF=       -3 using points:     3    2
 Iter=   1 RLamda=-3.54806359D-02 Sum=-8.26379063D-07.
 Iter=   2 RLamda=-8.26379063D-07 Sum=-9.57635942D-07.
 Iter=   3 RLamda=-9.57635942D-07 Sum=-9.57635359D-07.
 RFO step:  Lambda=-9.57635942D-07.
 NNeg= 0 NGDIIS= 2 SimSw=  2.50D-03 Rises=F DC= -1.05D-05 SmlDif=  1.00D-05
 NRisDI= 0 DoIntr=F SqrtH=F CThrHd= 10.0 CDAdj=  3.0
 RMS Error=  0.5440315305D-03 NUsed= 2 OKEnD=T EnDIS=F
 Energy Point     1  -0.1157264052D+03
 Energy Point     2  -0.1157263947D+03
 Total En-DIIS matrix:
                 1             2             3 
      1   0.000000D+00 -0.100000D+01 -0.100000D+01
      2  -0.100000D+01  0.000000D+00  0.238226D-04
      3  -0.100000D+01  0.238226D-04  0.000000D+00
 Total RFO-DIIS matrix:
                 1             2             3 
      1   0.000000D+00 -0.100000D+01 -0.100000D+01
      2  -0.100000D+01  0.443955D-05 -0.359344D-05
      3  -0.100000D+01 -0.359344D-05  0.103603D-03
 InvSVX:  RCond= 1.30D-04 Info=           0 Equed=N FErr=  9.86D-16 BErr=  4.49D-17
 DidBck=F Rises=F RFO-DIIS coefs:    0.93029    0.06971
 Iteration  1 RMS(Cart)=  0.00054953 RMS(Int)=  0.00000038
 Iteration  2 RMS(Cart)=  0.00000024 RMS(Int)=  0.00000031
 ITry= 1 IFail=0 DXMaxC= 1.33D-03 DCOld= 1.00D+10 DXMaxT= 3.00D-01 DXLimC= 3.00D+00 Rises=F
 ClnCor:  largest displacement from symmetrization is 5.02D-14 for atom     3.
 Variable       Old X    -DE/DX   Delta X   Delta X   Delta X     New X
                                 (Linear)    (Quad)   (Total)
    R1        2.69743   0.00033  -0.00010   0.00088   0.00078   2.69820
    R2        2.07038  -0.00021  -0.00004  -0.00051  -0.00055   2.06983
    R3        2.08689  -0.00012  -0.00005  -0.00029  -0.00033   2.08656
    R4        2.08689  -0.00012  -0.00005  -0.00029  -0.00033   2.08656
    R5        1.84519  -0.00003  -0.00034   0.00046   0.00013   1.84531
    A1        1.85433  -0.00022  -0.00028  -0.00105  -0.00133   1.85300
    A2        1.96533   0.00007   0.00023   0.00014   0.00037   1.96571
    A3        1.96533   0.00007   0.00023   0.00014   0.00037   1.96571
    A4        1.89077   0.00002  -0.00015   0.00022   0.00007   1.89084
    A5        1.89077   0.00002  -0.00015   0.00022   0.00007   1.89084
    A6        1.89437   0.00002   0.00008   0.00032   0.00040   1.89477
    A7        1.86918  -0.00009   0.00028  -0.00096  -0.00068   1.86850
    D1        3.14159  -0.00000   0.00000  -0.00000   0.00000   3.14159
    D2       -1.07445  -0.00007  -0.00023  -0.00032  -0.00055  -1.07501
    D3        1.07445   0.00007   0.00023   0.00032   0.00055   1.07501
         Item               Value     Threshold  Converged?
 Maximum Force            0.000329     0.000450     YES
 RMS     Force            0.000133     0.000300     YES
 Maximum Displacement     0.001326     0.001800     YES
 RMS     Displacement     0.000550     0.001200     YES
 Predicted change in Energy=-4.788401D-07
 Optimization completed.
    -- Stationary point found.
                           ----------------------------
                           !   Optimized Parameters   !
                           ! (Angstroms and Degrees)  !
 --------------------------                            --------------------------
 ! Name  Definition              Value          Derivative Info.                !
 --------------------------------------------------------------------------------
 ! R1    R(1,2)                  1.4274         -DE/DX =    0.0003              !
 ! R2    R(1,3)                  1.0956         -DE/DX =   -0.0002              !
 ! R3    R(1,5)                  1.1043         -DE/DX =   -0.0001              !
 ! R4    R(1,6)                  1.1043         -DE/DX =   -0.0001              !
 ! R5    R(2,4)                  0.9764         -DE/DX =    0.0                 !
 ! A1    A(2,1,3)              106.2453         -DE/DX =   -0.0002              !
 ! A2    A(2,1,5)              112.6053         -DE/DX =    0.0001              !
 ! A3    A(2,1,6)              112.6053         -DE/DX =    0.0001              !
 ! A4    A(3,1,5)              108.3333         -DE/DX =    0.0                 !
 ! A5    A(3,1,6)              108.3333         -DE/DX =    0.0                 !
 ! A6    A(5,1,6)              108.5393         -DE/DX =    0.0                 !
 ! A7    A(1,2,4)              107.096          -DE/DX =   -0.0001              !
 ! D1    D(3,1,2,4)            180.0            -DE/DX =    0.0                 !
 ! D2    D(5,1,2,4)            -61.5616         -DE/DX =   -0.0001              !
 ! D3    D(6,1,2,4)             61.5616         -DE/DX =    0.0001              !
 --------------------------------------------------------------------------------
 Lowest energy point so far.  Saving SCF results.
 Largest change from initial coordinates is atom    4       0.020 Angstoms.
 GradGradGradGradGradGradGradGradGradGradGradGradGradGradGradGradGradGrad

 Leave Link  103 at Wed Oct  7 13:04:40 2020, MaxMem=  2684354560 cpu:               4.6 elap:               0.9
 (Enter /udrive/faculty/rpeverati/g16/g16/l202.exe)
                          Input orientation:                          
 ---------------------------------------------------------------------
 Center     Atomic      Atomic             Coordinates (Angstroms)
 Number     Number       Type             X           Y           Z
 ---------------------------------------------------------------------
      1          6           0       -0.046093    0.660744    0.000000
      2          8           0       -0.059567   -0.766608    0.000000
      3          1           0       -1.095008    0.977154    0.000000
      4          1           0        0.870967   -1.062450    0.000000
      5          1           0        0.443389    1.080628    0.896470
      6          1           0        0.443389    1.080628   -0.896470
 ---------------------------------------------------------------------
                    Distance matrix (angstroms):
                    1          2          3          4          5
     1  C    0.000000
     2  O    1.427416   0.000000
     3  H    1.095599   2.028015   0.000000
     4  H    1.952024   0.976430   2.832850   0.000000
     5  H    1.104333   2.113978   1.783544   2.362046   0.000000
     6  H    1.104333   2.113978   1.783544   2.362046   1.792939
                    6
     6  H    0.000000
 Stoichiometry    CH4O
 Framework group  CS[SG(CH2O),X(H2)]
 Deg. of freedom     8
 Full point group                 CS      NOp   2
 RotChk:  IX=0 Diff= 3.15D-16
 Largest Abelian subgroup         CS      NOp   2
 Largest concise Abelian subgroup CS      NOp   2
                         Standard orientation:                         
 ---------------------------------------------------------------------
 Center     Atomic      Atomic             Coordinates (Angstroms)
 Number     Number       Type             X           Y           Z
 ---------------------------------------------------------------------
      1          6           0       -0.047357    0.665463    0.000000
      2          8           0       -0.047357   -0.761954    0.000000
      3          1           0       -1.099212    0.971957    0.000000
      4          1           0        0.885928   -1.048998    0.000000
      5          1           0        0.438139    1.089948    0.896470
      6          1           0        0.438139    1.089948   -0.896470
 ---------------------------------------------------------------------
 Rotational constants (GHZ):         125.8283930          24.5462146          23.6539673
 Leave Link  202 at Wed Oct  7 13:04:41 2020, MaxMem=  2684354560 cpu:               1.8 elap:               0.6
 (Enter /udrive/faculty/rpeverati/g16/g16/l601.exe)
 Copying SCF densities to generalized density rwf, IOpCl= 0 IROHF=0.

 **********************************************************************

            Population analysis using the SCF density.

 **********************************************************************

 Orbital symmetries:
       Occupied  (A') (A') (A') (A') (A') (A") (A') (A') (A")
       Virtual   (A') (A') (A') (A") (A') (A') (A') (A") (A') (A")
                 (A') (A') (A") (A') (A') (A') (A") (A') (A') (A")
                 (A') (A') (A") (A') (A") (A') (A')
 The electronic state is 1-A'.
 Alpha  occ. eigenvalues --  -18.88997 -10.03202  -0.93672  -0.62383  -0.45168
 Alpha  occ. eigenvalues --   -0.38768  -0.37239  -0.28474  -0.21406
 Alpha virt. eigenvalues --    0.06089   0.11780   0.14908   0.15932   0.17952
 Alpha virt. eigenvalues --    0.50921   0.55660   0.56602   0.76290   0.83291
 Alpha virt. eigenvalues --    0.84901   0.89699   0.94941   0.97643   1.01104
 Alpha virt. eigenvalues --    1.09890   1.46930   1.48922   1.61441   1.71258
 Alpha virt. eigenvalues --    2.00406   2.10507   2.11232   2.32166   2.37549
 Alpha virt. eigenvalues --    2.42706   2.76106
          Condensed to atoms (all electrons):
               1          2          3          4          5          6
     1  C    4.871267   0.269289   0.384813  -0.035979   0.364987   0.364987
     2  O    0.269289   8.213658  -0.036025   0.241039  -0.038425  -0.038425
     3  H    0.384813  -0.036025   0.549605   0.006848  -0.036428  -0.036428
     4  H   -0.035979   0.241039   0.006848   0.405783  -0.005145  -0.005145
     5  H    0.364987  -0.038425  -0.036428  -0.005145   0.631403  -0.051522
     6  H    0.364987  -0.038425  -0.036428  -0.005145  -0.051522   0.631403
 Mulliken charges:
               1
     1  C   -0.219363
     2  O   -0.611112
     3  H    0.167615
     4  H    0.392598
     5  H    0.135131
     6  H    0.135131
 Sum of Mulliken charges =  -0.00000
 Mulliken charges with hydrogens summed into heavy atoms:
               1
     1  C    0.218513
     2  O   -0.218513
 Electronic spatial extent (au):  <R**2>=             84.5417
 Charge=              0.0000 electrons
 Dipole moment (field-independent basis, Debye):
    X=              1.4075    Y=              0.8837    Z=             -0.0000  Tot=              1.6619
 Quadrupole moment (field-independent basis, Debye-Ang):
   XX=            -11.5190   YY=            -13.0035   ZZ=            -13.5938
   XY=             -2.0912   XZ=              0.0000   YZ=              0.0000
 Traceless Quadrupole moment (field-independent basis, Debye-Ang):
   XX=              1.1865   YY=             -0.2981   ZZ=             -0.8884
   XY=             -2.0912   XZ=              0.0000   YZ=              0.0000
 Octapole moment (field-independent basis, Debye-Ang**2):
  XXX=              1.1102  YYY=             -3.9914  ZZZ=             -0.0000  XYY=              2.1353
  XXY=             -2.2791  XXZ=              0.0000  XZZ=              0.5527  YZZ=             -0.5795
  YYZ=              0.0000  XYZ=              0.0000
 Hexadecapole moment (field-independent basis, Debye-Ang**3):
 XXXX=            -18.4881 YYYY=            -61.1024 ZZZZ=            -19.0866 XXXY=             -1.0115
 XXXZ=              0.0000 YYYX=             -1.1062 YYYZ=              0.0000 ZZZX=              0.0000
 ZZZY=              0.0000 XXYY=            -12.0402 XXZZ=             -6.6402 YYZZ=            -13.7076
 XXYZ=              0.0000 YYXZ=              0.0000 ZZXY=              0.7537
 N-N= 4.001888926694D+01 E-N=-3.514874316692D+02  KE= 1.150260046235D+02
 No NMR shielding tensors so no spin-rotation constants.
 Leave Link  601 at Wed Oct  7 13:04:42 2020, MaxMem=  2684354560 cpu:               3.4 elap:               0.8
 (Enter /udrive/faculty/rpeverati/g16/g16/l9999.exe)

 Test job not archived.
 1\1\GINC-NODE61\FOpt\RTPSSTPSS\6-31G(d)\C1H4O1\RPEVERATI\07-Oct-2020\0
 \\#P Opt(MaxCyc=100) TPSSTPSS/6-31G* 5D 7F Integral=UltraFineGrid SCF=
 (NoSymm,XQC,MaxCyc=120) EmpiricalDispersion=GD3BJ IOp(1/33=1)\\TS sear
 ch on BH76.\\0,1\C,-0.0460926426,0.6607442793,0.\O,-0.0595666944,-0.76
 66084733,0.\H,-1.095007757,0.977153831,0.\H,0.8709672352,-1.0624499604
 ,0.\H,0.4433888103,1.0806276643,0.8964695388\H,0.4433888103,1.08062766
 43,-0.8964695388\\Version=ES64L-G16RevA.03\State=1-A'\HF=-115.7264052\
 RMSD=1.754e-09\RMSF=1.838e-04\Dipole=0.5570048,0.3424512,0.\Quadrupole
 =0.8526728,-0.1921822,-0.6604906,-1.564894,0.,0.\PG=CS [SG(C1H2O1),X(H
 2)]\\@


 GARBAGE IN, GARBAGE OUT
 Job cpu time:       0 days  0 hours  3 minutes  8.8 seconds.
 Elapsed time:       0 days  0 hours  0 minutes 33.6 seconds.
 File lengths (MBytes):  RWF=      5 Int=      0 D2E=      0 Chk=      1 Scr=      1
 Normal termination of Gaussian 16 at Wed Oct  7 13:04:44 2020.
