 Entering Gaussian System, Link 0=g16
 Input=MN_39_fch3fts_BH76_TPSSDBJ_631Gs.in
 Output=MN_39_fch3fts_BH76_TPSSDBJ_631Gs.log
 Initial command:
 /udrive/faculty/rpeverati/g16/g16/l1.exe "/udrive/scratch-directories/gaussian09/rpeverati/Gau-34584.inp" -scrdir="/udrive/scratch-directories/gaussian09/rpeverati/"
 Entering Link 1 = /udrive/faculty/rpeverati/g16/g16/l1.exe PID=     34585.
  
 Copyright (c) 1988,1990,1992,1993,1995,1998,2003,2009,2016,
            Gaussian, Inc.  All Rights Reserved.
  
 This is part of the Gaussian(R) 16 program.  It is based on
 the Gaussian(R) 09 system (copyright 2009, Gaussian, Inc.),
 the Gaussian(R) 03 system (copyright 2003, Gaussian, Inc.),
 the Gaussian(R) 98 system (copyright 1998, Gaussian, Inc.),
 the Gaussian(R) 94 system (copyright 1995, Gaussian, Inc.),
 the Gaussian 92(TM) system (copyright 1992, Gaussian, Inc.),
 the Gaussian 90(TM) system (copyright 1990, Gaussian, Inc.),
 the Gaussian 88(TM) system (copyright 1988, Gaussian, Inc.),
 the Gaussian 86(TM) system (copyright 1986, Carnegie Mellon
 University), and the Gaussian 82(TM) system (copyright 1983,
 Carnegie Mellon University). Gaussian is a federally registered
 trademark of Gaussian, Inc.
  
 This software contains proprietary and confidential information,
 including trade secrets, belonging to Gaussian, Inc.
  
 This software is provided under written license and may be
 used, copied, transmitted, or stored only in accord with that
 written license.
  
 The following legend is applicable only to US Government
 contracts under FAR:
  
                    RESTRICTED RIGHTS LEGEND
  
 Use, reproduction and disclosure by the US Government is
 subject to restrictions as set forth in subparagraphs (a)
 and (c) of the Commercial Computer Software - Restricted
 Rights clause in FAR 52.227-19.
  
 Gaussian, Inc.
 340 Quinnipiac St., Bldg. 40, Wallingford CT 06492
  
  
 ---------------------------------------------------------------
 Warning -- This program may not be used in any manner that
 competes with the business of Gaussian, Inc. or will provide
 assistance to any competitor of Gaussian, Inc.  The licensee
 of this program is prohibited from giving any competitor of
 Gaussian, Inc. access to this program.  By using this program,
 the user acknowledges that Gaussian, Inc. is engaged in the
 business of creating and licensing software in the field of
 computational chemistry and represents and warrants to the
 licensee that it is not a competitor of Gaussian, Inc. and that
 it will not use this program in any manner prohibited above.
 ---------------------------------------------------------------
  

 Cite this work as:
 Gaussian 16, Revision A.03,
 M. J. Frisch, G. W. Trucks, H. B. Schlegel, G. E. Scuseria, 
 M. A. Robb, J. R. Cheeseman, G. Scalmani, V. Barone, 
 G. A. Petersson, H. Nakatsuji, X. Li, M. Caricato, A. V. Marenich, 
 J. Bloino, B. G. Janesko, R. Gomperts, B. Mennucci, H. P. Hratchian, 
 J. V. Ortiz, A. F. Izmaylov, J. L. Sonnenberg, D. Williams-Young, 
 F. Ding, F. Lipparini, F. Egidi, J. Goings, B. Peng, A. Petrone, 
 T. Henderson, D. Ranasinghe, V. G. Zakrzewski, J. Gao, N. Rega, 
 G. Zheng, W. Liang, M. Hada, M. Ehara, K. Toyota, R. Fukuda, 
 J. Hasegawa, M. Ishida, T. Nakajima, Y. Honda, O. Kitao, H. Nakai, 
 T. Vreven, K. Throssell, J. A. Montgomery, Jr., J. E. Peralta, 
 F. Ogliaro, M. J. Bearpark, J. J. Heyd, E. N. Brothers, K. N. Kudin, 
 V. N. Staroverov, T. A. Keith, R. Kobayashi, J. Normand, 
 K. Raghavachari, A. P. Rendell, J. C. Burant, S. S. Iyengar, 
 J. Tomasi, M. Cossi, J. M. Millam, M. Klene, C. Adamo, R. Cammi, 
 J. W. Ochterski, R. L. Martin, K. Morokuma, O. Farkas, 
 J. B. Foresman, and D. J. Fox, Gaussian, Inc., Wallingford CT, 2016.
 
 ******************************************
 Gaussian 16:  ES64L-G16RevA.03 25-Dec-2016
                 7-Oct-2020 
 ******************************************
 %NoSave
 %nproc=12
 Will use up to   12 processors via shared memory.
 %mem=20GB
 %chk=MN_39_fch3fts_BH76_TPSSDBJ_631Gs
 ----------------------------------------------------------------------
 #P Opt(TS,MaxCyc=50,NoEigenTest,MaxStep=10,AddRedundant) TPSSTPSS/6-31
 G* 5D 7F Integral=UltraFineGrid SCF=(NoSymm,XQC,MaxCyc=120) EmpiricalD
 ispersion=GD3BJ IOp(1/33=1)
 ----------------------------------------------------------------------
 1/5=1,6=50,8=10,11=1,18=120,26=4,33=1,38=1/1,3;
 2/9=110,12=2,17=6,18=5,40=1/2;
 3/5=1,6=6,7=1,8=11,11=2,25=1,30=1,71=1,74=2523,75=-5,124=41/1,2,3;
 4/9=2/1;
 5/5=2,7=120,8=3,13=1,38=5/2,8;
 6/7=2,8=2,9=2,10=2,28=1/1;
 7//1,2,3,16;
 1/5=1,6=50,8=10,11=1,18=20,26=4,33=1/3(2);
 2/9=110/2;
 99//99;
 2/9=110/2;
 3/5=1,6=6,7=1,8=11,11=2,25=1,30=1,71=1,74=2523,75=-5,124=41/1,2,3;
 4/5=5,9=2,16=3,69=1/1;
 5/5=2,7=120,8=3,13=1,38=5/2,8;
 7//1,2,3,16;
 1/5=1,6=50,8=10,11=1,18=20,26=4,33=1/3(-5);
 2/9=110/2;
 6/7=2,8=2,9=2,10=2,19=2,28=1/1;
 99/9=1/99;
 Leave Link    1 at Wed Oct  7 13:04:50 2020, MaxMem=  2684354560 cpu:               6.8 elap:               0.7
 (Enter /udrive/faculty/rpeverati/g16/g16/l101.exe)
 ONIOM data not found on unit 2.
 ------------------
 TS search on BH76.
 ------------------
 TstMul:  ICh=    -1
 TstMul:  Mul=     1
 TstMul:  ICh=    -1
 TstMul:  Mul=     1
 Symbolic Z-matrix:
 Charge = -1 Multiplicity = 1
 F                     1.82365   0.00022   0.00008 
 C                     0.00024  -0.00039  -0.00021 
 H                     0.00016  -0.30519   1.02504 
 H                     0.00038   1.03988  -0.24896 
 H                    0.        -0.73656  -0.77621 
 F                    -1.82387   0.00024   0.00008 
 
 RdStrC is calling ZToCFu for IStruc=1 NZ=     6.
 PrtBox:  NBox=     1 Levels=  1 BoxLen=    8.00 SMaxX=        6.89
          Shift=            3.446610            1.391890            1.466820
 Box      1 Number                   0 centers from      1 to      6:
 After GenITR:
 ITRead=  0  0  0  0  0  0
 MicOpt= -1 -1 -1 -1 -1 -1
 Add virtual bond connecting atoms C2         and F1         Dist= 3.45D+00.
 Add virtual bond connecting atoms F6         and C2         Dist= 3.45D+00.
 The following ModRedundant input section has been read:
 
 ITRead=  0  0  0  0  0  0
 MicOpt= -1 -1 -1 -1 -1 -1
 NAtoms=      6 NQM=        6 NQMF=       0 NMMI=      0 NMMIF=      0
                NMic=       0 NMicF=      0.
                    Isotopes and Nuclear Properties:
 (Nuclear quadrupole moments (NQMom) in fm**2, nuclear magnetic moments (NMagM)
  in nuclear magnetons)

  Atom         1           2           3           4           5           6
 IAtWgt=          19          12           1           1           1          19
 AtmWgt=  18.9984033  12.0000000   1.0078250   1.0078250   1.0078250  18.9984033
 NucSpn=           1           0           1           1           1           1
 AtZEff=   0.0000000   0.0000000   0.0000000   0.0000000   0.0000000   0.0000000
 NQMom=    0.0000000   0.0000000   0.0000000   0.0000000   0.0000000   0.0000000
 NMagM=    2.6288670   0.0000000   2.7928460   2.7928460   2.7928460   2.6288670
 AtZNuc=   9.0000000   6.0000000   1.0000000   1.0000000   1.0000000   9.0000000
 No MM parameters found.
 Leave Link  101 at Wed Oct  7 13:04:50 2020, MaxMem=  2684354560 cpu:               3.9 elap:               0.4
 (Enter /udrive/faculty/rpeverati/g16/g16/l103.exe)

 GradGradGradGradGradGradGradGradGradGradGradGradGradGradGradGradGradGrad
 Berny optimization.
 Optmz: redundant internal coordinate code flag= 1
 Initialization pass.
                           ----------------------------
                           !    Initial Parameters    !
                           ! (Angstroms and Degrees)  !
 --------------------------                            --------------------------
 ! Name  Definition              Value          Derivative Info.                !
 --------------------------------------------------------------------------------
 ! R1    R(1,2)                  1.8234         estimate D2E/DX2                !
 ! R2    R(2,3)                  1.0696         estimate D2E/DX2                !
 ! R3    R(2,4)                  1.0696         estimate D2E/DX2                !
 ! R4    R(2,5)                  1.0696         estimate D2E/DX2                !
 ! R5    R(2,6)                  1.8241         estimate D2E/DX2                !
 ! A1    A(1,2,3)               90.001          estimate D2E/DX2                !
 ! A2    A(1,2,4)               89.9759         estimate D2E/DX2                !
 ! A3    A(1,2,5)               90.0326         estimate D2E/DX2                !
 ! A4    A(3,2,4)              120.0049         estimate D2E/DX2                !
 ! A5    A(3,2,5)              119.9518         estimate D2E/DX2                !
 ! A6    A(3,2,6)               89.9925         estimate D2E/DX2                !
 ! A7    A(4,2,5)              120.0433         estimate D2E/DX2                !
 ! A8    A(4,2,6)               89.9906         estimate D2E/DX2                !
 ! A9    A(5,2,6)               90.0075         estimate D2E/DX2                !
 ! A10   L(1,2,6,3,-1)         179.9934         estimate D2E/DX2                !
 ! A11   L(1,2,6,3,-2)         179.9574         estimate D2E/DX2                !
 ! D1    D(3,2,5,4)            179.9891         estimate D2E/DX2                !
 ! D2    D(3,2,6,4)            120.0049         estimate D2E/DX2                !
 ! D3    D(3,2,6,5)           -119.9518         estimate D2E/DX2                !
 ! D4    D(4,2,6,5)            120.0433         estimate D2E/DX2                !
 --------------------------------------------------------------------------------
 Maximum allowed force set to 1.00D+20.
 Trust Radius=1.00D-01 FncErr=1.00D-07 GrdErr=1.00D-06 EigMax=2.50D+02 EigMin=1.00D-04
 Number of steps in this run=     50 maximum allowed number of steps=    100.
 Search for a saddle point of order  1.
 GradGradGradGradGradGradGradGradGradGradGradGradGradGradGradGradGradGrad

 Leave Link  103 at Wed Oct  7 13:04:51 2020, MaxMem=  2684354560 cpu:               0.9 elap:               0.3
 (Enter /udrive/faculty/rpeverati/g16/g16/l202.exe)
                          Input orientation:                          
 ---------------------------------------------------------------------
 Center     Atomic      Atomic             Coordinates (Angstroms)
 Number     Number       Type             X           Y           Z
 ---------------------------------------------------------------------
      1          9           0        1.823651    0.000222    0.000077
      2          6           0        0.000236   -0.000387   -0.000214
      3          1           0        0.000156   -0.305186    1.025037
      4          1           0        0.000379    1.039881   -0.248964
      5          1           0       -0.000003   -0.736556   -0.776208
      6          9           0       -1.823867    0.000243    0.000081
 ---------------------------------------------------------------------
                    Distance matrix (angstroms):
                    1          2          3          4          5
     1  F    0.000000
     2  C    1.823415   0.000000
     3  H    2.113989   1.069599   0.000000
     4  H    2.113582   1.069595   1.852643   0.000000
     5  H    2.114515   1.069632   1.852178   1.853029   0.000000
     6  F    3.647518   1.824104   2.114447   2.114414   2.114705
                    6
     6  F    0.000000
 Stoichiometry    CH3F2(1-)
 Framework group  C1[X(CH3F2)]
 Deg. of freedom    12
 Full point group                 C1      NOp   1
 Largest Abelian subgroup         C1      NOp   1
 Largest concise Abelian subgroup C1      NOp   1
                         Standard orientation:                         
 ---------------------------------------------------------------------
 Center     Atomic      Atomic             Coordinates (Angstroms)
 Number     Number       Type             X           Y           Z
 ---------------------------------------------------------------------
      1          9           0        1.823651    0.000222    0.000077
      2          6           0        0.000236   -0.000387   -0.000214
      3          1           0        0.000156   -0.304327    1.025293
      4          1           0        0.000379    1.039672   -0.249835
      5          1           0       -0.000003   -0.737207   -0.775590
      6          9           0       -1.823867    0.000243    0.000081
 ---------------------------------------------------------------------
 Rotational constants (GHZ):         146.1033732           3.9448937           3.9448370
 Leave Link  202 at Wed Oct  7 13:04:52 2020, MaxMem=  2684354560 cpu:               0.6 elap:               0.4
 (Enter /udrive/faculty/rpeverati/g16/g16/l301.exe)
 Standard basis: 6-31G(d) (5D, 7F)
 Ernie: Thresh=  0.10000D-02 Tol=  0.10000D-05 Strict=F.
 There are    51 symmetry adapted cartesian basis functions of A   symmetry.
 There are    48 symmetry adapted basis functions of A   symmetry.
    48 basis functions,    96 primitive gaussians,    51 cartesian basis functions
    14 alpha electrons       14 beta electrons
       nuclear repulsion energy        66.3661313160 Hartrees.
 IExCor= 2523 DFT=T Ex=TPSS Corr=TPSS ExCW=0 ScaHFX=  0.000000
 ScaDFX=  1.000000  1.000000  1.000000  1.000000 ScalE2=  1.000000  1.000000
 IRadAn=      5 IRanWt=     -1 IRanGd=            0 ICorTp=0 IEmpDi=141
 NAtoms=    6 NActive=    6 NUniq=    6 SFac= 1.00D+00 NAtFMM=   60 NAOKFM=F Big=F
 Integral buffers will be    131072 words long.
 Raffenetti 2 integral format.
 Two-electron integral symmetry is turned on.
 R6Disp:  Grimme-D3(BJ) Dispersion energy=       -0.0023280135 Hartrees.
 Nuclear repulsion after empirical dispersion term =       66.3638033025 Hartrees.
 Leave Link  301 at Wed Oct  7 13:04:52 2020, MaxMem=  2684354560 cpu:               1.4 elap:               0.5
 (Enter /udrive/faculty/rpeverati/g16/g16/l302.exe)
 NPDir=0 NMtPBC=     1 NCelOv=     1 NCel=       1 NClECP=     1 NCelD=      1
         NCelK=      1 NCelE2=     1 NClLst=     1 CellRange=     0.0.
 One-electron integrals computed using PRISM.
 One-electron integral symmetry used in STVInt
 NBasis=    48 RedAO= T EigKep=  1.71D-02  NBF=    48
 NBsUse=    48 1.00D-06 EigRej= -1.00D+00 NBFU=    48
 Precomputing XC quadrature grid using
 IXCGrd= 4 IRadAn=           5 IRanWt=          -1 IRanGd=           0 AccXCQ= 0.00D+00.
 Generated NRdTot=       0 NPtTot=           0 NUsed=           0 NTot=          32
 NSgBfM=    51    51    51    51    51 MxSgAt=     6 MxSgA2=     6.
 Leave Link  302 at Wed Oct  7 13:04:53 2020, MaxMem=  2684354560 cpu:               2.6 elap:               0.7
 (Enter /udrive/faculty/rpeverati/g16/g16/l303.exe)
 DipDrv:  MaxL=1.
 Leave Link  303 at Wed Oct  7 13:04:54 2020, MaxMem=  2684354560 cpu:               1.2 elap:               0.5
 (Enter /udrive/faculty/rpeverati/g16/g16/l401.exe)
 SCF N**3 symmetry information disabled.
 ExpMin= 1.61D-01 ExpMax= 7.00D+03 ExpMxC= 1.05D+03 IAcc=3 IRadAn=         5 AccDes= 0.00D+00
 Harris functional with IExCor= 1009 and IRadAn=       5 diagonalized for initial guess.
 HarFok:  IExCor= 1009 AccDes= 0.00D+00 IRadAn=         5 IDoV= 1 UseB2=F ITyADJ=14
 ICtDFT=  3500011 ScaDFX=  1.000000  1.000000  1.000000  1.000000
 FoFCou: FMM=F IPFlag=           0 FMFlag=      100000 FMFlg1=           0
         NFxFlg=           0 DoJE=T BraDBF=F KetDBF=T FulRan=T
         wScrn=  0.000000 ICntrl=       500 IOpCl=  0 I1Cent=   200000004 NGrid=           0
         NMat0=    1 NMatS0=      1 NMatT0=    0 NMatD0=    1 NMtDS0=    0 NMtDT0=    0
 Petite list used in FoFCou.
 Harris En= -239.534089617654    
 JPrj=0 DoOrth=F DoCkMO=F.
 Leave Link  401 at Wed Oct  7 13:04:55 2020, MaxMem=  2684354560 cpu:               5.1 elap:               0.8
 (Enter /udrive/faculty/rpeverati/g16/g16/l502.exe)
 Keep J ints in memory in canonical form, NReq=11159158.
 FoFCou: FMM=F IPFlag=           0 FMFlag=           0 FMFlg1=           0
         NFxFlg=           0 DoJE=F BraDBF=F KetDBF=F FulRan=T
         wScrn=  0.000000 ICntrl=       600 IOpCl=  0 I1Cent=           0 NGrid=           0
         NMat0=    1 NMatS0=   1176 NMatT0=    0 NMatD0=    1 NMtDS0=    0 NMtDT0=    0
 Symmetry not used in FoFCou.
 Two-electron integral symmetry not used.
 Closed shell SCF:
 Using DIIS extrapolation, IDIIS=  1040.
 NGot=  2684354560 LenX=  2683655928 LenY=  2683652886
 Requested convergence on RMS density matrix=1.00D-08 within 120 cycles.
 Requested convergence on MAX density matrix=1.00D-06.
 Requested convergence on             energy=1.00D-06.
 No special actions if energy rises.
 Integral accuracy reduced to 1.0D-05 until final iterations.

 Cycle   1  Pass 0  IDiag  1:
 E= -239.430264272322    
 DIIS: error= 6.08D-02 at cycle   1 NSaved=   1.
 NSaved= 1 IEnMin= 1 EnMin= -239.430264272322     IErMin= 1 ErrMin= 6.08D-02
 ErrMax= 6.08D-02  0.00D+00 EMaxC= 1.00D-01 BMatC= 1.59D-01 BMatP= 1.59D-01
 IDIUse=3 WtCom= 3.92D-01 WtEn= 6.08D-01
 Coeff-Com:  0.100D+01
 Coeff-En:   0.100D+01
 Coeff:      0.100D+01
 Gap=     0.199 Goal=   None    Shift=    0.000
 GapD=    0.199 DampG=1.000 DampE=0.500 DampFc=0.5000 IDamp=-1.
 Damping current iteration by 5.00D-01
 RMSDP=1.95D-02 MaxDP=1.81D-01              OVMax= 2.17D-01

 Cycle   2  Pass 0  IDiag  1:
 E= -239.463939220538     Delta-E=       -0.033674948216 Rises=F Damp=T
 DIIS: error= 1.53D-02 at cycle   2 NSaved=   2.
 NSaved= 2 IEnMin= 2 EnMin= -239.463939220538     IErMin= 2 ErrMin= 1.53D-02
 ErrMax= 1.53D-02  0.00D+00 EMaxC= 1.00D-01 BMatC= 1.53D-02 BMatP= 1.59D-01
 IDIUse=3 WtCom= 8.47D-01 WtEn= 1.53D-01
 Coeff-Com:  0.207D+00 0.793D+00
 Coeff-En:   0.326D+00 0.674D+00
 Coeff:      0.225D+00 0.775D+00
 Gap=     0.270 Goal=   None    Shift=    0.000
 RMSDP=5.44D-03 MaxDP=1.00D-01 DE=-3.37D-02 OVMax= 1.69D-01

 Cycle   3  Pass 0  IDiag  1:
 E= -239.533219465503     Delta-E=       -0.069280244965 Rises=F Damp=F
 DIIS: error= 1.61D-02 at cycle   3 NSaved=   3.
 NSaved= 3 IEnMin= 3 EnMin= -239.533219465503     IErMin= 2 ErrMin= 1.53D-02
 ErrMax= 1.61D-02  0.00D+00 EMaxC= 1.00D-01 BMatC= 8.32D-03 BMatP= 1.53D-02
 IDIUse=3 WtCom= 8.39D-01 WtEn= 1.61D-01
 Coeff-Com:  0.988D-01 0.471D+00 0.430D+00
 Coeff-En:   0.000D+00 0.000D+00 0.100D+01
 Coeff:      0.829D-01 0.396D+00 0.522D+00
 Gap=     0.236 Goal=   None    Shift=    0.000
 RMSDP=2.13D-03 MaxDP=2.95D-02 DE=-6.93D-02 OVMax= 5.96D-02

 Cycle   4  Pass 0  IDiag  1:
 E= -239.540665792818     Delta-E=       -0.007446327315 Rises=F Damp=F
 DIIS: error= 6.01D-03 at cycle   4 NSaved=   4.
 NSaved= 4 IEnMin= 4 EnMin= -239.540665792818     IErMin= 4 ErrMin= 6.01D-03
 ErrMax= 6.01D-03  0.00D+00 EMaxC= 1.00D-01 BMatC= 1.59D-03 BMatP= 8.32D-03
 IDIUse=3 WtCom= 9.40D-01 WtEn= 6.01D-02
 Coeff-Com:  0.126D-01-0.495D-02 0.290D+00 0.702D+00
 Coeff-En:   0.000D+00 0.000D+00 0.171D+00 0.829D+00
 Coeff:      0.119D-01-0.465D-02 0.283D+00 0.710D+00
 Gap=     0.245 Goal=   None    Shift=    0.000
 RMSDP=6.05D-04 MaxDP=8.98D-03 DE=-7.45D-03 OVMax= 1.75D-02

 Cycle   5  Pass 0  IDiag  1:
 E= -239.542157613691     Delta-E=       -0.001491820873 Rises=F Damp=F
 DIIS: error= 2.14D-04 at cycle   5 NSaved=   5.
 NSaved= 5 IEnMin= 5 EnMin= -239.542157613691     IErMin= 5 ErrMin= 2.14D-04
 ErrMax= 2.14D-04  0.00D+00 EMaxC= 1.00D-01 BMatC= 1.51D-06 BMatP= 1.59D-03
 IDIUse=3 WtCom= 9.98D-01 WtEn= 2.14D-03
 Coeff-Com:  0.217D-02-0.363D-02 0.589D-01 0.165D+00 0.777D+00
 Coeff-En:   0.000D+00 0.000D+00 0.000D+00 0.000D+00 0.100D+01
 Coeff:      0.216D-02-0.362D-02 0.587D-01 0.165D+00 0.778D+00
 Gap=     0.245 Goal=   None    Shift=    0.000
 RMSDP=2.13D-05 MaxDP=3.11D-04 DE=-1.49D-03 OVMax= 4.83D-04

 Cycle   6  Pass 0  IDiag  1:
 E= -239.542158498330     Delta-E=       -0.000000884640 Rises=F Damp=F
 DIIS: error= 9.14D-05 at cycle   6 NSaved=   6.
 NSaved= 6 IEnMin= 6 EnMin= -239.542158498330     IErMin= 6 ErrMin= 9.14D-05
 ErrMax= 9.14D-05  0.00D+00 EMaxC= 1.00D-01 BMatC= 3.71D-07 BMatP= 1.51D-06
 IDIUse=1 WtCom= 1.00D+00 WtEn= 0.00D+00
 Coeff-Com:  0.133D-02-0.242D-02 0.352D-01 0.995D-01 0.518D+00 0.348D+00
 Coeff:      0.133D-02-0.242D-02 0.352D-01 0.995D-01 0.518D+00 0.348D+00
 Gap=     0.245 Goal=   None    Shift=    0.000
 RMSDP=1.11D-05 MaxDP=1.59D-04 DE=-8.85D-07 OVMax= 3.69D-04

 Cycle   7  Pass 0  IDiag  1:
 E= -239.542158764352     Delta-E=       -0.000000266022 Rises=F Damp=F
 DIIS: error= 2.07D-05 at cycle   7 NSaved=   7.
 NSaved= 7 IEnMin= 7 EnMin= -239.542158764352     IErMin= 7 ErrMin= 2.07D-05
 ErrMax= 2.07D-05  0.00D+00 EMaxC= 1.00D-01 BMatC= 2.61D-08 BMatP= 3.71D-07
 IDIUse=1 WtCom= 1.00D+00 WtEn= 0.00D+00
 Coeff-Com:  0.258D-03-0.485D-03 0.452D-02 0.121D-01 0.874D-01 0.202D+00
 Coeff-Com:  0.695D+00
 Coeff:      0.258D-03-0.485D-03 0.452D-02 0.121D-01 0.874D-01 0.202D+00
 Coeff:      0.695D+00
 Gap=     0.245 Goal=   None    Shift=    0.000
 RMSDP=2.76D-06 MaxDP=4.28D-05 DE=-2.66D-07 OVMax= 7.12D-05

 Initial convergence to 1.0D-05 achieved.  Increase integral accuracy.
 Cycle   8  Pass 1  IDiag  1:
 E= -239.542158093677     Delta-E=        0.000000670675 Rises=F Damp=F
 DIIS: error= 1.95D-06 at cycle   1 NSaved=   1.
 NSaved= 1 IEnMin= 1 EnMin= -239.542158093677     IErMin= 1 ErrMin= 1.95D-06
 ErrMax= 1.95D-06  0.00D+00 EMaxC= 1.00D-01 BMatC= 2.96D-10 BMatP= 2.96D-10
 IDIUse=1 WtCom= 1.00D+00 WtEn= 0.00D+00
 Coeff-Com:  0.100D+01
 Coeff:      0.100D+01
 Gap=     0.245 Goal=   None    Shift=    0.000
 RMSDP=2.76D-06 MaxDP=4.28D-05 DE= 6.71D-07 OVMax= 8.61D-06

 Cycle   9  Pass 1  IDiag  1:
 E= -239.542158094100     Delta-E=       -0.000000000423 Rises=F Damp=F
 DIIS: error= 7.21D-07 at cycle   2 NSaved=   2.
 NSaved= 2 IEnMin= 2 EnMin= -239.542158094100     IErMin= 2 ErrMin= 7.21D-07
 ErrMax= 7.21D-07  0.00D+00 EMaxC= 1.00D-01 BMatC= 3.40D-11 BMatP= 2.96D-10
 IDIUse=1 WtCom= 1.00D+00 WtEn= 0.00D+00
 Coeff-Com:  0.161D+00 0.839D+00
 Coeff:      0.161D+00 0.839D+00
 Gap=     0.245 Goal=   None    Shift=    0.000
 RMSDP=2.23D-07 MaxDP=3.49D-06 DE=-4.23D-10 OVMax= 7.05D-06

 Cycle  10  Pass 1  IDiag  1:
 E= -239.542158094056     Delta-E=        0.000000000044 Rises=F Damp=F
 DIIS: error= 1.44D-06 at cycle   3 NSaved=   3.
 NSaved= 3 IEnMin= 2 EnMin= -239.542158094100     IErMin= 2 ErrMin= 7.21D-07
 ErrMax= 1.44D-06  0.00D+00 EMaxC= 1.00D-01 BMatC= 9.26D-11 BMatP= 3.40D-11
 IDIUse=1 WtCom= 1.00D+00 WtEn= 0.00D+00
 Coeff-Com:  0.297D-01 0.618D+00 0.352D+00
 Coeff:      0.297D-01 0.618D+00 0.352D+00
 Gap=     0.245 Goal=   None    Shift=    0.000
 RMSDP=1.64D-07 MaxDP=2.51D-06 DE= 4.45D-11 OVMax= 5.34D-06

 Cycle  11  Pass 1  IDiag  1:
 E= -239.542158094125     Delta-E=       -0.000000000070 Rises=F Damp=F
 DIIS: error= 1.85D-07 at cycle   4 NSaved=   4.
 NSaved= 4 IEnMin= 4 EnMin= -239.542158094125     IErMin= 4 ErrMin= 1.85D-07
 ErrMax= 1.85D-07  0.00D+00 EMaxC= 1.00D-01 BMatC= 1.85D-12 BMatP= 3.40D-11
 IDIUse=1 WtCom= 1.00D+00 WtEn= 0.00D+00
 Coeff-Com: -0.513D-02 0.200D+00 0.176D+00 0.629D+00
 Coeff:     -0.513D-02 0.200D+00 0.176D+00 0.629D+00
 Gap=     0.245 Goal=   None    Shift=    0.000
 RMSDP=2.36D-08 MaxDP=3.93D-07 DE=-6.95D-11 OVMax= 7.02D-07

 Cycle  12  Pass 1  IDiag  1:
 E= -239.542158094125     Delta-E=       -0.000000000000 Rises=F Damp=F
 DIIS: error= 7.32D-08 at cycle   5 NSaved=   5.
 NSaved= 5 IEnMin= 5 EnMin= -239.542158094125     IErMin= 5 ErrMin= 7.32D-08
 ErrMax= 7.32D-08  0.00D+00 EMaxC= 1.00D-01 BMatC= 2.99D-13 BMatP= 1.85D-12
 IDIUse=1 WtCom= 1.00D+00 WtEn= 0.00D+00
 Coeff-Com: -0.256D-02 0.951D-01 0.964D-01 0.415D+00 0.396D+00
 Coeff:     -0.256D-02 0.951D-01 0.964D-01 0.415D+00 0.396D+00
 Gap=     0.245 Goal=   None    Shift=    0.000
 RMSDP=8.83D-09 MaxDP=1.26D-07 DE=-1.14D-13 OVMax= 2.27D-07

 SCF Done:  E(RTPSS-TPSS) =  -239.542158094     A.U. after   12 cycles
            NFock= 12  Conv=0.88D-08     -V/T= 2.0040
 KE= 2.385928503969D+02 PE=-7.116946141041D+02 EE= 1.671958023106D+02
 Leave Link  502 at Wed Oct  7 13:04:59 2020, MaxMem=  2684354560 cpu:              35.0 elap:               3.3
 (Enter /udrive/faculty/rpeverati/g16/g16/l508.exe)
 QCSCF skips out because SCF is already converged.
 Leave Link  508 at Wed Oct  7 13:04:59 2020, MaxMem=  2684354560 cpu:               0.3 elap:               0.3
 (Enter /udrive/faculty/rpeverati/g16/g16/l601.exe)
 Copying SCF densities to generalized density rwf, IOpCl= 0 IROHF=0.

 **********************************************************************

            Population analysis using the SCF density.

 **********************************************************************

 Orbital symmetries:
       Occupied  (A) (A) (A) (A) (A) (A) (A) (A) (A) (A) (A) (A)
                 (A) (A)
       Virtual   (A) (A) (A) (A) (A) (A) (A) (A) (A) (A) (A) (A)
                 (A) (A) (A) (A) (A) (A) (A) (A) (A) (A) (A) (A)
                 (A) (A) (A) (A) (A) (A) (A) (A) (A) (A)
 The electronic state is 1-A.
 Alpha  occ. eigenvalues --  -24.02303 -24.02285  -9.81507  -0.68879  -0.68274
 Alpha  occ. eigenvalues --   -0.39158  -0.17098  -0.17085  -0.05971   0.03136
 Alpha  occ. eigenvalues --    0.03136   0.04044   0.04514   0.04515
 Alpha virt. eigenvalues --    0.29008   0.31222   0.36944   0.36952   0.76635
 Alpha virt. eigenvalues --    0.76656   0.83916   1.02711   1.11587   1.11611
 Alpha virt. eigenvalues --    1.32177   1.39738   1.39739   1.53176   1.53425
 Alpha virt. eigenvalues --    1.53429   1.53704   1.80461   1.80463   1.90236
 Alpha virt. eigenvalues --    2.01127   2.11586   2.13601   2.13614   2.14911
 Alpha virt. eigenvalues --    2.14911   2.17148   2.17154   2.34286   2.34287
 Alpha virt. eigenvalues --    2.43192   2.56160   2.56204   3.16568
          Condensed to atoms (all electrons):
               1          2          3          4          5          6
     1  F    9.587076   0.112224  -0.025773  -0.025800  -0.025763   0.000514
     2  C    0.112224   4.766071   0.376423   0.376466   0.376369   0.112245
     3  H   -0.025773   0.376423   0.595265  -0.020862  -0.020975  -0.025730
     4  H   -0.025800   0.376466  -0.020862   0.595109  -0.020860  -0.025757
     5  H   -0.025763   0.376369  -0.020975  -0.020860   0.595348  -0.025720
     6  F    0.000514   0.112245  -0.025730  -0.025757  -0.025720   9.587131
 Mulliken charges:
               1
     1  F   -0.622478
     2  C   -0.119797
     3  H    0.121653
     4  H    0.121703
     5  H    0.121601
     6  F   -0.622682
 Sum of Mulliken charges =  -1.00000
 Mulliken charges with hydrogens summed into heavy atoms:
               1
     1  F   -0.622478
     2  C    0.245160
     6  F   -0.622682
 Electronic spatial extent (au):  <R**2>=            280.2309
 Charge=             -1.0000 electrons
 Dipole moment (field-independent basis, Debye):
    X=              0.0038    Y=             -0.0016    Z=             -0.0004  Tot=              0.0042
 Quadrupole moment (field-independent basis, Debye-Ang):
   XX=            -37.6885   YY=            -17.5886   ZZ=            -17.5910
   XY=              0.0004   XZ=              0.0001   YZ=             -0.0001
 Traceless Quadrupole moment (field-independent basis, Debye-Ang):
   XX=            -13.3991   YY=              6.7007   ZZ=              6.6984
   XY=              0.0004   XZ=              0.0001   YZ=             -0.0001
 Octapole moment (field-independent basis, Debye-Ang**2):
  XXX=              0.0152  YYY=              0.4044  ZZZ=              0.3445  XYY=              0.0007
  XXY=             -0.0025  XXZ=             -0.0006  XZZ=              0.0005  YZZ=             -0.4006
  YYZ=             -0.3429  XYZ=             -0.0001
 Hexadecapole moment (field-independent basis, Debye-Ang**3):
 XXXX=           -282.1801 YYYY=            -19.9921 ZZZZ=            -19.9890 XXXY=              0.0005
 XXXZ=              0.0001 YYYX=              0.0003 YYYZ=              0.0006 ZZZX=              0.0001
 ZZZY=             -0.0005 XXYY=            -40.9290 XXZZ=            -40.9280 YYZZ=             -6.6629
 XXYZ=             -0.0000 YYXZ=             -0.0001 ZZXY=             -0.0000
 N-N= 6.636380330248D+01 E-N=-7.116946109958D+02  KE= 2.385928503969D+02
 No NMR shielding tensors so no spin-rotation constants.
 Leave Link  601 at Wed Oct  7 13:05:00 2020, MaxMem=  2684354560 cpu:               2.8 elap:               0.6
 (Enter /udrive/faculty/rpeverati/g16/g16/l701.exe)
 ... and contract with generalized density number  0.
 Compute integral first derivatives.
 R6Disp: Adding Grimme-D3(BJ) dispersion energy 1st derivatives to the gradient.
 Leave Link  701 at Wed Oct  7 13:05:01 2020, MaxMem=  2684354560 cpu:               3.8 elap:               0.6
 (Enter /udrive/faculty/rpeverati/g16/g16/l702.exe)
 L702 exits ... SP integral derivatives will be done elsewhere.
 Leave Link  702 at Wed Oct  7 13:05:02 2020, MaxMem=  2684354560 cpu:               1.0 elap:               0.4
 (Enter /udrive/faculty/rpeverati/g16/g16/l703.exe)
 Integral derivatives from FoFJK, PRISM(SPDF).
 Compute integral first derivatives, UseDBF=F ICtDFT=           0.
 Calling FoFJK, ICntrl=      2527 FMM=F ISym2X=0 I1Cent= 0 IOpClX= 0 NMat=1 NMatS=1 NMatT=0.
 FoFJK:  IHMeth= 1 ICntrl=    2527 DoSepK=F KAlg= 0 I1Cent=           0 FoldK=F
 IRaf=         0 NMat=       1 IRICut=       1 DoRegI=T DoRafI=F ISym2E= 0 IDoP0=0 IntGTp=1.
 FoFCou: FMM=F IPFlag=           0 FMFlag=      100000 FMFlg1=         800
         NFxFlg=           0 DoJE=F BraDBF=F KetDBF=F FulRan=T
         wScrn=  0.000000 ICntrl=      2527 IOpCl=  0 I1Cent=           0 NGrid=           0
         NMat0=    1 NMatS0=      1 NMatT0=    0 NMatD0=    1 NMtDS0=    0 NMtDT0=    0
 Symmetry not used in FoFCou.
 Leave Link  703 at Wed Oct  7 13:05:03 2020, MaxMem=  2684354560 cpu:               7.2 elap:               1.0
 (Enter /udrive/faculty/rpeverati/g16/g16/l716.exe)
 Dipole        = 1.49657921D-03-6.32140819D-04-1.71477795D-04
 ***** Axes restored to original set *****
 -------------------------------------------------------------------
 Center     Atomic                   Forces (Hartrees/Bohr)
 Number     Number              X              Y              Z
 -------------------------------------------------------------------
      1        9           0.000408596   -0.000027834   -0.000013488
      2        6           0.000034166   -0.000020118    0.000073869
      3        1          -0.000024768   -0.002083625    0.007134298
      4        1          -0.000037794    0.007197926   -0.001757404
      5        1          -0.000015474   -0.005051001   -0.005426234
      6        9          -0.000364726   -0.000015347   -0.000011042
 -------------------------------------------------------------------
 Cartesian Forces:  Max     0.007197926 RMS     0.003031369
 Leave Link  716 at Wed Oct  7 13:05:04 2020, MaxMem=  2684354560 cpu:               1.9 elap:               0.5
 (Enter /udrive/faculty/rpeverati/g16/g16/l103.exe)

 GradGradGradGradGradGradGradGradGradGradGradGradGradGradGradGradGradGrad
 Berny optimization.
 Optmz: redundant internal coordinate code flag= 1
 FormGI is forming the generalized inverse of G from B-inverse, IUseBI=4.
 Internal  Forces:  Max     0.007432257 RMS     0.002875750
 Search for a saddle point.
 Step number   1 out of a maximum of   50
 All quantities printed in internal units (Hartrees-Bohrs-Radians)
 Swapping is turned off.
 Second derivative matrix not updated -- first step.
 The second derivative matrix:
                          R1        R2        R3        R4        R5
           R1           0.13179
           R2           0.00000   0.37281
           R3           0.00000   0.00000   0.37281
           R4           0.00000   0.00000   0.00000   0.37277
           R5           0.00000   0.00000   0.00000   0.00000   0.13158
           A1           0.00000   0.00000   0.00000   0.00000   0.00000
           A2           0.00000   0.00000   0.00000   0.00000   0.00000
           A3           0.00000   0.00000   0.00000   0.00000   0.00000
           A4           0.00000   0.00000   0.00000   0.00000   0.00000
           A5           0.00000   0.00000   0.00000   0.00000   0.00000
           A6           0.00000   0.00000   0.00000   0.00000   0.00000
           A7           0.00000   0.00000   0.00000   0.00000   0.00000
           A8           0.00000   0.00000   0.00000   0.00000   0.00000
           A9           0.00000   0.00000   0.00000   0.00000   0.00000
           A10          0.00000   0.00000   0.00000   0.00000   0.00000
           A11          0.00000   0.00000   0.00000   0.00000   0.00000
           D1           0.00000   0.00000   0.00000   0.00000   0.00000
           D2           0.00000   0.00000   0.00000   0.00000   0.00000
           D3           0.00000   0.00000   0.00000   0.00000   0.00000
           D4           0.00000   0.00000   0.00000   0.00000   0.00000
                          A1        A2        A3        A4        A5
           A1           0.16000
           A2           0.00000   0.16000
           A3           0.00000   0.00000   0.16000
           A4           0.00000   0.00000   0.00000   0.16000
           A5           0.00000   0.00000   0.00000   0.00000   0.16000
           A6           0.00000   0.00000   0.00000   0.00000   0.00000
           A7           0.00000   0.00000   0.00000   0.00000   0.00000
           A8           0.00000   0.00000   0.00000   0.00000   0.00000
           A9           0.00000   0.00000   0.00000   0.00000   0.00000
           A10          0.00000   0.00000   0.00000   0.00000   0.00000
           A11          0.00000   0.00000   0.00000   0.00000   0.00000
           D1           0.00000   0.00000   0.00000   0.00000   0.00000
           D2           0.00000   0.00000   0.00000   0.00000   0.00000
           D3           0.00000   0.00000   0.00000   0.00000   0.00000
           D4           0.00000   0.00000   0.00000   0.00000   0.00000
                          A6        A7        A8        A9        A10
           A6           0.16000
           A7           0.00000   0.16000
           A8           0.00000   0.00000   0.16000
           A9           0.00000   0.00000   0.00000   0.16000
           A10          0.00000   0.00000   0.00000   0.00000   0.00230
           A11          0.00000   0.00000   0.00000   0.00000   0.00000
           D1           0.00000   0.00000   0.00000   0.00000   0.00000
           D2           0.00000   0.00000   0.00000   0.00000   0.00000
           D3           0.00000   0.00000   0.00000   0.00000   0.00000
           D4           0.00000   0.00000   0.00000   0.00000   0.00000
                          A11       D1        D2        D3        D4
           A11          0.00230
           D1           0.00000   0.00504
           D2           0.00000   0.00000   0.00230
           D3           0.00000   0.00000   0.00000   0.00230
           D4           0.00000   0.00000   0.00000   0.00000   0.00230
 ITU=  0
 Eigenvectors of the second derivative matrix:
                           1         2         3         4         5
     Eigenvalues --     0.05670   0.06987   0.06991   0.08115   0.08115
   1         R1         0.00000  -0.00000  -0.00000  -0.00000  -0.00000
   2         R2         0.00000  -0.00000   0.00000   0.00000   0.00000
   3         R3         0.00000   0.00000   0.00000  -0.00000  -0.00000
   4         R4        -0.00000   0.00000  -0.00000   0.00000   0.00000
   5         R5        -0.00000  -0.00000  -0.00000  -0.00000  -0.00000
   6         A1         0.23561  -0.36015  -0.11479   0.00004  -0.00002
   7         A2         0.23582   0.08067   0.36922   0.00010  -0.00055
   8         A3         0.23570   0.27930  -0.25466   0.00014   0.00035
   9         A4        -0.00012   0.00003  -0.00055   0.21524  -0.53573
  10         A5         0.00004   0.00011   0.00008  -0.57158   0.08146
  11         A6        -0.23561  -0.36015  -0.11479  -0.00012   0.00010
  12         A7        -0.00006  -0.00013   0.00047   0.35633   0.45427
  13         A8        -0.23582   0.08067   0.36922   0.00001  -0.00041
  14         A9        -0.23570   0.27930  -0.25466   0.00009   0.00026
  15         A10       -0.00000  -0.72030  -0.22959  -0.00008   0.00008
  16         A11       -0.00000  -0.22964   0.72013  -0.00003  -0.00077
  17         D1        -0.81648   0.00000  -0.00000  -0.00005  -0.00002
  18         D2         0.00000   0.00010  -0.00061   0.21524  -0.53573
  19         D3        -0.00004  -0.00006  -0.00009   0.57158  -0.08146
  20         D4        -0.00005  -0.00016   0.00052   0.35633   0.45427
                           6         7         8         9        10
     Eigenvalues --     0.13158   0.13179   0.16000   0.16000   0.37277
   1         R1        -0.00000  -1.00000   0.00000   0.00000   0.00000
   2         R2         0.00000  -0.00000  -0.00000   0.00000  -0.00000
   3         R3         0.00000  -0.00000   0.00000  -0.00000   0.00000
   4         R4         0.00000  -0.00000  -0.00000   0.00000  -1.00000
   5         R5        -1.00000   0.00000   0.00000   0.00000   0.00000
   6         A1        -0.00000  -0.00000  -0.09474  -0.56965  -0.00000
   7         A2         0.00000   0.00000  -0.44574   0.36672   0.00000
   8         A3         0.00000   0.00000   0.54068   0.20251   0.00000
   9         A4         0.00000   0.00000   0.00014   0.00006   0.00000
  10         A5         0.00000   0.00000  -0.00005  -0.00006  -0.00000
  11         A6         0.00000   0.00000   0.09474   0.56965   0.00000
  12         A7        -0.00000  -0.00000  -0.00009  -0.00000  -0.00000
  13         A8        -0.00000  -0.00000   0.44574  -0.36672  -0.00000
  14         A9        -0.00000  -0.00000  -0.54068  -0.20251   0.00000
  15         A10        0.00000   0.00000   0.00000   0.00000  -0.00000
  16         A11       -0.00000   0.00000  -0.00000  -0.00000  -0.00000
  17         D1         0.00000  -0.00000   0.00000  -0.00000   0.00000
  18         D2         0.00000   0.00000   0.00000   0.00000   0.00000
  19         D3        -0.00000  -0.00000   0.00000  -0.00000   0.00000
  20         D4        -0.00000  -0.00000  -0.00000  -0.00000  -0.00000
                          11        12
     Eigenvalues --     0.37281   0.37281
   1         R1        -0.00000  -0.00000
   2         R2        -1.00000  -0.00000
   3         R3        -0.00000   1.00000
   4         R4         0.00000   0.00000
   5         R5        -0.00000   0.00000
   6         A1        -0.00000  -0.00000
   7         A2         0.00000   0.00000
   8         A3        -0.00000   0.00000
   9         A4        -0.00000   0.00000
  10         A5         0.00000  -0.00000
  11         A6         0.00000   0.00000
  12         A7         0.00000   0.00000
  13         A8        -0.00000  -0.00000
  14         A9        -0.00000   0.00000
  15         A10       -0.00000   0.00000
  16         A11        0.00000  -0.00000
  17         D1        -0.00000   0.00000
  18         D2        -0.00000  -0.00000
  19         D3         0.00000   0.00000
  20         D4         0.00000   0.00000
 Eigenvalue     1 is   5.67D-02 should be less than     0.000000 Eigenvector:
                          D1        A8        A2        A3        A9
   1                   -0.81648  -0.23582   0.23582   0.23570  -0.23570
                          A6        A1        A4        A7        D4
   1                   -0.23561   0.23561  -0.00012  -0.00006  -0.00005
 RLam0= 5.67D-02.
 Iter=   1 RLamda= 0.00000000D+00 Sum=-4.45240704D-04.
 Iter=   2 RLamda=-4.45240704D-04 Sum=-4.44704033D-04.
 Iter=   3 RLamda=-4.44704033D-04 Sum=-4.44704680D-04.
 RFO step:  Lambda0=5.669847653D-02 Lambda=-4.44704033D-04.
 Linear search not attempted -- option 19 set.
 Iteration  1 RMS(Cart)=  0.00897031 RMS(Int)=  0.00009169
 Iteration  2 RMS(Cart)=  0.00005171 RMS(Int)=  0.00004487
 Iteration  3 RMS(Cart)=  0.00000000 RMS(Int)=  0.00004487
 ITry= 1 IFail=0 DXMaxC= 1.94D-02 DCOld= 1.00D+10 DXMaxT= 1.00D-01 DXLimC= 3.00D+00 Rises=F
 Variable       Old X    -DE/DX   Delta X   Delta X   Delta X     New X
                                 (Linear)    (Quad)   (Total)
    R1        3.44575   0.00041   0.00000   0.00309   0.00309   3.44884
    R2        2.02125   0.00743   0.00000   0.01991   0.01991   2.04116
    R3        2.02124   0.00741   0.00000   0.01985   0.01985   2.04109
    R4        2.02131   0.00741   0.00000   0.01986   0.01986   2.04117
    R5        3.44706   0.00036   0.00000   0.00276   0.00276   3.44982
    A1        1.57081   0.00001   0.00000  -0.00810  -0.00810   1.56271
    A2        1.57037   0.00004   0.00000  -0.00784  -0.00784   1.56253
    A3        1.57137  -0.00003   0.00000  -0.00859  -0.00859   1.56278
    A4        2.09448  -0.00000   0.00000   0.00000  -0.00012   2.09436
    A5        2.09355   0.00004   0.00000   0.00044   0.00032   2.09388
    A6        1.57066  -0.00000   0.00000   0.00826   0.00826   1.57893
    A7        2.09515  -0.00004   0.00000  -0.00043  -0.00055   2.09460
    A8        1.57063  -0.00000   0.00000   0.00835   0.00835   1.57899
    A9        1.57093  -0.00002   0.00000   0.00792   0.00792   1.57885
   A10        3.14148   0.00001   0.00000   0.00016   0.00016   3.14164
   A11        3.14085   0.00005   0.00000   0.00068   0.00068   3.14153
    D1        3.14140  -0.00003   0.00000   0.02833   0.02833  -3.11346
    D2        2.09448  -0.00000   0.00000  -0.00000  -0.00000   2.09448
    D3       -2.09355  -0.00004   0.00000  -0.00044  -0.00043  -2.09399
    D4        2.09515  -0.00004   0.00000  -0.00043  -0.00043   2.09472
         Item               Value     Threshold  Converged?
 Maximum Force            0.007432     0.000450     NO 
 RMS     Force            0.002876     0.000300     NO 
 Maximum Displacement     0.019419     0.001800     NO 
 RMS     Displacement     0.008970     0.001200     NO 
 Predicted change in Energy=-1.872192D-04
 Lowest energy point so far.  Saving SCF results.
 Largest change from initial coordinates is atom    3       0.006 Angstoms.
 GradGradGradGradGradGradGradGradGradGradGradGradGradGradGradGradGradGrad

 Leave Link  103 at Wed Oct  7 13:05:05 2020, MaxMem=  2684354560 cpu:               3.9 elap:               0.7
 (Enter /udrive/faculty/rpeverati/g16/g16/l202.exe)
                          Input orientation:                          
 ---------------------------------------------------------------------
 Center     Atomic      Atomic             Coordinates (Angstroms)
 Number     Number       Type             X           Y           Z
 ---------------------------------------------------------------------
      1          9           0        1.820840   -0.000235   -0.000092
      2          6           0       -0.004209   -0.000255   -0.000061
      3          1           0        0.004548   -0.307897    1.035302
      4          1           0        0.004702    1.050157   -0.251397
      5          1           0        0.004445   -0.743408   -0.783870
      6          9           0       -1.829775   -0.000145   -0.000073
 ---------------------------------------------------------------------
                    Distance matrix (angstroms):
                    1          2          3          4          5
     1  F    0.000000
     2  C    1.825050   0.000000
     3  H    2.113200   1.080136   0.000000
     4  H    2.113016   1.080099   1.870803   0.000000
     5  H    2.113269   1.080142   1.870576   1.870936   0.000000
     6  F    3.650615   1.825565   2.128720   2.128756   2.128648
                    6
     6  F    0.000000
 Stoichiometry    CH3F2(1-)
 Framework group  C1[X(CH3F2)]
 Deg. of freedom    12
 Full point group                 C1      NOp   1
 RotChk:  IX=0 Diff= 6.86D-02
 Largest Abelian subgroup         C1      NOp   1
 Largest concise Abelian subgroup C1      NOp   1
                         Standard orientation:                         
 ---------------------------------------------------------------------
 Center     Atomic      Atomic             Coordinates (Angstroms)
 Number     Number       Type             X           Y           Z
 ---------------------------------------------------------------------
      1          9           0        1.824247    0.000031   -0.000015
      2          6           0       -0.000803   -0.000030    0.000005
      3          1           0        0.007956   -0.356666    1.019529
      4          1           0        0.008087    1.061167   -0.200984
      5          1           0        0.007871   -0.704982   -0.818331
      6          9           0       -1.826368    0.000043   -0.000012
 ---------------------------------------------------------------------
 Rotational constants (GHZ):         143.2816274           3.9372249           3.9372005
 Leave Link  202 at Wed Oct  7 13:05:05 2020, MaxMem=  2684354560 cpu:               1.1 elap:               0.4
 (Enter /udrive/faculty/rpeverati/g16/g16/l301.exe)
 Standard basis: 6-31G(d) (5D, 7F)
 Ernie: Thresh=  0.10000D-02 Tol=  0.10000D-05 Strict=F.
 There are    51 symmetry adapted cartesian basis functions of A   symmetry.
 There are    48 symmetry adapted basis functions of A   symmetry.
    48 basis functions,    96 primitive gaussians,    51 cartesian basis functions
    14 alpha electrons       14 beta electrons
       nuclear repulsion energy        66.1922920403 Hartrees.
 IExCor= 2523 DFT=T Ex=TPSS Corr=TPSS ExCW=0 ScaHFX=  0.000000
 ScaDFX=  1.000000  1.000000  1.000000  1.000000 ScalE2=  1.000000  1.000000
 IRadAn=      5 IRanWt=     -1 IRanGd=            0 ICorTp=0 IEmpDi=141
 NAtoms=    6 NActive=    6 NUniq=    6 SFac= 1.00D+00 NAtFMM=   60 NAOKFM=F Big=F
 Integral buffers will be    131072 words long.
 Raffenetti 2 integral format.
 Two-electron integral symmetry is turned on.
 R6Disp:  Grimme-D3(BJ) Dispersion energy=       -0.0023284335 Hartrees.
 Nuclear repulsion after empirical dispersion term =       66.1899636068 Hartrees.
 Leave Link  301 at Wed Oct  7 13:05:06 2020, MaxMem=  2684354560 cpu:               1.5 elap:               0.4
 (Enter /udrive/faculty/rpeverati/g16/g16/l302.exe)
 NPDir=0 NMtPBC=     1 NCelOv=     1 NCel=       1 NClECP=     1 NCelD=      1
         NCelK=      1 NCelE2=     1 NClLst=     1 CellRange=     0.0.
 One-electron integrals computed using PRISM.
 One-electron integral symmetry used in STVInt
 NBasis=    48 RedAO= T EigKep=  1.77D-02  NBF=    48
 NBsUse=    48 1.00D-06 EigRej= -1.00D+00 NBFU=    48
 Precomputing XC quadrature grid using
 IXCGrd= 4 IRadAn=           5 IRanWt=          -1 IRanGd=           0 AccXCQ= 0.00D+00.
 Generated NRdTot=       0 NPtTot=           0 NUsed=           0 NTot=          32
 NSgBfM=    51    51    51    51    51 MxSgAt=     6 MxSgA2=     6.
 Leave Link  302 at Wed Oct  7 13:05:07 2020, MaxMem=  2684354560 cpu:               2.5 elap:               0.6
 (Enter /udrive/faculty/rpeverati/g16/g16/l303.exe)
 DipDrv:  MaxL=1.
 Leave Link  303 at Wed Oct  7 13:05:07 2020, MaxMem=  2684354560 cpu:               1.3 elap:               0.5
 (Enter /udrive/faculty/rpeverati/g16/g16/l401.exe)
 Initial guess from the checkpoint file:  "MN_39_fch3fts_BH76_TPSSDBJ_631Gs.chk"
 SCF N**3 symmetry information disabled.
 B after Tr=    -0.000000    0.000000   -0.000000
         Rot=    0.999706   -0.024255    0.000001   -0.000003 Ang=  -2.78 deg.
 Guess basis will be translated and rotated to current coordinates.
 JPrj=2 DoOrth=T DoCkMO=T.
 Leave Link  401 at Wed Oct  7 13:05:08 2020, MaxMem=  2684354560 cpu:               3.4 elap:               0.6
 (Enter /udrive/faculty/rpeverati/g16/g16/l502.exe)
 Keep J ints in memory in canonical form, NReq=11159158.
 FoFCou: FMM=F IPFlag=           0 FMFlag=           0 FMFlg1=           0
         NFxFlg=           0 DoJE=F BraDBF=F KetDBF=F FulRan=T
         wScrn=  0.000000 ICntrl=       600 IOpCl=  0 I1Cent=           0 NGrid=           0
         NMat0=    1 NMatS0=   1176 NMatT0=    0 NMatD0=    1 NMtDS0=    0 NMtDT0=    0
 Symmetry not used in FoFCou.
 Two-electron integral symmetry not used.
 Closed shell SCF:
 Using DIIS extrapolation, IDIIS=  1040.
 NGot=  2684354560 LenX=  2683655928 LenY=  2683652886
 Requested convergence on RMS density matrix=1.00D-08 within 120 cycles.
 Requested convergence on MAX density matrix=1.00D-06.
 Requested convergence on             energy=1.00D-06.
 No special actions if energy rises.

 Cycle   1  Pass 1  IDiag  1:
 E= -239.542288860728    
 DIIS: error= 1.25D-03 at cycle   1 NSaved=   1.
 NSaved= 1 IEnMin= 1 EnMin= -239.542288860728     IErMin= 1 ErrMin= 1.25D-03
 ErrMax= 1.25D-03  0.00D+00 EMaxC= 1.00D-01 BMatC= 4.50D-05 BMatP= 4.50D-05
 IDIUse=3 WtCom= 9.88D-01 WtEn= 1.25D-02
 Coeff-Com:  0.100D+01
 Coeff-En:   0.100D+01
 Coeff:      0.100D+01
 Gap=     0.637 Goal=   None    Shift=    0.000
 GapD=    0.637 DampG=2.000 DampE=1.000 DampFc=2.0000 IDamp=-1.
 RMSDP=3.41D-04 MaxDP=3.53D-03              OVMax= 3.23D-03

 Cycle   2  Pass 1  IDiag  1:
 E= -239.542307058707     Delta-E=       -0.000018197979 Rises=F Damp=F
 DIIS: error= 1.22D-03 at cycle   2 NSaved=   2.
 NSaved= 2 IEnMin= 2 EnMin= -239.542307058707     IErMin= 2 ErrMin= 1.22D-03
 ErrMax= 1.22D-03  0.00D+00 EMaxC= 1.00D-01 BMatC= 4.48D-05 BMatP= 4.50D-05
 IDIUse=3 WtCom= 9.88D-01 WtEn= 1.22D-02
 Coeff-Com:  0.499D+00 0.501D+00
 Coeff-En:   0.382D+00 0.618D+00
 Coeff:      0.498D+00 0.502D+00
 Gap=     0.243 Goal=   None    Shift=    0.000
 RMSDP=1.55D-04 MaxDP=2.27D-03 DE=-1.82D-05 OVMax= 4.46D-03

 Cycle   3  Pass 1  IDiag  1:
 E= -239.542343982097     Delta-E=       -0.000036923390 Rises=F Damp=F
 DIIS: error= 5.18D-04 at cycle   3 NSaved=   3.
 NSaved= 3 IEnMin= 3 EnMin= -239.542343982097     IErMin= 3 ErrMin= 5.18D-04
 ErrMax= 5.18D-04  0.00D+00 EMaxC= 1.00D-01 BMatC= 1.29D-05 BMatP= 4.48D-05
 IDIUse=3 WtCom= 9.95D-01 WtEn= 5.18D-03
 Coeff-Com:  0.120D+00 0.343D+00 0.538D+00
 Coeff-En:   0.000D+00 0.210D+00 0.790D+00
 Coeff:      0.119D+00 0.342D+00 0.539D+00
 Gap=     0.244 Goal=   None    Shift=    0.000
 RMSDP=5.74D-05 MaxDP=8.09D-04 DE=-3.69D-05 OVMax= 1.56D-03

 Cycle   4  Pass 1  IDiag  1:
 E= -239.542353843649     Delta-E=       -0.000009861551 Rises=F Damp=F
 DIIS: error= 1.65D-04 at cycle   4 NSaved=   4.
 NSaved= 4 IEnMin= 4 EnMin= -239.542353843649     IErMin= 4 ErrMin= 1.65D-04
 ErrMax= 1.65D-04  0.00D+00 EMaxC= 1.00D-01 BMatC= 1.09D-06 BMatP= 1.29D-05
 IDIUse=3 WtCom= 9.98D-01 WtEn= 1.65D-03
 Coeff-Com:  0.123D-01 0.151D+00 0.292D+00 0.544D+00
 Coeff-En:   0.000D+00 0.000D+00 0.000D+00 0.100D+01
 Coeff:      0.123D-01 0.151D+00 0.292D+00 0.545D+00
 Gap=     0.244 Goal=   None    Shift=    0.000
 RMSDP=1.89D-05 MaxDP=1.98D-04 DE=-9.86D-06 OVMax= 3.03D-04

 Cycle   5  Pass 1  IDiag  1:
 E= -239.542354610810     Delta-E=       -0.000000767161 Rises=F Damp=F
 DIIS: error= 3.14D-05 at cycle   5 NSaved=   5.
 NSaved= 5 IEnMin= 5 EnMin= -239.542354610810     IErMin= 5 ErrMin= 3.14D-05
 ErrMax= 3.14D-05  0.00D+00 EMaxC= 1.00D-01 BMatC= 4.36D-08 BMatP= 1.09D-06
 IDIUse=1 WtCom= 1.00D+00 WtEn= 0.00D+00
 Coeff-Com:  0.316D-02 0.757D-01 0.146D+00 0.297D+00 0.479D+00
 Coeff:      0.316D-02 0.757D-01 0.146D+00 0.297D+00 0.479D+00
 Gap=     0.244 Goal=   None    Shift=    0.000
 RMSDP=4.51D-06 MaxDP=6.32D-05 DE=-7.67D-07 OVMax= 1.44D-04

 Cycle   6  Pass 1  IDiag  1:
 E= -239.542354628497     Delta-E=       -0.000000017687 Rises=F Damp=F
 DIIS: error= 1.90D-05 at cycle   6 NSaved=   6.
 NSaved= 6 IEnMin= 6 EnMin= -239.542354628497     IErMin= 6 ErrMin= 1.90D-05
 ErrMax= 1.90D-05  0.00D+00 EMaxC= 1.00D-01 BMatC= 1.45D-08 BMatP= 4.36D-08
 IDIUse=1 WtCom= 1.00D+00 WtEn= 0.00D+00
 Coeff-Com: -0.569D-04 0.241D-01 0.446D-01 0.107D+00 0.370D+00 0.455D+00
 Coeff:     -0.569D-04 0.241D-01 0.446D-01 0.107D+00 0.370D+00 0.455D+00
 Gap=     0.244 Goal=   None    Shift=    0.000
 RMSDP=2.17D-06 MaxDP=3.09D-05 DE=-1.77D-08 OVMax= 7.25D-05

 Cycle   7  Pass 1  IDiag  1:
 E= -239.542354640225     Delta-E=       -0.000000011728 Rises=F Damp=F
 DIIS: error= 1.75D-06 at cycle   7 NSaved=   7.
 NSaved= 7 IEnMin= 7 EnMin= -239.542354640225     IErMin= 7 ErrMin= 1.75D-06
 ErrMax= 1.75D-06  0.00D+00 EMaxC= 1.00D-01 BMatC= 1.07D-10 BMatP= 1.45D-08
 IDIUse=1 WtCom= 1.00D+00 WtEn= 0.00D+00
 Coeff-Com: -0.902D-04 0.341D-02 0.524D-02 0.156D-01 0.676D-01 0.140D+00
 Coeff-Com:  0.768D+00
 Coeff:     -0.902D-04 0.341D-02 0.524D-02 0.156D-01 0.676D-01 0.140D+00
 Coeff:      0.768D+00
 Gap=     0.244 Goal=   None    Shift=    0.000
 RMSDP=2.05D-07 MaxDP=2.12D-06 DE=-1.17D-08 OVMax= 6.26D-06

 Cycle   8  Pass 1  IDiag  1:
 E= -239.542354640330     Delta-E=       -0.000000000105 Rises=F Damp=F
 DIIS: error= 1.12D-07 at cycle   8 NSaved=   8.
 NSaved= 8 IEnMin= 8 EnMin= -239.542354640330     IErMin= 8 ErrMin= 1.12D-07
 ErrMax= 1.12D-07  0.00D+00 EMaxC= 1.00D-01 BMatC= 8.53D-13 BMatP= 1.07D-10
 IDIUse=1 WtCom= 1.00D+00 WtEn= 0.00D+00
 Coeff-Com: -0.341D-04 0.351D-03 0.392D-03 0.162D-02 0.101D-01 0.290D-01
 Coeff-Com:  0.201D+00 0.758D+00
 Coeff:     -0.341D-04 0.351D-03 0.392D-03 0.162D-02 0.101D-01 0.290D-01
 Coeff:      0.201D+00 0.758D+00
 Gap=     0.244 Goal=   None    Shift=    0.000
 RMSDP=1.32D-08 MaxDP=1.21D-07 DE=-1.05D-10 OVMax= 2.05D-07

 Cycle   9  Pass 1  IDiag  1:
 E= -239.542354640330     Delta-E=       -0.000000000000 Rises=F Damp=F
 DIIS: error= 1.13D-08 at cycle   9 NSaved=   9.
 NSaved= 9 IEnMin= 9 EnMin= -239.542354640330     IErMin= 9 ErrMin= 1.13D-08
 ErrMax= 1.13D-08  0.00D+00 EMaxC= 1.00D-01 BMatC= 9.01D-15 BMatP= 8.53D-13
 IDIUse=1 WtCom= 1.00D+00 WtEn= 0.00D+00
 Coeff-Com: -0.688D-06 0.840D-05 0.476D-05-0.201D-04 0.449D-03 0.159D-02
 Coeff-Com:  0.126D-01 0.922D-01 0.893D+00
 Coeff:     -0.688D-06 0.840D-05 0.476D-05-0.201D-04 0.449D-03 0.159D-02
 Coeff:      0.126D-01 0.922D-01 0.893D+00
 Gap=     0.244 Goal=   None    Shift=    0.000
 RMSDP=2.71D-09 MaxDP=3.37D-08 DE=-4.55D-13 OVMax= 4.59D-08

 SCF Done:  E(RTPSS-TPSS) =  -239.542354640     A.U. after    9 cycles
            NFock=  9  Conv=0.27D-08     -V/T= 2.0042
 KE= 2.385454354259D+02 PE=-7.113071593787D+02 EE= 1.670294057057D+02
 Leave Link  502 at Wed Oct  7 13:05:13 2020, MaxMem=  2684354560 cpu:              42.1 elap:               4.1
 (Enter /udrive/faculty/rpeverati/g16/g16/l508.exe)
 QCSCF skips out because SCF is already converged.
 Leave Link  508 at Wed Oct  7 13:05:13 2020, MaxMem=  2684354560 cpu:               0.4 elap:               0.5
 (Enter /udrive/faculty/rpeverati/g16/g16/l701.exe)
 ... and contract with generalized density number  0.
 Compute integral first derivatives.
 R6Disp: Adding Grimme-D3(BJ) dispersion energy 1st derivatives to the gradient.
 Leave Link  701 at Wed Oct  7 13:05:14 2020, MaxMem=  2684354560 cpu:               3.7 elap:               0.7
 (Enter /udrive/faculty/rpeverati/g16/g16/l702.exe)
 L702 exits ... SP integral derivatives will be done elsewhere.
 Leave Link  702 at Wed Oct  7 13:05:15 2020, MaxMem=  2684354560 cpu:               1.5 elap:               0.5
 (Enter /udrive/faculty/rpeverati/g16/g16/l703.exe)
 Integral derivatives from FoFJK, PRISM(SPDF).
 Compute integral first derivatives, UseDBF=F ICtDFT=           0.
 Calling FoFJK, ICntrl=      2527 FMM=F ISym2X=0 I1Cent= 0 IOpClX= 0 NMat=1 NMatS=1 NMatT=0.
 FoFJK:  IHMeth= 1 ICntrl=    2527 DoSepK=F KAlg= 0 I1Cent=           0 FoldK=F
 IRaf=         0 NMat=       1 IRICut=       1 DoRegI=T DoRafI=F ISym2E= 0 IDoP0=0 IntGTp=1.
 FoFCou: FMM=F IPFlag=           0 FMFlag=      100000 FMFlg1=         800
         NFxFlg=           0 DoJE=F BraDBF=F KetDBF=F FulRan=T
         wScrn=  0.000000 ICntrl=      2527 IOpCl=  0 I1Cent=           0 NGrid=           0
         NMat0=    1 NMatS0=      1 NMatT0=    0 NMatD0=    1 NMtDS0=    0 NMtDT0=    0
 Symmetry not used in FoFCou.
 Leave Link  703 at Wed Oct  7 13:05:16 2020, MaxMem=  2684354560 cpu:               6.9 elap:               0.9
 (Enter /udrive/faculty/rpeverati/g16/g16/l716.exe)
 Dipole        =-1.04947627D-03-9.37631553D-05 4.35815275D-05
 ***** Axes restored to original set *****
 -------------------------------------------------------------------
 Center     Atomic                   Forces (Hartrees/Bohr)
 Number     Number              X              Y              Z
 -------------------------------------------------------------------
      1        9           0.000952601   -0.000004579    0.000000385
      2        6          -0.000237144   -0.000058087    0.000023786
      3        1          -0.000692295    0.000067003   -0.000147475
      4        1          -0.000700248   -0.000142119    0.000022445
      5        1          -0.000686895    0.000135454    0.000099244
      6        9           0.001363981    0.000002328    0.000001615
 -------------------------------------------------------------------
 Cartesian Forces:  Max     0.001363981 RMS     0.000491295
 Leave Link  716 at Wed Oct  7 13:05:17 2020, MaxMem=  2684354560 cpu:               1.0 elap:               0.6
 (Enter /udrive/faculty/rpeverati/g16/g16/l103.exe)

 GradGradGradGradGradGradGradGradGradGradGradGradGradGradGradGradGradGrad
 Berny optimization.
 Optmz: redundant internal coordinate code flag= 1
 Red2BG:  D1=  3.99D-01 OD1=  3.92D-02 B2RMS=  0.00D+00 IAprox=0
 FormGI is forming the generalized inverse of G from B-inverse, IUseBI=4.
 Internal  Forces:  Max     0.001363981 RMS     0.000438500
 Search for a saddle point.
 Step number   2 out of a maximum of   50
 All quantities printed in internal units (Hartrees-Bohrs-Radians)
 Swapping is turned off.
 Update second derivatives using D2CorX and points    1    2
 The second derivative matrix:
                          R1        R2        R3        R4        R5
           R1           0.12858
           R2          -0.00706   0.37720
           R3          -0.00707   0.00425   0.37692
           R4          -0.00703   0.00442   0.00428   0.37722
           R5           0.00193   0.01122   0.01119   0.01119   0.13287
           A1           0.00536   0.00729   0.00734   0.00725  -0.00479
           A2           0.00521   0.00713   0.00717   0.00709  -0.00464
           A3           0.00563   0.00755   0.00760   0.00751  -0.00507
           A4           0.00009   0.00014   0.00014   0.00014  -0.00007
           A5          -0.00021  -0.00029  -0.00029  -0.00028   0.00019
           A6          -0.00545  -0.00736  -0.00741  -0.00732   0.00488
           A7           0.00033   0.00037   0.00037   0.00037  -0.00032
           A8          -0.00551  -0.00743  -0.00748  -0.00739   0.00493
           A9          -0.00525  -0.00717  -0.00722  -0.00713   0.00468
           A10         -0.00003   0.00013   0.00013   0.00013   0.00009
           A11         -0.00016   0.00046   0.00045   0.00046   0.00038
           D1          -0.00919   0.00937   0.00916   0.00940   0.01588
           D2           0.00002   0.00006   0.00006   0.00006  -0.00000
           D3           0.00013  -0.00018  -0.00018  -0.00018  -0.00024
           D4           0.00011  -0.00025  -0.00024  -0.00025  -0.00024
                          A1        A2        A3        A4        A5
           A1           0.15207
           A2          -0.00772   0.15249
           A3          -0.00831  -0.00808   0.15130
           A4          -0.00013  -0.00013  -0.00014   0.16000
           A5           0.00031   0.00030   0.00033   0.00001   0.15999
           A6           0.00804   0.00783   0.00842   0.00013  -0.00032
           A7          -0.00047  -0.00046  -0.00049  -0.00001   0.00002
           A8           0.00813   0.00791   0.00852   0.00014  -0.00032
           A9           0.00778   0.00756   0.00814   0.00013  -0.00031
           A10          0.00001   0.00001   0.00001   0.00000  -0.00000
           A11          0.00008   0.00008   0.00008   0.00000  -0.00000
           D1           0.00867   0.00849   0.00894   0.00017  -0.00034
           D2          -0.00003  -0.00003  -0.00004  -0.00000   0.00000
           D3          -0.00011  -0.00011  -0.00012  -0.00000   0.00000
           D4          -0.00008  -0.00008  -0.00008  -0.00000   0.00000
                          A6        A7        A8        A9        A10
           A6           0.15184
           A7           0.00048   0.15997
           A8          -0.00825   0.00048   0.15166
           A9          -0.00789   0.00046  -0.00797   0.15238
           A10         -0.00001  -0.00000  -0.00001  -0.00001   0.00230
           A11         -0.00008   0.00000  -0.00008  -0.00008   0.00001
           D1          -0.00873   0.00042  -0.00882  -0.00854   0.00020
           D2           0.00004  -0.00000   0.00004   0.00003   0.00000
           D3           0.00011  -0.00001   0.00011   0.00011  -0.00000
           D4           0.00008  -0.00000   0.00008   0.00008  -0.00000
                          A11       D1        D2        D3        D4
           A11          0.00232
           D1           0.00074   0.02265
           D2           0.00000   0.00009   0.00230
           D3          -0.00001  -0.00032  -0.00000   0.00231
           D4          -0.00001  -0.00041  -0.00000   0.00001   0.00231
 ITU=  0  0
 Eigenvectors of the second derivative matrix:
                           1         2         3         4         5
     Eigenvalues --     0.02596   0.06987   0.06988   0.08113   0.08115
   1         R1        -0.15012  -0.00201   0.00257   0.00377   0.00080
   2         R2        -0.01610   0.00020  -0.00019   0.00048   0.00004
   3         R3        -0.01677   0.00019  -0.00018   0.00049   0.00004
   4         R4        -0.01584   0.00020  -0.00019   0.00048   0.00004
   5         R5         0.18760   0.00311  -0.00385  -0.00422  -0.00102
   6         A1         0.22843  -0.35479  -0.13044  -0.01341  -0.00742
   7         A2         0.22485   0.06093   0.37460   0.01277  -0.01700
   8         A3         0.23274   0.29035  -0.23796   0.00841   0.01085
   9         A4         0.01048  -0.01253   0.01043   0.19797   0.54190
  10         A5        -0.00317  -0.00262  -0.01557   0.37051  -0.44247
  11         A6        -0.22899  -0.35271  -0.13472  -0.01062   0.00308
  12         A7         0.01200   0.01505   0.00532  -0.56825  -0.09982
  13         A8        -0.23050   0.06328   0.37058   0.00236  -0.00174
  14         A9        -0.22652   0.29281  -0.24230   0.00045   0.01226
  15         A10       -0.00056  -0.70750  -0.26516  -0.02403  -0.00434
  16         A11       -0.00685  -0.26514   0.70740   0.00360  -0.02414
  17         D1        -0.79199   0.00418  -0.00747  -0.01223   0.00694
  18         D2         0.00398  -0.01663   0.01375   0.19788   0.54199
  19         D3         0.00955   0.00344   0.02086  -0.37041   0.44231
  20         D4         0.00557   0.02007   0.00710  -0.56829  -0.09968
                           6         7         8         9        10
     Eigenvalues --     0.13038   0.13533   0.16000   0.16000   0.37278
   1         R1         0.98724   0.02605   0.00208  -0.00001   0.00046
   2         R2         0.02322   0.04240  -0.00015  -0.00000  -0.41965
   3         R3         0.02319   0.04216  -0.00016  -0.00000  -0.40565
   4         R4         0.02316   0.04234  -0.00015  -0.00000   0.81199
   5         R5         0.05785  -0.97765  -0.00243   0.00003  -0.00062
   6         A1         0.03326   0.04534   0.01386  -0.57719  -0.00013
   7         A2         0.03326   0.04519  -0.50707   0.27636  -0.00012
   8         A3         0.03435   0.04742   0.49257   0.30072  -0.00013
   9         A4         0.00035   0.00055  -0.00696  -0.00427  -0.00000
  10         A5        -0.00148  -0.00181   0.00712  -0.00385   0.00000
  11         A6        -0.03396  -0.04657  -0.01385   0.57719   0.00012
  12         A7         0.00397   0.00514  -0.00019   0.00812  -0.00001
  13         A8        -0.03573  -0.04897   0.50708  -0.27636   0.00012
  14         A9        -0.03118  -0.04241  -0.49258  -0.30072   0.00013
  15         A10       -0.00070  -0.00123   0.00000   0.00000  -0.00000
  16         A11       -0.00325  -0.00508   0.00002   0.00000   0.00000
  17         D1        -0.11644  -0.15923   0.00102   0.00001   0.00043
  18         D2        -0.00064  -0.00080   0.00000   0.00000   0.00000
  19         D3         0.00239   0.00306  -0.00002  -0.00000  -0.00001
  20         D4         0.00303   0.00386  -0.00002  -0.00000  -0.00001
                          11        12
     Eigenvalues --     0.37281   0.38781
   1         R1         0.00057  -0.04596
   2         R2         0.69639   0.57994
   3         R3        -0.71766   0.56375
   4         R4         0.00138   0.58145
   5         R5        -0.00078   0.07487
   6         A1        -0.00014   0.00186
   7         A2        -0.00013   0.00163
   8         A3        -0.00014   0.00165
   9         A4        -0.00000   0.00004
  10         A5         0.00001  -0.00018
  11         A6         0.00014  -0.00158
  12         A7        -0.00001   0.00028
  13         A8         0.00014  -0.00123
  14         A9         0.00014  -0.00233
  15         A10       -0.00000   0.00028
  16         A11        0.00000   0.00063
  17         D1         0.00048  -0.00594
  18         D2         0.00000   0.00000
  19         D3        -0.00001   0.00023
  20         D4        -0.00001   0.00023
 Eigenvalue     1 is   2.60D-02 should be less than     0.000000 Eigenvector:
                          D1        A3        A8        A6        A1
   1                   -0.79199   0.23274  -0.23050  -0.22899   0.22843
                          A9        A2        R5        R1        R3
   1                   -0.22652   0.22485   0.18760  -0.15012  -0.01677
 RLam0= 2.60D-02.
 Iter=   1 RLamda= 0.00000000D+00 Sum=-2.54093641D-05.
 Iter=   2 RLamda=-2.54093641D-05 Sum=-2.54045890D-05.
 RFO step:  Lambda0=2.596932283D-02 Lambda=-2.54093641D-05.
 Linear search not attempted -- option 19 set.
 Iteration  1 RMS(Cart)=  0.00233663 RMS(Int)=  0.00000434
 Iteration  2 RMS(Cart)=  0.00000222 RMS(Int)=  0.00000372
 Iteration  3 RMS(Cart)=  0.00000000 RMS(Int)=  0.00000372
 ITry= 1 IFail=0 DXMaxC= 7.01D-03 DCOld= 1.00D+10 DXMaxT= 1.00D-01 DXLimC= 3.00D+00 Rises=F
 Variable       Old X    -DE/DX   Delta X   Delta X   Delta X     New X
                                 (Linear)    (Quad)   (Total)
    R1        3.44884   0.00095   0.00000   0.00992   0.00992   3.45876
    R2        2.04116  -0.00017   0.00000   0.00025   0.00025   2.04141
    R3        2.04109  -0.00015   0.00000   0.00030   0.00030   2.04139
    R4        2.04117  -0.00017   0.00000   0.00023   0.00023   2.04140
    R5        3.44982  -0.00136   0.00000  -0.01328  -0.01328   3.43654
    A1        1.56271   0.00023   0.00000  -0.00236  -0.00236   1.56034
    A2        1.56253   0.00024   0.00000  -0.00218  -0.00218   1.56035
    A3        1.56278   0.00023   0.00000  -0.00252  -0.00252   1.56026
    A4        2.09436  -0.00000   0.00000  -0.00024  -0.00025   2.09411
    A5        2.09388   0.00003   0.00000   0.00041   0.00040   2.09428
    A6        1.57893  -0.00024   0.00000   0.00236   0.00236   1.58129
    A7        2.09460  -0.00001   0.00000  -0.00037  -0.00038   2.09422
    A8        1.57899  -0.00024   0.00000   0.00240   0.00240   1.58138
    A9        1.57885  -0.00023   0.00000   0.00231   0.00231   1.58115
   A10        3.14164  -0.00000   0.00000  -0.00000  -0.00000   3.14163
   A11        3.14153   0.00000   0.00000   0.00025   0.00025   3.14178
    D1       -3.11346  -0.00082   0.00000   0.00816   0.00816  -3.10530
    D2        2.09448  -0.00001   0.00000  -0.00017  -0.00017   2.09431
    D3       -2.09399  -0.00002   0.00000  -0.00048  -0.00048  -2.09447
    D4        2.09472  -0.00001   0.00000  -0.00030  -0.00030   2.09441
         Item               Value     Threshold  Converged?
 Maximum Force            0.001364     0.000450     NO 
 RMS     Force            0.000439     0.000300     NO 
 Maximum Displacement     0.007011     0.001800     NO 
 RMS     Displacement     0.002337     0.001200     NO 
 Predicted change in Energy=-2.354164D-06
 Lowest energy point so far.  Saving SCF results.
 Largest change from initial coordinates is atom    5       0.001 Angstoms.
 GradGradGradGradGradGradGradGradGradGradGradGradGradGradGradGradGradGrad

 Leave Link  103 at Wed Oct  7 13:05:18 2020, MaxMem=  2684354560 cpu:               3.0 elap:               0.7
 (Enter /udrive/faculty/rpeverati/g16/g16/l202.exe)
                          Input orientation:                          
 ---------------------------------------------------------------------
 Center     Atomic      Atomic             Coordinates (Angstroms)
 Number     Number       Type             X           Y           Z
 ---------------------------------------------------------------------
      1          9           0        1.822770   -0.000485   -0.000110
      2          6           0       -0.007529   -0.000258   -0.000011
      3          1           0        0.003780   -0.307704    1.035520
      4          1           0        0.003871    1.050275   -0.251424
      5          1           0        0.003723   -0.743273   -0.784085
      6          9           0       -1.826065   -0.000339   -0.000080
 ---------------------------------------------------------------------
                    Distance matrix (angstroms):
                    1          2          3          4          5
     1  F    0.000000
     2  C    1.830299   0.000000
     3  H    2.115570   1.080267   0.000000
     4  H    2.115573   1.080258   1.870917   0.000000
     5  H    2.115487   1.080264   1.871011   1.870973   0.000000
     6  F    3.648835   1.818536   2.124917   2.125001   2.124791
                    6
     6  F    0.000000
 Stoichiometry    CH3F2(1-)
 Framework group  C1[X(CH3F2)]
 Deg. of freedom    12
 Full point group                 C1      NOp   1
 RotChk:  IX=1 Diff= 1.44D+00
 Largest Abelian subgroup         C1      NOp   1
 Largest concise Abelian subgroup C1      NOp   1
                         Standard orientation:                         
 ---------------------------------------------------------------------
 Center     Atomic      Atomic             Coordinates (Angstroms)
 Number     Number       Type             X           Y           Z
 ---------------------------------------------------------------------
      1          9           0        1.825120   -0.000055    0.000032
      2          6           0       -0.005179    0.000099   -0.000057
      3          1           0        0.006134    0.720119    0.805188
      4          1           0        0.006182    0.337540   -1.026196
      5          1           0        0.006108   -1.057287    0.220800
      6          9           0       -1.823715   -0.000052    0.000029
 ---------------------------------------------------------------------
 Rotational constants (GHZ):         143.2516653           3.9409883           3.9409820
 Leave Link  202 at Wed Oct  7 13:05:19 2020, MaxMem=  2684354560 cpu:               1.6 elap:               0.7
 (Enter /udrive/faculty/rpeverati/g16/g16/l301.exe)
 Standard basis: 6-31G(d) (5D, 7F)
 Ernie: Thresh=  0.10000D-02 Tol=  0.10000D-05 Strict=F.
 There are    51 symmetry adapted cartesian basis functions of A   symmetry.
 There are    48 symmetry adapted basis functions of A   symmetry.
    48 basis functions,    96 primitive gaussians,    51 cartesian basis functions
    14 alpha electrons       14 beta electrons
       nuclear repulsion energy        66.2168288239 Hartrees.
 IExCor= 2523 DFT=T Ex=TPSS Corr=TPSS ExCW=0 ScaHFX=  0.000000
 ScaDFX=  1.000000  1.000000  1.000000  1.000000 ScalE2=  1.000000  1.000000
 IRadAn=      5 IRanWt=     -1 IRanGd=            0 ICorTp=0 IEmpDi=141
 NAtoms=    6 NActive=    6 NUniq=    6 SFac= 1.00D+00 NAtFMM=   60 NAOKFM=F Big=F
 Integral buffers will be    131072 words long.
 Raffenetti 2 integral format.
 Two-electron integral symmetry is turned on.
 R6Disp:  Grimme-D3(BJ) Dispersion energy=       -0.0023277357 Hartrees.
 Nuclear repulsion after empirical dispersion term =       66.2145010882 Hartrees.
 Leave Link  301 at Wed Oct  7 13:05:20 2020, MaxMem=  2684354560 cpu:               2.4 elap:               0.7
 (Enter /udrive/faculty/rpeverati/g16/g16/l302.exe)
 NPDir=0 NMtPBC=     1 NCelOv=     1 NCel=       1 NClECP=     1 NCelD=      1
         NCelK=      1 NCelE2=     1 NClLst=     1 CellRange=     0.0.
 One-electron integrals computed using PRISM.
 One-electron integral symmetry used in STVInt
 NBasis=    48 RedAO= T EigKep=  1.77D-02  NBF=    48
 NBsUse=    48 1.00D-06 EigRej= -1.00D+00 NBFU=    48
 Precomputing XC quadrature grid using
 IXCGrd= 4 IRadAn=           5 IRanWt=          -1 IRanGd=           0 AccXCQ= 0.00D+00.
 Generated NRdTot=       0 NPtTot=           0 NUsed=           0 NTot=          32
 NSgBfM=    51    51    51    51    51 MxSgAt=     6 MxSgA2=     6.
 Leave Link  302 at Wed Oct  7 13:05:21 2020, MaxMem=  2684354560 cpu:               5.2 elap:               1.0
 (Enter /udrive/faculty/rpeverati/g16/g16/l303.exe)
 DipDrv:  MaxL=1.
 Leave Link  303 at Wed Oct  7 13:05:22 2020, MaxMem=  2684354560 cpu:               1.1 elap:               0.5
 (Enter /udrive/faculty/rpeverati/g16/g16/l401.exe)
 Initial guess from the checkpoint file:  "MN_39_fch3fts_BH76_TPSSDBJ_631Gs.chk"
 SCF N**3 symmetry information disabled.
 B after Tr=     0.000000   -0.000000    0.000000
         Rot=    0.861321    0.508062   -0.000001   -0.000002 Ang=  61.07 deg.
 Guess basis will be translated and rotated to current coordinates.
 JPrj=2 DoOrth=T DoCkMO=T.
 Leave Link  401 at Wed Oct  7 13:05:23 2020, MaxMem=  2684354560 cpu:               3.0 elap:               0.6
 (Enter /udrive/faculty/rpeverati/g16/g16/l502.exe)
 Keep J ints in memory in canonical form, NReq=11159158.
 FoFCou: FMM=F IPFlag=           0 FMFlag=           0 FMFlg1=           0
         NFxFlg=           0 DoJE=F BraDBF=F KetDBF=F FulRan=T
         wScrn=  0.000000 ICntrl=       600 IOpCl=  0 I1Cent=           0 NGrid=           0
         NMat0=    1 NMatS0=   1176 NMatT0=    0 NMatD0=    1 NMtDS0=    0 NMtDT0=    0
 Symmetry not used in FoFCou.
 Two-electron integral symmetry not used.
 Closed shell SCF:
 Using DIIS extrapolation, IDIIS=  1040.
 NGot=  2684354560 LenX=  2683655928 LenY=  2683652886
 Requested convergence on RMS density matrix=1.00D-08 within 120 cycles.
 Requested convergence on MAX density matrix=1.00D-06.
 Requested convergence on             energy=1.00D-06.
 No special actions if energy rises.

 Cycle   1  Pass 1  IDiag  1:
 E= -239.542360023046    
 DIIS: error= 4.69D-04 at cycle   1 NSaved=   1.
 NSaved= 1 IEnMin= 1 EnMin= -239.542360023046     IErMin= 1 ErrMin= 4.69D-04
 ErrMax= 4.69D-04  0.00D+00 EMaxC= 1.00D-01 BMatC= 7.15D-06 BMatP= 7.15D-06
 IDIUse=3 WtCom= 9.95D-01 WtEn= 4.69D-03
 Coeff-Com:  0.100D+01
 Coeff-En:   0.100D+01
 Coeff:      0.100D+01
 Gap=     0.634 Goal=   None    Shift=    0.000
 RMSDP=1.28D-04 MaxDP=1.15D-03              OVMax= 1.67D-03

 Cycle   2  Pass 1  IDiag  1:
 E= -239.542371684402     Delta-E=       -0.000011661356 Rises=F Damp=F
 DIIS: error= 7.65D-05 at cycle   2 NSaved=   2.
 NSaved= 2 IEnMin= 2 EnMin= -239.542371684402     IErMin= 2 ErrMin= 7.65D-05
 ErrMax= 7.65D-05  0.00D+00 EMaxC= 1.00D-01 BMatC= 3.92D-07 BMatP= 7.15D-06
 IDIUse=1 WtCom= 1.00D+00 WtEn= 0.00D+00
 Coeff-Com:  0.116D+00 0.884D+00
 Coeff:      0.116D+00 0.884D+00
 Gap=     0.244 Goal=   None    Shift=    0.000
 RMSDP=2.81D-05 MaxDP=2.88D-04 DE=-1.17D-05 OVMax= 8.10D-04

 Cycle   3  Pass 1  IDiag  1:
 E= -239.542371841744     Delta-E=       -0.000000157342 Rises=F Damp=F
 DIIS: error= 7.66D-05 at cycle   3 NSaved=   3.
 NSaved= 3 IEnMin= 3 EnMin= -239.542371841744     IErMin= 2 ErrMin= 7.65D-05
 ErrMax= 7.66D-05  0.00D+00 EMaxC= 1.00D-01 BMatC= 3.84D-07 BMatP= 3.92D-07
 IDIUse=1 WtCom= 1.00D+00 WtEn= 0.00D+00
 Coeff-Com:  0.612D-01 0.494D+00 0.445D+00
 Coeff:      0.612D-01 0.494D+00 0.445D+00
 Gap=     0.244 Goal=   None    Shift=    0.000
 RMSDP=1.56D-05 MaxDP=2.41D-04 DE=-1.57D-07 OVMax= 4.40D-04

 Cycle   4  Pass 1  IDiag  1:
 E= -239.542372141967     Delta-E=       -0.000000300223 Rises=F Damp=F
 DIIS: error= 4.91D-05 at cycle   4 NSaved=   4.
 NSaved= 4 IEnMin= 4 EnMin= -239.542372141967     IErMin= 4 ErrMin= 4.91D-05
 ErrMax= 4.91D-05  0.00D+00 EMaxC= 1.00D-01 BMatC= 1.26D-07 BMatP= 3.84D-07
 IDIUse=1 WtCom= 1.00D+00 WtEn= 0.00D+00
 Coeff-Com:  0.118D-02 0.170D+00 0.322D+00 0.507D+00
 Coeff:      0.118D-02 0.170D+00 0.322D+00 0.507D+00
 Gap=     0.244 Goal=   None    Shift=    0.000
 RMSDP=5.23D-06 MaxDP=9.37D-05 DE=-3.00D-07 OVMax= 1.47D-04

 Cycle   5  Pass 1  IDiag  1:
 E= -239.542372223446     Delta-E=       -0.000000081480 Rises=F Damp=F
 DIIS: error= 1.22D-05 at cycle   5 NSaved=   5.
 NSaved= 5 IEnMin= 5 EnMin= -239.542372223446     IErMin= 5 ErrMin= 1.22D-05
 ErrMax= 1.22D-05  0.00D+00 EMaxC= 1.00D-01 BMatC= 5.30D-09 BMatP= 1.26D-07
 IDIUse=1 WtCom= 1.00D+00 WtEn= 0.00D+00
 Coeff-Com:  0.455D-03 0.862D-01 0.191D+00 0.335D+00 0.388D+00
 Coeff:      0.455D-03 0.862D-01 0.191D+00 0.335D+00 0.388D+00
 Gap=     0.244 Goal=   None    Shift=    0.000
 RMSDP=1.48D-06 MaxDP=2.22D-05 DE=-8.15D-08 OVMax= 4.45D-05

 Cycle   6  Pass 1  IDiag  1:
 E= -239.542372227927     Delta-E=       -0.000000004480 Rises=F Damp=F
 DIIS: error= 2.42D-06 at cycle   6 NSaved=   6.
 NSaved= 6 IEnMin= 6 EnMin= -239.542372227927     IErMin= 6 ErrMin= 2.42D-06
 ErrMax= 2.42D-06  0.00D+00 EMaxC= 1.00D-01 BMatC= 3.82D-10 BMatP= 5.30D-09
 IDIUse=1 WtCom= 1.00D+00 WtEn= 0.00D+00
 Coeff-Com: -0.292D-03 0.346D-01 0.765D-01 0.142D+00 0.239D+00 0.508D+00
 Coeff:     -0.292D-03 0.346D-01 0.765D-01 0.142D+00 0.239D+00 0.508D+00
 Gap=     0.244 Goal=   None    Shift=    0.000
 RMSDP=3.17D-07 MaxDP=4.80D-06 DE=-4.48D-09 OVMax= 7.16D-06

 Cycle   7  Pass 1  IDiag  1:
 E= -239.542372228199     Delta-E=       -0.000000000272 Rises=F Damp=F
 DIIS: error= 4.88D-07 at cycle   7 NSaved=   7.
 NSaved= 7 IEnMin= 7 EnMin= -239.542372228199     IErMin= 7 ErrMin= 4.88D-07
 ErrMax= 4.88D-07  0.00D+00 EMaxC= 1.00D-01 BMatC= 9.26D-12 BMatP= 3.82D-10
 IDIUse=1 WtCom= 1.00D+00 WtEn= 0.00D+00
 Coeff-Com: -0.132D-03 0.112D-01 0.246D-01 0.484D-01 0.905D-01 0.228D+00
 Coeff-Com:  0.598D+00
 Coeff:     -0.132D-03 0.112D-01 0.246D-01 0.484D-01 0.905D-01 0.228D+00
 Coeff:      0.598D+00
 Gap=     0.244 Goal=   None    Shift=    0.000
 RMSDP=6.19D-08 MaxDP=6.92D-07 DE=-2.72D-10 OVMax= 8.05D-07

 Cycle   8  Pass 1  IDiag  1:
 E= -239.542372228207     Delta-E=       -0.000000000008 Rises=F Damp=F
 DIIS: error= 7.24D-08 at cycle   8 NSaved=   8.
 NSaved= 8 IEnMin= 8 EnMin= -239.542372228207     IErMin= 8 ErrMin= 7.24D-08
 ErrMax= 7.24D-08  0.00D+00 EMaxC= 1.00D-01 BMatC= 2.25D-13 BMatP= 9.26D-12
 IDIUse=1 WtCom= 1.00D+00 WtEn= 0.00D+00
 Coeff-Com: -0.101D-04 0.132D-03 0.280D-03 0.115D-02 0.440D-02 0.227D-01
 Coeff-Com:  0.170D+00 0.801D+00
 Coeff:     -0.101D-04 0.132D-03 0.280D-03 0.115D-02 0.440D-02 0.227D-01
 Coeff:      0.170D+00 0.801D+00
 Gap=     0.244 Goal=   None    Shift=    0.000
 RMSDP=8.26D-09 MaxDP=9.00D-08 DE=-8.41D-12 OVMax= 1.05D-07

 SCF Done:  E(RTPSS-TPSS) =  -239.542372228     A.U. after    8 cycles
            NFock=  8  Conv=0.83D-08     -V/T= 2.0042
 KE= 2.385459895690D+02 PE=-7.113572246947D+02 EE= 1.670543618093D+02
 Leave Link  502 at Wed Oct  7 13:05:27 2020, MaxMem=  2684354560 cpu:              38.5 elap:               3.7
 (Enter /udrive/faculty/rpeverati/g16/g16/l508.exe)
 QCSCF skips out because SCF is already converged.
 Leave Link  508 at Wed Oct  7 13:05:28 2020, MaxMem=  2684354560 cpu:               0.2 elap:               0.5
 (Enter /udrive/faculty/rpeverati/g16/g16/l701.exe)
 ... and contract with generalized density number  0.
 Compute integral first derivatives.
 R6Disp: Adding Grimme-D3(BJ) dispersion energy 1st derivatives to the gradient.
 Leave Link  701 at Wed Oct  7 13:05:29 2020, MaxMem=  2684354560 cpu:               3.6 elap:               1.0
 (Enter /udrive/faculty/rpeverati/g16/g16/l702.exe)
 L702 exits ... SP integral derivatives will be done elsewhere.
 Leave Link  702 at Wed Oct  7 13:05:30 2020, MaxMem=  2684354560 cpu:               1.0 elap:               0.5
[...]
           A5          -0.00000   0.00221  -0.00441   0.00220   0.00000
           A6          -0.00779  -0.00394   0.00197   0.00197   0.00779
           A7          -0.00000  -0.00441   0.00220   0.00221   0.00000
           A8          -0.00779   0.00197  -0.00394   0.00197   0.00779
           A9          -0.00779   0.00197   0.00198  -0.00394   0.00780
           A10          0.00000  -0.00787   0.00394   0.00394   0.00000
           A11          0.00000   0.00000  -0.00683   0.00682  -0.00000
           D1          -0.02699  -0.00000   0.00000  -0.00000   0.02699
           D2           0.00000   0.00220   0.00221  -0.00441  -0.00000
           D3           0.00000  -0.00221   0.00441  -0.00220   0.00000
           D4           0.00000  -0.00441   0.00220   0.00221   0.00000
                          A1        A2        A3        A4        A5
           A1           0.03627
           A2          -0.01579   0.03626
           A3          -0.01579  -0.01579   0.03626
           A4           0.00061   0.00061  -0.00123   0.01505
           A5           0.00061  -0.00123   0.00061  -0.00753   0.01505
           A6          -0.01529   0.00530   0.00530   0.00061   0.00061
           A7          -0.00123   0.00061   0.00061  -0.00752  -0.00753
           A8           0.00530  -0.01528   0.00530   0.00061  -0.00123
           A9           0.00530   0.00530  -0.01529  -0.00123   0.00061
           A10          0.02098  -0.01049  -0.01049   0.00123   0.00123
           A11         -0.00000   0.01817  -0.01817   0.00213  -0.00212
           D1          -0.00541  -0.00541  -0.00541   0.00000   0.00000
           D2           0.00061   0.00061  -0.00123   0.01505  -0.00753
           D3          -0.00061   0.00123  -0.00061   0.00753  -0.01505
           D4          -0.00123   0.00061   0.00061  -0.00752  -0.00753
                          A6        A7        A8        A9        A10
           A6           0.03626
           A7          -0.00123   0.01505
           A8          -0.01579   0.00061   0.03625
           A9          -0.01578   0.00061  -0.01579   0.03626
           A10          0.02097  -0.00245  -0.01049  -0.01048   0.04196
           A11         -0.00000  -0.00000   0.01816  -0.01816  -0.00000
           D1           0.00541   0.00000   0.00541   0.00541   0.00000
           D2           0.00061  -0.00752   0.00061  -0.00123   0.00123
           D3          -0.00061   0.00753   0.00122  -0.00061  -0.00122
           D4          -0.00122   0.01505   0.00061   0.00061  -0.00245
                          A11       D1        D2        D3        D4
           A11          0.04195
           D1          -0.00000   0.01874
           D2           0.00213   0.00000   0.01505
           D3           0.00212   0.00000   0.00753   0.01505
           D4          -0.00000   0.00000  -0.00752   0.00753   0.01505
 ITU=  0
 Eigenvectors of the second derivative matrix:
                           1         2         3         4         5
     Eigenvalues --    -0.01105   0.04364   0.04366   0.07263   0.07264
   1         R1        -0.45403  -0.00001  -0.00004  -0.00010   0.00016
   2         R2         0.00000  -0.02430   0.01709   0.00010   0.00016
   3         R3         0.00000  -0.00265  -0.02960  -0.00014  -0.00003
   4         R4        -0.00000   0.02694   0.01252   0.00009  -0.00015
   5         R5         0.45405   0.00005  -0.00001  -0.00047   0.00006
   6         A1         0.18068  -0.06192   0.04344  -0.26359  -0.51110
   7         A2         0.18074  -0.00675  -0.07539   0.57478   0.02706
   8         A3         0.18066   0.06868   0.03199  -0.31114   0.48406
   9         A4        -0.00002   0.51245   0.23848  -0.00030   0.00060
  10         A5        -0.00003  -0.04967  -0.56306   0.00068   0.00011
  11         A6        -0.18067  -0.06204   0.04349   0.26570   0.51510
  12         A7        -0.00003  -0.46278   0.32458  -0.00038  -0.00071
  13         A8        -0.18072  -0.00676  -0.07549  -0.57864  -0.02765
  14         A9        -0.18069   0.06878   0.03199   0.31289  -0.48747
  15         A10        0.00000  -0.12396   0.08693   0.00211   0.00400
  16         A11        0.00003  -0.08717  -0.12402  -0.00324   0.00162
  17         D1        -0.62594   0.00004   0.00002  -0.00013  -0.00006
  18         D2        -0.00001   0.51245   0.23848  -0.00029   0.00058
  19         D3        -0.00001   0.04967   0.56307  -0.00062  -0.00009
  20         D4         0.00000  -0.46279   0.32458  -0.00033  -0.00067
                           6         7         8         9        10
     Eigenvalues --     0.07409   0.07411   0.08393   0.09005   0.36635
   1         R1        -0.00035  -0.00007   0.54178  -0.70641  -0.00028
   2         R2         0.01056  -0.02777   0.00001   0.02962   0.57493
   3         R3         0.01882   0.02304   0.00003   0.02963  -0.79103
   4         R4        -0.02932   0.00472  -0.00000   0.02961   0.20268
   5         R5         0.00017   0.00023  -0.54238  -0.70594  -0.00028
   6         A1         0.13266  -0.34915   0.15144  -0.00010  -0.01153
   7         A2         0.23526   0.28930   0.15138  -0.00029   0.01567
   8         A3        -0.36818   0.05968   0.15122   0.00020  -0.00414
   9         A4         0.11508  -0.01850   0.00007  -0.00001  -0.00417
  10         A5        -0.07360  -0.09026  -0.00010   0.00002   0.01578
  11         A6         0.13036  -0.34242  -0.15150  -0.00002  -0.01154
  12         A7        -0.04148   0.10875  -0.00004  -0.00001  -0.01161
  13         A8         0.23208   0.28427  -0.15098   0.00030   0.01568
  14         A9        -0.36221   0.05824  -0.15156  -0.00009  -0.00414
  15         A10        0.26302  -0.69157  -0.00006  -0.00012  -0.02307
  16         A11        0.69151   0.26302   0.00042  -0.00006   0.02288
  17         D1         0.00030   0.00015  -0.52428   0.00022  -0.00000
  18         D2         0.11506  -0.01850   0.00008  -0.00001  -0.00417
  19         D3         0.07358   0.09022   0.00007  -0.00002  -0.01578
  20         D4        -0.04148   0.10872  -0.00001  -0.00001  -0.01161
                          11        12
     Eigenvalues --     0.36639   0.36898
   1         R1        -0.00030  -0.03628
   2         R2        -0.57835  -0.57647
   3         R3        -0.21947  -0.56874
   4         R4         0.78402  -0.58445
   5         R5        -0.00030  -0.03627
   6         A1         0.01142   0.00000
   7         A2         0.00428  -0.00015
   8         A3        -0.01570   0.00015
   9         A4        -0.01580   0.00016
  10         A5         0.00429  -0.00016
  11         A6         0.01143   0.00000
  12         A7         0.01151   0.00000
  13         A8         0.00429  -0.00015
  14         A9        -0.01571   0.00015
  15         A10        0.02284   0.00000
  16         A11        0.02308  -0.00034
  17         D1        -0.00000   0.00000
  18         D2        -0.01580   0.00016
  19         D3        -0.00429   0.00016
  20         D4         0.01151   0.00000
 Eigenvalue     1 is  -1.11D-02 should be greater than     0.000000 Eigenvector:
                          D1        R5        R1        A2        A8
   1                   -0.62594   0.45405  -0.45403   0.18074  -0.18072
                          A9        A1        A6        A3        A5
   1                   -0.18069   0.18068  -0.18067   0.18066  -0.00003
 Angle between quadratic step and forces=  18.73 degrees.
 Linear search not attempted -- first point.
 Iteration  1 RMS(Cart)=  0.00016467 RMS(Int)=  0.00000000
 Iteration  2 RMS(Cart)=  0.00000000 RMS(Int)=  0.00000000
 ITry= 1 IFail=0 DXMaxC= 5.23D-04 DCOld= 1.00D+10 DXMaxT= 3.00D-01 DXLimC= 3.00D+00 Rises=F
 Variable       Old X    -DE/DX   Delta X   Delta X   Delta X     New X
                                 (Linear)    (Quad)   (Total)
    R1        3.44739  -0.00005   0.00000  -0.00060  -0.00060   3.44679
    R2        2.04077  -0.00001   0.00000  -0.00001  -0.00001   2.04077
    R3        2.04076  -0.00000   0.00000   0.00002   0.00002   2.04078
    R4        2.04077  -0.00000   0.00000   0.00001   0.00001   2.04078
    R5        3.44757  -0.00004   0.00000  -0.00036  -0.00036   3.44721
    A1        1.57086  -0.00000   0.00000   0.00000   0.00000   1.57087
    A2        1.57078   0.00000   0.00000   0.00011   0.00011   1.57088
    A3        1.57088  -0.00000   0.00000   0.00001   0.00001   1.57089
    A4        2.09441  -0.00000   0.00000  -0.00002  -0.00002   2.09439
    A5        2.09428   0.00001   0.00000   0.00012   0.00012   2.09440
    A6        1.57076  -0.00000   0.00000  -0.00006  -0.00006   1.57070
    A7        2.09449  -0.00000   0.00000  -0.00010  -0.00010   2.09439
    A8        1.57078  -0.00000   0.00000  -0.00007  -0.00007   1.57072
    A9        1.57071   0.00000   0.00000   0.00002   0.00002   1.57072
   A10        3.14162  -0.00000   0.00000  -0.00006  -0.00006   3.14156
   A11        3.14157   0.00000   0.00000   0.00001   0.00001   3.14158
    D1        3.14144  -0.00000   0.00000  -0.00013  -0.00013   3.14130
    D2        2.09441  -0.00000   0.00000  -0.00002  -0.00002   2.09439
    D3       -2.09428  -0.00001   0.00000  -0.00012  -0.00012  -2.09440
    D4        2.09449  -0.00000   0.00000  -0.00010  -0.00010   2.09439
         Item               Value     Threshold  Converged?
 Maximum Force            0.000046     0.000450     YES
 RMS     Force            0.000014     0.000300     YES
 Maximum Displacement     0.000523     0.001800     YES
 RMS     Displacement     0.000165     0.001200     YES
 Predicted change in Energy=-2.347495D-08
 Optimization completed.
    -- Stationary point found.
                           ----------------------------
                           !   Optimized Parameters   !
                           ! (Angstroms and Degrees)  !
 --------------------------                            --------------------------
 ! Name  Definition              Value          Derivative Info.                !
 --------------------------------------------------------------------------------
 ! R1    R(1,2)                  1.8243         -DE/DX =    0.0                 !
 ! R2    R(2,3)                  1.0799         -DE/DX =    0.0                 !
 ! R3    R(2,4)                  1.0799         -DE/DX =    0.0                 !
 ! R4    R(2,5)                  1.0799         -DE/DX =    0.0                 !
 ! R5    R(2,6)                  1.8244         -DE/DX =    0.0                 !
 ! A1    A(1,2,3)               90.0038         -DE/DX =    0.0                 !
 ! A2    A(1,2,4)               89.9989         -DE/DX =    0.0                 !
 ! A3    A(1,2,5)               90.0051         -DE/DX =    0.0                 !
 ! A4    A(3,2,4)              120.001          -DE/DX =    0.0                 !
 ! A5    A(3,2,5)              119.9935         -DE/DX =    0.0                 !
 ! A6    A(3,2,6)               89.998          -DE/DX =    0.0                 !
 ! A7    A(4,2,5)              120.0055         -DE/DX =    0.0                 !
 ! A8    A(4,2,6)               89.9992         -DE/DX =    0.0                 !
 ! A9    A(5,2,6)               89.9949         -DE/DX =    0.0                 !
 ! A10   L(1,2,6,3,-1)         180.0018         -DE/DX =    0.0                 !
 ! A11   L(1,2,6,3,-2)         179.9989         -DE/DX =    0.0                 !
 ! D1    D(3,2,5,4)            179.991          -DE/DX =    0.0                 !
 ! D2    D(3,2,6,4)            120.001          -DE/DX =    0.0                 !
 ! D3    D(3,2,6,5)           -119.9935         -DE/DX =    0.0                 !
 ! D4    D(4,2,6,5)            120.0055         -DE/DX =    0.0                 !
 --------------------------------------------------------------------------------
 GradGradGradGradGradGradGradGradGradGradGradGradGradGradGradGradGradGrad

 Leave Link  103 at Wed Oct  7 13:06:29 2020, MaxMem=  2684354560 cpu:               1.7 elap:               0.4
 (Enter /udrive/faculty/rpeverati/g16/g16/l9999.exe)

 ----------------------------------------------------------------------

 Electric dipole moment (input orientation):
 (Debye = 10**-18 statcoulomb cm , SI units = C m)
                  (au)            (Debye)         (10**-30 SI)
   Tot        0.223131D-03      0.567141D-03      0.189178D-02
   x          0.219154D-03      0.557035D-03      0.185807D-02
   y         -0.307941D-04     -0.782708D-04     -0.261083D-03
   z          0.284663D-04      0.723541D-04      0.241347D-03

 Dipole polarizability, Alpha (input orientation).
 (esu units = cm**3 , SI units = C**2 m**2 J**-1)
 Alpha(0;0):
               (au)            (10**-24 esu)      (10**-40 SI)
   iso        0.203308D+02      0.301272D+01      0.335210D+01
   aniso      0.161479D+02      0.239287D+01      0.266243D+01
   xx         0.310961D+02      0.460797D+01      0.512705D+01
   yx        -0.251608D-03     -0.372845D-04     -0.414846D-04
   yy         0.149488D+02      0.221518D+01      0.246472D+01
   zx        -0.463556D-04     -0.686920D-05     -0.764301D-05
   zy         0.475594D-04      0.704758D-05      0.784149D-05
   zz         0.149476D+02      0.221501D+01      0.246453D+01

 ----------------------------------------------------------------------

 Dipole orientation:
     9          0.49813253          0.41381753          3.38627572
     6          0.00003696         -0.00051536          0.00031233
     1         -1.99127881         -0.30175665          0.32997143
     1          0.70517187          1.88512276         -0.33412020
     1          1.28602534         -1.58511442          0.00485568
     9         -0.49798923         -0.41479201         -3.38585294

 Electric dipole moment (dipole orientation):
 (Debye = 10**-18 statcoulomb cm , SI units = C m)
                  (au)            (Debye)         (10**-30 SI)
   Tot        0.223131D-03      0.567141D-03      0.189178D-02
   x          0.000000D+00      0.000000D+00      0.000000D+00
   y          0.000000D+00      0.000000D+00      0.000000D+00
   z          0.223131D-03      0.567141D-03      0.189178D-02

 Dipole polarizability, Alpha (dipole orientation).
 (esu units = cm**3 , SI units = C**2 m**2 J**-1)
 Alpha(0;0):
               (au)            (10**-24 esu)      (10**-40 SI)
   iso        0.203308D+02      0.301272D+01      0.335210D+01
   aniso      0.161479D+02      0.239287D+01      0.266243D+01
   xx         0.152847D+02      0.226496D+01      0.252010D+01
   yx         0.280505D+00      0.415666D-01      0.462490D-01
   yy         0.151821D+02      0.224975D+01      0.250318D+01
   zx         0.229138D+01      0.339547D+00      0.377797D+00
   zy         0.190628D+01      0.282481D+00      0.314302D+00
   zz         0.305258D+02      0.452345D+01      0.503302D+01

 ----------------------------------------------------------------------

 Test job not archived.
 1\1\GINC-NODE59\Freq\RTPSSTPSS\6-31G(d)\C1H3F2(1-)\RPEVERATI\07-Oct-20
 20\0\\#P Freq TPSSTPSS/6-31G* 5D 7F Integral=UltraFineGrid SCF=(NoSymm
 ,XQC,MaxCyc=120) EmpiricalDispersion=GD3BJ IOp(1/33=1) Geom=Check Gues
 s=Read\\TS search on BH76.\\-1,1\F,1.8244142259,-0.0003321906,-0.00007
 14942\C,0.0001323732,-0.0002885707,-0.0000357605\H,0.0000737553,-0.307
 7574298,1.0352006647\H,0.0001725428,1.0499738013,-0.2513947578\H,0.000
 0036616,-0.7431827261,-0.7838434513\F,-1.8242455214,-0.0001965293,-0.0
 000456121\\Version=ES64L-G16RevA.03\State=1-A\HF=-239.542373\RMSD=4.84
 6e-09\RMSF=1.542e-05\ZeroPoint=0.0375033\Thermal=0.0416138\Dipole=0.00
 02192,-0.0000308,0.0000285\DipoleDeriv=-1.4709438,0.0000371,0.0000099,
 0.000021,-0.5630364,0.0000081,0.0000111,0.0000012,-0.5630435,2.1835018
 ,-0.0000567,-0.0000108,-0.0000805,0.3591514,0.0000172,-0.0000154,-0.00
 00138,0.3591324,-0.0805539,0.0000023,0.0000097,0.000008,0.0181823,0.06
 24279,0.000003,0.0624423,-0.1735382,-0.0805581,-0.0000119,0.000005,-0.
 0000031,-0.1796492,0.0517688,0.0000044,0.0517595,0.0243129,-0.0805756,
 -0.0000143,-0.0000193,0.0000009,-0.0715593,-0.1142283,-0.0000063,-0.11
 41884,-0.0837646,-1.4708704,0.0000436,0.0000056,0.0000537,-0.5630889,0
 .0000063,0.0000032,-0.0000007,-0.5630991\Polar=31.0961003,-0.0002516,1
 4.9487751,-0.0000464,0.0000476,14.9476418\Quadrupole=-9.9539881,4.9771
 104,4.9768777,0.0006146,0.0001175,-0.0000122\PG=C01 [X(C1H3F2)]\NImag=
 1\\0.06777721,-0.00000501,0.01540518,-0.00000309,-0.00000358,0.0154058
 1,0.02395891,0.00000246,0.00000137,-0.06388568,-0.00000141,-0.03080634
 ,-0.00000101,0.00005317,0.69219439,-0.00000272,0.00000044,-0.03080031,
 0.00001023,0.00003298,0.69212907,-0.02290847,-0.00293950,0.00989919,0.
 00531244,-0.00000830,0.00001602,0.03675917,-0.00166003,0.00226330,-0.0
 0051694,-0.00000981,-0.08269909,0.08303236,0.00000671,0.06954857,0.005
 59472,-0.00051562,0.00384377,0.00001693,0.08303143,-0.33766998,-0.0000
 1778,-0.08815922,0.34027542,-0.02291388,0.01004362,-0.00240296,0.00533
 500,-0.00001376,0.00000184,0.00187180,-0.00000100,-0.00000009,0.036745
 72,0.00567684,0.00390161,-0.00042300,-0.00001448,-0.34582033,0.0688784
 7,-0.00000008,-0.00102271,-0.00096998,0.00001031,0.34891058,-0.0013583
 1,-0.00042324,0.00221785,0.00000150,0.06887367,-0.07452081,0.00000033,
 0.02350977,0.00018961,-0.00000188,-0.07314029,0.06085529,-0.02290840,-
 0.00710188,-0.00749435,0.00531759,-0.00002902,-0.00002770,0.00187284,0
 .00000123,0.00000106,0.00187029,0.00000001,-0.00000010,0.03675844,-0.0
 0401162,0.00300666,0.00094425,-0.00003136,-0.20206960,-0.15194461,0.00
 000111,0.00964762,0.00712878,-0.00000198,-0.00987233,-0.01839664,0.000
 02798,0.19628233,-0.00423104,0.00094172,0.00310370,-0.00002916,-0.1519
 3598,-0.21834485,-0.00000232,-0.01735017,-0.01048278,0.00000098,0.0060
 7822,0.00904127,0.00002833,0.16132496,0.21357932,-0.02300537,0.0000003
 1,-0.00000015,0.02396174,-0.00000068,0.00000233,-0.02290778,0.00166289
 ,-0.00559485,-0.02290893,-0.00567261,0.00135845,-0.02291076,0.00401587
 ,0.00423321,0.06777111,0.00000123,0.00622960,0.00000028,0.,-0.03079903
 ,0.00000036,0.00294006,0.00226231,-0.00051538,-0.01003720,0.00390318,-
 0.00042328,0.00710167,0.00300532,0.00094126,-0.00000577,0.01539862,0.0
 0000044,0.00000028,0.00622919,-0.00000087,-0.00000109,-0.03079312,-0.0
 0989545,-0.00051579,0.00384397,0.00240210,-0.00042343,0.00221680,0.007
 49276,0.00094326,0.00310334,0.00000101,-0.00000323,0.01539982\\0.00004
 596,0.00000220,-0.00000141,-0.00000588,0.00001333,-0.00000738,0.000000
 05,-0.00000824,0.00000311,0.00000384,0.00000105,0.00000400,-0.00000265
 ,-0.00000726,0.00000373,-0.00004132,-0.00000108,-0.00000205\\\@


 EXPERIMENTALISTS THINK SILICON IS REALLY FUN TO USE
     ITS PLACE IN NOVEL COMPOUNDS IS CERTAIN TO AMUSE
 THEY SIT ALL DAY IN LABORATORIES MAKING ALL THIS SLUDGE
     "LOADED WITH THE SILICON THEY SAY", TO ME IT LOOKS LIKE FUDGE.
 FOR HAPPY THOUGH THEY BE WITH CRUD, I'D LIKE TO KNOW A LITTLE
      ABOUT THE PI BONDS ON THE EDGE AND SIGMAS IN THE MIDDLE.

 SO LETS DERIVE A WAVEFUNCTION.....6-31G*
     USE AN OPTIMAL GEOMETRY AND SEE WHERE ELECTRONS ARE.
 BUT WHAT OF CORRELATION?  ASKS THE WIRY LITTLE SKEPTIC.
     WE'LL THROW IN PERTURBATION AS AN ELECTRON ANTISEPTIC.
 AND WHEN THE PROGRAM GIVES US ANSWERS IN THEM WE CAN TRUST
     SINCE NOBODY CAN MAKE THE STUFF, WE HAVE NO CHOICE, WE MUST.

 SO THEORY GUYS HAVE GOT IT MADE, IN ROOMS FREE OF POLLUTION.
     INSTEAD OF PROBLEMS WITH THE REFLUX, THEY HAVE ONLY SOLUTIONS.
 AND WHEN THE FEDS ANNOUNCE THE LIST OF CARCINOGENIC TERRORS,
     THE THEORISTS SIT SAFELY AT THEIR TERMINALS FIXING ERRORS.
 IN OTHER WORDS, EXPERIMENTALISTS WILL LIKELY DIE OF CANCER
     FROM WORKING HARD YET FRUITLESSLY...TILL THEORY GIVES THE ANSWER.
          -- THOMAS A. HOLME, 1983
 Job cpu time:       0 days  0 hours  2 minutes 37.4 seconds.
 Elapsed time:       0 days  0 hours  0 minutes 20.9 seconds.
 File lengths (MBytes):  RWF=      7 Int=      0 D2E=      0 Chk=      1 Scr=      1
 Normal termination of Gaussian 16 at Wed Oct  7 13:06:30 2020.
