 Entering Gaussian System, Link 0=g16
 Input=MN_45_hclhts_BH76_TPSSDBJ_631Gs.in
 Output=MN_45_hclhts_BH76_TPSSDBJ_631Gs.log
 Initial command:
 /udrive/faculty/rpeverati/g16/g16/l1.exe "/udrive/scratch-directories/gaussian09/rpeverati/Gau-29702.inp" -scrdir="/udrive/scratch-directories/gaussian09/rpeverati/"
 Entering Link 1 = /udrive/faculty/rpeverati/g16/g16/l1.exe PID=     29719.
  
 Copyright (c) 1988,1990,1992,1993,1995,1998,2003,2009,2016,
            Gaussian, Inc.  All Rights Reserved.
  
 This is part of the Gaussian(R) 16 program.  It is based on
 the Gaussian(R) 09 system (copyright 2009, Gaussian, Inc.),
 the Gaussian(R) 03 system (copyright 2003, Gaussian, Inc.),
 the Gaussian(R) 98 system (copyright 1998, Gaussian, Inc.),
 the Gaussian(R) 94 system (copyright 1995, Gaussian, Inc.),
 the Gaussian 92(TM) system (copyright 1992, Gaussian, Inc.),
 the Gaussian 90(TM) system (copyright 1990, Gaussian, Inc.),
 the Gaussian 88(TM) system (copyright 1988, Gaussian, Inc.),
 the Gaussian 86(TM) system (copyright 1986, Carnegie Mellon
 University), and the Gaussian 82(TM) system (copyright 1983,
 Carnegie Mellon University). Gaussian is a federally registered
 trademark of Gaussian, Inc.
  
 This software contains proprietary and confidential information,
 including trade secrets, belonging to Gaussian, Inc.
  
 This software is provided under written license and may be
 used, copied, transmitted, or stored only in accord with that
 written license.
  
 The following legend is applicable only to US Government
 contracts under FAR:
  
                    RESTRICTED RIGHTS LEGEND
  
 Use, reproduction and disclosure by the US Government is
 subject to restrictions as set forth in subparagraphs (a)
 and (c) of the Commercial Computer Software - Restricted
 Rights clause in FAR 52.227-19.
  
 Gaussian, Inc.
 340 Quinnipiac St., Bldg. 40, Wallingford CT 06492
  
  
 ---------------------------------------------------------------
 Warning -- This program may not be used in any manner that
 competes with the business of Gaussian, Inc. or will provide
 assistance to any competitor of Gaussian, Inc.  The licensee
 of this program is prohibited from giving any competitor of
 Gaussian, Inc. access to this program.  By using this program,
 the user acknowledges that Gaussian, Inc. is engaged in the
 business of creating and licensing software in the field of
 computational chemistry and represents and warrants to the
 licensee that it is not a competitor of Gaussian, Inc. and that
 it will not use this program in any manner prohibited above.
 ---------------------------------------------------------------
  

 Cite this work as:
 Gaussian 16, Revision A.03,
 M. J. Frisch, G. W. Trucks, H. B. Schlegel, G. E. Scuseria, 
 M. A. Robb, J. R. Cheeseman, G. Scalmani, V. Barone, 
 G. A. Petersson, H. Nakatsuji, X. Li, M. Caricato, A. V. Marenich, 
 J. Bloino, B. G. Janesko, R. Gomperts, B. Mennucci, H. P. Hratchian, 
 J. V. Ortiz, A. F. Izmaylov, J. L. Sonnenberg, D. Williams-Young, 
 F. Ding, F. Lipparini, F. Egidi, J. Goings, B. Peng, A. Petrone, 
 T. Henderson, D. Ranasinghe, V. G. Zakrzewski, J. Gao, N. Rega, 
 G. Zheng, W. Liang, M. Hada, M. Ehara, K. Toyota, R. Fukuda, 
 J. Hasegawa, M. Ishida, T. Nakajima, Y. Honda, O. Kitao, H. Nakai, 
 T. Vreven, K. Throssell, J. A. Montgomery, Jr., J. E. Peralta, 
 F. Ogliaro, M. J. Bearpark, J. J. Heyd, E. N. Brothers, K. N. Kudin, 
 V. N. Staroverov, T. A. Keith, R. Kobayashi, J. Normand, 
 K. Raghavachari, A. P. Rendell, J. C. Burant, S. S. Iyengar, 
 J. Tomasi, M. Cossi, J. M. Millam, M. Klene, C. Adamo, R. Cammi, 
 J. W. Ochterski, R. L. Martin, K. Morokuma, O. Farkas, 
 J. B. Foresman, and D. J. Fox, Gaussian, Inc., Wallingford CT, 2016.
 
 ******************************************
 Gaussian 16:  ES64L-G16RevA.03 25-Dec-2016
                 7-Oct-2020 
 ******************************************
 %NoSave
 %nproc=12
 Will use up to   12 processors via shared memory.
 %mem=20GB
 %chk=MN_45_hclhts_BH76_TPSSDBJ_631Gs
 ----------------------------------------------------------------------
 #P Opt(TS,MaxCyc=50,NoEigenTest,MaxStep=10,AddRedundant) TPSSTPSS/6-31
 G* 5D 7F Integral=UltraFineGrid SCF=(NoSymm,XQC,MaxCyc=120) EmpiricalD
 ispersion=GD3BJ IOp(1/33=1)
 ----------------------------------------------------------------------
 1/5=1,6=50,8=10,11=1,18=120,26=4,33=1,38=1/1,3;
 2/9=110,12=2,17=6,18=5,40=1/2;
 3/5=1,6=6,7=1,8=11,11=2,25=1,30=1,71=1,74=2523,75=-5,124=41/1,2,3;
 4/9=2/1;
 5/5=2,7=120,8=3,13=1,38=5/2,8;
 6/7=2,8=2,9=2,10=2,28=1/1;
 7//1,2,3,16;
 1/5=1,6=50,8=10,11=1,18=20,26=4,33=1/3(2);
 2/9=110/2;
 99//99;
 2/9=110/2;
 3/5=1,6=6,7=1,8=11,11=2,25=1,30=1,71=1,74=2523,75=-5,124=41/1,2,3;
 4/5=5,9=2,16=3,69=1/1;
 5/5=2,7=120,8=3,13=1,38=5/2,8;
 7//1,2,3,16;
 1/5=1,6=50,8=10,11=1,18=20,26=4,33=1/3(-5);
 2/9=110/2;
 6/7=2,8=2,9=2,10=2,19=2,28=1/1;
 99/9=1/99;
 Leave Link    1 at Wed Oct  7 13:05:08 2020, MaxMem=  2684354560 cpu:               6.1 elap:               0.6
 (Enter /udrive/faculty/rpeverati/g16/g16/l101.exe)
 ONIOM data not found on unit 2.
 ------------------
 TS search on BH76.
 ------------------
 TstMul:  ICh=     0
 TstMul:  Mul=     2
 TstMul:  ICh=     0
 TstMul:  Mul=     2
 Symbolic Z-matrix:
 Charge =  0 Multiplicity = 2
 H                     0.        0.        1.4858 
 Cl                    0.        0.        0. 
 H                     0.        0.       -1.4858 
 
 RdStrC is calling ZToCFu for IStruc=1 NZ=     3.
 PrtBox:  NBox=     1 Levels=  1 BoxLen=    8.00 SMaxX=        5.62
          Shift=            0.000000            0.000000            2.807760
 Box      1 Number                   0 centers from      1 to      3:
 After GenITR:
 ITRead=  0  0  0
 MicOpt= -1 -1 -1
 The following ModRedundant input section has been read:
 
 ITRead=  0  0  0
 MicOpt= -1 -1 -1
 NAtoms=      3 NQM=        3 NQMF=       0 NMMI=      0 NMMIF=      0
                NMic=       0 NMicF=      0.
                    Isotopes and Nuclear Properties:
 (Nuclear quadrupole moments (NQMom) in fm**2, nuclear magnetic moments (NMagM)
  in nuclear magnetons)

  Atom         1           2           3
 IAtWgt=           1          35           1
 AtmWgt=   1.0078250  34.9688527   1.0078250
 NucSpn=           1           3           1
 AtZEff=   0.0000000   0.0000000   0.0000000
 NQMom=    0.0000000  -8.1650000   0.0000000
 NMagM=    2.7928460   0.8218740   2.7928460
 AtZNuc=   1.0000000  17.0000000   1.0000000
 No MM parameters found.
 Leave Link  101 at Wed Oct  7 13:05:09 2020, MaxMem=  2684354560 cpu:               9.6 elap:               0.9
 (Enter /udrive/faculty/rpeverati/g16/g16/l103.exe)

 GradGradGradGradGradGradGradGradGradGradGradGradGradGradGradGradGradGrad
 Berny optimization.
 Optmz: redundant internal coordinate code flag= 1
 Initialization pass.
                           ----------------------------
                           !    Initial Parameters    !
                           ! (Angstroms and Degrees)  !
 --------------------------                            --------------------------
 ! Name  Definition              Value          Derivative Info.                !
 --------------------------------------------------------------------------------
 ! R1    R(1,2)                  1.4858         estimate D2E/DX2                !
 ! R2    R(2,3)                  1.4858         estimate D2E/DX2                !
 ! A1    L(1,2,3,-1,-1)        180.0            estimate D2E/DX2                !
 ! A2    L(1,2,3,-2,-2)        180.0            estimate D2E/DX2                !
 --------------------------------------------------------------------------------
 Maximum allowed force set to 1.00D+20.
 Trust Radius=1.00D-01 FncErr=1.00D-07 GrdErr=1.00D-06 EigMax=2.50D+02 EigMin=1.00D-04
 Number of steps in this run=     50 maximum allowed number of steps=    100.
 Search for a saddle point of order  1.
 GradGradGradGradGradGradGradGradGradGradGradGradGradGradGradGradGradGrad

 Leave Link  103 at Wed Oct  7 13:05:10 2020, MaxMem=  2684354560 cpu:               0.6 elap:               0.4
 (Enter /udrive/faculty/rpeverati/g16/g16/l202.exe)
                          Input orientation:                          
 ---------------------------------------------------------------------
 Center     Atomic      Atomic             Coordinates (Angstroms)
 Number     Number       Type             X           Y           Z
 ---------------------------------------------------------------------
      1          1           0        0.000000    0.000000    1.485803
      2         17           0        0.000000    0.000000    0.000000
      3          1           0        0.000000    0.000000   -1.485803
 ---------------------------------------------------------------------
                    Distance matrix (angstroms):
                    1          2          3
     1  H    0.000000
     2  Cl   1.485803   0.000000
     3  H    2.971605   1.485803   0.000000
 Stoichiometry    ClH2(2)
 Framework group  D*H[O(Cl),C*(H.H)]
 Deg. of freedom     1
 Full point group                 D*H     NOp   8
 Largest Abelian subgroup         D2H     NOp   8
 Largest concise Abelian subgroup C2      NOp   2
                         Standard orientation:                         
 ---------------------------------------------------------------------
 Center     Atomic      Atomic             Coordinates (Angstroms)
 Number     Number       Type             X           Y           Z
 ---------------------------------------------------------------------
      1          1           0        0.000000    0.000000    1.485803
      2         17           0        0.000000    0.000000    0.000000
      3          1           0        0.000000    0.000000   -1.485803
 ---------------------------------------------------------------------
 Rotational constants (GHZ):           0.0000000         113.5742375         113.5742375
 Leave Link  202 at Wed Oct  7 13:05:10 2020, MaxMem=  2684354560 cpu:               1.0 elap:               0.4
 (Enter /udrive/faculty/rpeverati/g16/g16/l301.exe)
 Standard basis: 6-31G(d) (5D, 7F)
 Ernie: Thresh=  0.10000D-02 Tol=  0.10000D-05 Strict=F.
 There are     9 symmetry adapted cartesian basis functions of AG  symmetry.
 There are     1 symmetry adapted cartesian basis functions of B1G symmetry.
 There are     1 symmetry adapted cartesian basis functions of B2G symmetry.
 There are     1 symmetry adapted cartesian basis functions of B3G symmetry.
 There are     0 symmetry adapted cartesian basis functions of AU  symmetry.
 There are     5 symmetry adapted cartesian basis functions of B1U symmetry.
 There are     3 symmetry adapted cartesian basis functions of B2U symmetry.
 There are     3 symmetry adapted cartesian basis functions of B3U symmetry.
 There are     8 symmetry adapted basis functions of AG  symmetry.
 There are     1 symmetry adapted basis functions of B1G symmetry.
 There are     1 symmetry adapted basis functions of B2G symmetry.
 There are     1 symmetry adapted basis functions of B3G symmetry.
 There are     0 symmetry adapted basis functions of AU  symmetry.
 There are     5 symmetry adapted basis functions of B1U symmetry.
 There are     3 symmetry adapted basis functions of B2U symmetry.
 There are     3 symmetry adapted basis functions of B3U symmetry.
    22 basis functions,    60 primitive gaussians,    23 cartesian basis functions
    10 alpha electrons        9 beta electrons
       nuclear repulsion energy        12.2873749921 Hartrees.
 IExCor= 2523 DFT=T Ex=TPSS Corr=TPSS ExCW=0 ScaHFX=  0.000000
 ScaDFX=  1.000000  1.000000  1.000000  1.000000 ScalE2=  1.000000  1.000000
 IRadAn=      5 IRanWt=     -1 IRanGd=            0 ICorTp=0 IEmpDi=141
 NAtoms=    3 NActive=    3 NUniq=    2 SFac= 2.25D+00 NAtFMM=   60 NAOKFM=F Big=F
 Integral buffers will be    131072 words long.
 Raffenetti 2 integral format.
 Two-electron integral symmetry is turned on.
 R6Disp:  Grimme-D3(BJ) Dispersion energy=       -0.0008547718 Hartrees.
 Nuclear repulsion after empirical dispersion term =       12.2865202202 Hartrees.
 Leave Link  301 at Wed Oct  7 13:05:11 2020, MaxMem=  2684354560 cpu:               1.5 elap:               0.5
 (Enter /udrive/faculty/rpeverati/g16/g16/l302.exe)
 NPDir=0 NMtPBC=     1 NCelOv=     1 NCel=       1 NClECP=     1 NCelD=      1
         NCelK=      1 NCelE2=     1 NClLst=     1 CellRange=     0.0.
 One-electron integrals computed using PRISM.
 One-electron integral symmetry used in STVInt
 NBasis=    22 RedAO= T EigKep=  5.52D-02  NBF=     8     1     1     1     0     5     3     3
 NBsUse=    22 1.00D-06 EigRej= -1.00D+00 NBFU=     8     1     1     1     0     5     3     3
 Precomputing XC quadrature grid using
 IXCGrd= 4 IRadAn=           5 IRanWt=          -1 IRanGd=           0 AccXCQ= 0.00D+00.
 Generated NRdTot=       0 NPtTot=           0 NUsed=           0 NTot=          32
 NSgBfM=    23    23    23    23    23 MxSgAt=     3 MxSgA2=     3.
 Leave Link  302 at Wed Oct  7 13:05:12 2020, MaxMem=  2684354560 cpu:               4.0 elap:               0.6
 (Enter /udrive/faculty/rpeverati/g16/g16/l303.exe)
 DipDrv:  MaxL=1.
 Leave Link  303 at Wed Oct  7 13:05:12 2020, MaxMem=  2684354560 cpu:               0.8 elap:               0.3
 (Enter /udrive/faculty/rpeverati/g16/g16/l401.exe)
 SCF N**3 symmetry information disabled.
 ExpMin= 1.43D-01 ExpMax= 2.52D+04 ExpMxC= 3.78D+03 IAcc=3 IRadAn=         5 AccDes= 0.00D+00
 Harris functional with IExCor= 1009 and IRadAn=       5 diagonalized for initial guess.
 HarFok:  IExCor= 1009 AccDes= 0.00D+00 IRadAn=         5 IDoV= 1 UseB2=F ITyADJ=14
 ICtDFT=  3500011 ScaDFX=  1.000000  1.000000  1.000000  1.000000
 FoFCou: FMM=F IPFlag=           0 FMFlag=      100000 FMFlg1=           0
         NFxFlg=           0 DoJE=T BraDBF=F KetDBF=T FulRan=T
         wScrn=  0.000000 ICntrl=       500 IOpCl=  0 I1Cent=   200000004 NGrid=           0
         NMat0=    1 NMatS0=      1 NMatT0=    0 NMatD0=    1 NMtDS0=    0 NMtDT0=    0
 Petite list used in FoFCou.
 Harris En= -460.968152914253    
 JPrj=0 DoOrth=F DoCkMO=F.
 Initial guess orbital symmetries:
 Alpha Orbitals:
       Occupied  (SGG) (SGG) (SGU) (PIU) (PIU) (SGG) (SGU) (PIU)
                 (PIU) (SGG)
       Virtual   (SGU) (SGG) (PIU) (PIU) (SGU) (SGG) (SGU) (PIG)
                 (PIG) (DLTG) (DLTG) (SGG)
 Beta  Orbitals:
       Occupied  (SGG) (SGG) (SGU) (PIU) (PIU) (SGG) (SGU) (PIU)
                 (PIU)
       Virtual   (SGG) (SGU) (SGG) (PIU) (PIU) (SGU) (SGG) (SGU)
                 (PIG) (PIG) (DLTG) (DLTG) (SGG)
 The electronic state of the initial guess is 2-SGG.
 Initial guess <Sx>= 0.0000 <Sy>= 0.0000 <Sz>= 0.5000 <S**2>= 0.7500 S= 0.5000
 Leave Link  401 at Wed Oct  7 13:05:13 2020, MaxMem=  2684354560 cpu:               4.9 elap:               0.7
 (Enter /udrive/faculty/rpeverati/g16/g16/l502.exe)
 Keep J ints in memory in symmetry-blocked form, NReq=10387291.
 FoFCou: FMM=F IPFlag=           0 FMFlag=           0 FMFlg1=           0
         NFxFlg=           0 DoJE=F BraDBF=F KetDBF=F FulRan=T
         wScrn=  0.000000 ICntrl=       600 IOpCl=  0 I1Cent=           0 NGrid=           0
         NMat0=    1 NMatS0=    253 NMatT0=    0 NMatD0=    1 NMtDS0=    0 NMtDT0=    0
 Petite list used in FoFCou.
 UHF open shell SCF:
 Using DIIS extrapolation, IDIIS=  1040.
 NGot=  2684354560 LenX=  2684344661 LenY=  2684343691
 Requested convergence on RMS density matrix=1.00D-08 within 120 cycles.
 Requested convergence on MAX density matrix=1.00D-06.
 Requested convergence on             energy=1.00D-06.
 No special actions if energy rises.
 Integral accuracy reduced to 1.0D-05 until final iterations.

 Cycle   1  Pass 0  IDiag  1:
 E= -461.271632660672    
 DIIS: error= 1.62D-02 at cycle   1 NSaved=   1.
 NSaved= 1 IEnMin= 1 EnMin= -461.271632660672     IErMin= 1 ErrMin= 1.62D-02
 ErrMax= 1.62D-02  0.00D+00 EMaxC= 1.00D-01 BMatC= 2.24D-02 BMatP= 2.24D-02
 IDIUse=3 WtCom= 8.38D-01 WtEn= 1.62D-01
 Coeff-Com:  0.100D+01
 Coeff-En:   0.100D+01
 Coeff:      0.100D+01
 Gap=     0.223 Goal=   None    Shift=    0.000
 Gap=     0.168 Goal=   None    Shift=    0.000
 GapD=    0.168 DampG=1.000 DampE=0.500 DampFc=0.5000 IDamp=-1.
 Damping current iteration by 5.00D-01
 RMSDP=7.44D-03 MaxDP=6.58D-02              OVMax= 5.99D-02

 Cycle   2  Pass 0  IDiag  1:
 E= -461.275035483276     Delta-E=       -0.003402822604 Rises=F Damp=T
 DIIS: error= 1.05D-02 at cycle   2 NSaved=   2.
 NSaved= 2 IEnMin= 2 EnMin= -461.275035483276     IErMin= 2 ErrMin= 1.05D-02
 ErrMax= 1.05D-02  0.00D+00 EMaxC= 1.00D-01 BMatC= 4.33D-03 BMatP= 2.24D-02
 IDIUse=3 WtCom= 8.95D-01 WtEn= 1.05D-01
 Coeff-Com: -0.424D+00 0.142D+01
 Coeff-En:   0.000D+00 0.100D+01
 Coeff:     -0.380D+00 0.138D+01
 Gap=     0.231 Goal=   None    Shift=    0.000
 Gap=     0.161 Goal=   None    Shift=    0.000
 RMSDP=2.97D-03 MaxDP=3.32D-02 DE=-3.40D-03 OVMax= 2.78D-02

 Cycle   3  Pass 0  IDiag  1:
 E= -461.278765623451     Delta-E=       -0.003730140175 Rises=F Damp=F
 DIIS: error= 5.54D-03 at cycle   3 NSaved=   3.
 NSaved= 3 IEnMin= 3 EnMin= -461.278765623451     IErMin= 3 ErrMin= 5.54D-03
 ErrMax= 5.54D-03  0.00D+00 EMaxC= 1.00D-01 BMatC= 1.03D-03 BMatP= 4.33D-03
 IDIUse=3 WtCom= 9.45D-01 WtEn= 5.54D-02
 Coeff-Com: -0.291D+00 0.525D+00 0.766D+00
 Coeff-En:   0.000D+00 0.000D+00 0.100D+01
 Coeff:     -0.275D+00 0.496D+00 0.779D+00
 Gap=     0.231 Goal=   None    Shift=    0.000
 Gap=     0.173 Goal=   None    Shift=    0.000
 RMSDP=1.24D-03 MaxDP=1.50D-02 DE=-3.73D-03 OVMax= 1.35D-02

 Cycle   4  Pass 0  IDiag  1:
 E= -461.279129079586     Delta-E=       -0.000363456135 Rises=F Damp=F
 DIIS: error= 1.18D-03 at cycle   4 NSaved=   4.
 NSaved= 4 IEnMin= 4 EnMin= -461.279129079586     IErMin= 4 ErrMin= 1.18D-03
 ErrMax= 1.18D-03  0.00D+00 EMaxC= 1.00D-01 BMatC= 3.90D-05 BMatP= 1.03D-03
 IDIUse=3 WtCom= 9.88D-01 WtEn= 1.18D-02
 Coeff-Com:  0.776D-01-0.192D+00 0.127D-01 0.110D+01
 Coeff-En:   0.000D+00 0.000D+00 0.000D+00 0.100D+01
 Coeff:      0.767D-01-0.190D+00 0.126D-01 0.110D+01
 Gap=     0.233 Goal=   None    Shift=    0.000
 Gap=     0.173 Goal=   None    Shift=    0.000
 RMSDP=2.51D-04 MaxDP=3.52D-03 DE=-3.63D-04 OVMax= 3.51D-03

 Cycle   5  Pass 0  IDiag  1:
 E= -461.279146037978     Delta-E=       -0.000016958392 Rises=F Damp=F
 DIIS: error= 4.13D-05 at cycle   5 NSaved=   5.
 NSaved= 5 IEnMin= 5 EnMin= -461.279146037978     IErMin= 5 ErrMin= 4.13D-05
 ErrMax= 4.13D-05  0.00D+00 EMaxC= 1.00D-01 BMatC= 6.23D-08 BMatP= 3.90D-05
 IDIUse=1 WtCom= 1.00D+00 WtEn= 0.00D+00
 Coeff-Com:  0.267D-02-0.439D-02-0.972D-02 0.156D-01 0.996D+00
 Coeff:      0.267D-02-0.439D-02-0.972D-02 0.156D-01 0.996D+00
 Gap=     0.233 Goal=   None    Shift=    0.000
 Gap=     0.173 Goal=   None    Shift=    0.000
 RMSDP=1.02D-05 MaxDP=1.37D-04 DE=-1.70D-05 OVMax= 1.17D-04

 Cycle   6  Pass 0  IDiag  1:
 E= -461.279146066208     Delta-E=       -0.000000028230 Rises=F Damp=F
 DIIS: error= 2.69D-06 at cycle   6 NSaved=   6.
 NSaved= 6 IEnMin= 6 EnMin= -461.279146066208     IErMin= 6 ErrMin= 2.69D-06
 ErrMax= 2.69D-06  0.00D+00 EMaxC= 1.00D-01 BMatC= 3.84D-10 BMatP= 6.23D-08
 IDIUse=1 WtCom= 1.00D+00 WtEn= 0.00D+00
 Coeff-Com: -0.977D-03 0.211D-02 0.850D-03-0.106D-01-0.112D+00 0.112D+01
 Coeff:     -0.977D-03 0.211D-02 0.850D-03-0.106D-01-0.112D+00 0.112D+01
 Gap=     0.233 Goal=   None    Shift=    0.000
 Gap=     0.173 Goal=   None    Shift=    0.000
 RMSDP=1.39D-06 MaxDP=1.53D-05 DE=-2.82D-08 OVMax= 8.44D-06

 Initial convergence to 1.0D-05 achieved.  Increase integral accuracy.
 Cycle   7  Pass 1  IDiag  1:
 E= -461.279141016596     Delta-E=        0.000005049612 Rises=F Damp=F
 DIIS: error= 2.58D-06 at cycle   1 NSaved=   1.
 NSaved= 1 IEnMin= 1 EnMin= -461.279141016596     IErMin= 1 ErrMin= 2.58D-06
 ErrMax= 2.58D-06  0.00D+00 EMaxC= 1.00D-01 BMatC= 5.34D-10 BMatP= 5.34D-10
 IDIUse=1 WtCom= 1.00D+00 WtEn= 0.00D+00
 Coeff-Com:  0.100D+01
 Coeff:      0.100D+01
 Gap=     0.233 Goal=   None    Shift=    0.000
 Gap=     0.173 Goal=   None    Shift=    0.000
 RMSDP=1.39D-06 MaxDP=1.53D-05 DE= 5.05D-06 OVMax= 3.39D-06

 Cycle   8  Pass 1  IDiag  1:
 E= -461.279141016706     Delta-E=       -0.000000000110 Rises=F Damp=F
 DIIS: error= 8.88D-07 at cycle   2 NSaved=   2.
 NSaved= 2 IEnMin= 2 EnMin= -461.279141016706     IErMin= 2 ErrMin= 8.88D-07
 ErrMax= 8.88D-07  0.00D+00 EMaxC= 1.00D-01 BMatC= 7.20D-11 BMatP= 5.34D-10
 IDIUse=1 WtCom= 1.00D+00 WtEn= 0.00D+00
 Coeff-Com:  0.167D+00 0.833D+00
 Coeff:      0.167D+00 0.833D+00
 Gap=     0.233 Goal=   None    Shift=    0.000
 Gap=     0.173 Goal=   None    Shift=    0.000
 RMSDP=4.92D-07 MaxDP=4.43D-06 DE=-1.10D-10 OVMax= 3.24D-06

 Cycle   9  Pass 1  IDiag  1:
 E= -461.279141016717     Delta-E=       -0.000000000011 Rises=F Damp=F
 DIIS: error= 6.92D-07 at cycle   3 NSaved=   3.
 NSaved= 3 IEnMin= 3 EnMin= -461.279141016717     IErMin= 3 ErrMin= 6.92D-07
 ErrMax= 6.92D-07  0.00D+00 EMaxC= 1.00D-01 BMatC= 3.91D-11 BMatP= 7.20D-11
 IDIUse=1 WtCom= 1.00D+00 WtEn= 0.00D+00
 Coeff-Com:  0.870D-02 0.422D+00 0.569D+00
 Coeff:      0.870D-02 0.422D+00 0.569D+00
 Gap=     0.233 Goal=   None    Shift=    0.000
 Gap=     0.173 Goal=   None    Shift=    0.000
 RMSDP=2.10D-07 MaxDP=1.78D-06 DE=-1.15D-11 OVMax= 1.42D-06

 Cycle  10  Pass 1  IDiag  1:
 E= -461.279141016729     Delta-E=       -0.000000000012 Rises=F Damp=F
 DIIS: error= 2.60D-08 at cycle   4 NSaved=   4.
 NSaved= 4 IEnMin= 4 EnMin= -461.279141016729     IErMin= 4 ErrMin= 2.60D-08
 ErrMax= 2.60D-08  0.00D+00 EMaxC= 1.00D-01 BMatC= 2.13D-14 BMatP= 3.91D-11
 IDIUse=1 WtCom= 1.00D+00 WtEn= 0.00D+00
 Coeff-Com: -0.238D-02-0.331D-01-0.340D-01 0.107D+01
 Coeff:     -0.238D-02-0.331D-01-0.340D-01 0.107D+01
 Gap=     0.233 Goal=   None    Shift=    0.000
 Gap=     0.173 Goal=   None    Shift=    0.000
 RMSDP=8.38D-09 MaxDP=7.89D-08 DE=-1.20D-11 OVMax= 8.59D-08

 SCF Done:  E(UTPSS-TPSS) =  -461.279141017     A.U. after   10 cycles
            NFock= 10  Conv=0.84D-08     -V/T= 2.0017
 <Sx>= 0.0000 <Sy>= 0.0000 <Sz>= 0.5000 <S**2>= 0.7662 S= 0.5081
 <L.S>= 0.000000000000E+00
 KE= 4.605005234447D+02 PE=-1.121191242948D+03 EE= 1.871250582659D+02
 Annihilation of the first spin contaminant:
 S**2 before annihilation     0.7662,   after     0.7500
 Leave Link  502 at Wed Oct  7 13:05:15 2020, MaxMem=  2684354560 cpu:              12.6 elap:               1.5
 (Enter /udrive/faculty/rpeverati/g16/g16/l508.exe)
 QCSCF skips out because SCF is already converged.
 Leave Link  508 at Wed Oct  7 13:05:16 2020, MaxMem=  2684354560 cpu:               0.3 elap:               0.4
 (Enter /udrive/faculty/rpeverati/g16/g16/l601.exe)
 Copying SCF densities to generalized density rwf, IOpCl= 1 IROHF=0.

 **********************************************************************

            Population analysis using the SCF density.

 **********************************************************************

 Orbital symmetries:
 Alpha Orbitals:
       Occupied  (SGG) (SGG) (SGU) (PIU) (PIU) (SGG) (SGU) (PIU)
                 (PIU) (SGG)
       Virtual   (SGU) (SGG) (PIU) (PIU) (SGU) (SGG) (SGU) (PIG)
                 (PIG) (DLTG) (DLTG) (SGG)
 Beta  Orbitals:
       Occupied  (SGG) (SGG) (SGU) (PIU) (PIU) (SGG) (SGU) (PIU)
                 (PIU)
       Virtual   (SGG) (SGU) (SGG) (PIU) (PIU) (SGU) (SGG) (PIG)
                 (PIG) (SGU) (DLTG) (DLTG) (SGG)
 The electronic state is 2-SGG.
 Alpha  occ. eigenvalues -- -101.01037  -9.26273  -7.04533  -7.03186  -7.03186
 Alpha  occ. eigenvalues --   -0.79091  -0.50207  -0.30503  -0.30503  -0.23252
 Alpha virt. eigenvalues --    0.00026   0.37206   0.41208   0.41208   0.60061
 Alpha virt. eigenvalues --    0.60982   0.69174   0.77799   0.77799   0.80752
 Alpha virt. eigenvalues --    0.80752   1.05822
  Beta  occ. eigenvalues -- -101.01018  -9.26218  -7.04667  -7.03090  -7.03090
  Beta  occ. eigenvalues --   -0.78496  -0.46316  -0.29879  -0.29879
  Beta virt. eigenvalues --   -0.12564   0.06292   0.37327   0.41733   0.41733
  Beta virt. eigenvalues --    0.60656   0.66068   0.77469   0.77469   0.80588
  Beta virt. eigenvalues --    0.81867   0.81868   1.12437
          Condensed to atoms (all electrons):
               1          2          3
     1  H    0.908483  -0.056596   0.026565
     2  Cl  -0.056596  17.356288  -0.056596
     3  H    0.026565  -0.056596   0.908483
          Atomic-Atomic Spin Densities.
               1          2          3
     1  H    0.769759  -0.241064   0.028531
     2  Cl  -0.241064   0.367675  -0.241064
     3  H    0.028531  -0.241064   0.769759
 Mulliken charges and spin densities:
               1          2
     1  H    0.121548   0.557227
     2  Cl  -0.243096  -0.114453
     3  H    0.121548   0.557227
 Sum of Mulliken charges =   0.00000   1.00000
 Mulliken charges and spin densities with hydrogens summed into heavy atoms:
               1          2
     2  Cl   0.000000   1.000000
 Electronic spatial extent (au):  <R**2>=             47.1036
 Charge=              0.0000 electrons
 Dipole moment (field-independent basis, Debye):
    X=              0.0000    Y=             -0.0000    Z=             -0.0000  Tot=              0.0000
 Quadrupole moment (field-independent basis, Debye-Ang):
   XX=            -15.1197   YY=            -15.1197   ZZ=            -11.9092
   XY=             -0.0000   XZ=             -0.0000   YZ=              0.0000
 Traceless Quadrupole moment (field-independent basis, Debye-Ang):
   XX=             -1.0702   YY=             -1.0702   ZZ=              2.1404
   XY=             -0.0000   XZ=             -0.0000   YZ=              0.0000
 Octapole moment (field-independent basis, Debye-Ang**2):
  XXX=             -0.0000  YYY=             -0.0000  ZZZ=             -0.0000  XYY=             -0.0000
  XXY=             -0.0000  XXZ=             -0.0000  XZZ=             -0.0000  YZZ=              0.0000
  YYZ=             -0.0000  XYZ=              0.0000
 Hexadecapole moment (field-independent basis, Debye-Ang**3):
 XXXX=            -16.7030 YYYY=            -16.7030 ZZZZ=            -38.4460 XXXY=             -0.0000
 XXXZ=              0.0000 YYYX=             -0.0000 YYYZ=              0.0000 ZZZX=              0.0000
 ZZZY=              0.0000 XXYY=             -5.5677 XXZZ=             -9.5101 YYZZ=             -9.5101
 XXYZ=              0.0000 YYXZ=              0.0000 ZZXY=             -0.0000
 N-N= 1.228652022023D+01 E-N=-1.121191242478D+03  KE= 4.605005234447D+02
                          Isotropic Fermi Contact Couplings
        Atom                 a.u.       MegaHertz       Gauss      10(-4) cm-1
     1  H(1)               0.20124     899.51594     320.96965     300.04622
     2  Cl(35)             1.34223     588.51950     209.99839     196.30898
     3  H(1)               0.20124     899.51594     320.96965     300.04622
 --------------------------------------------------------
       Center         ----  Spin Dipole Couplings  ----
                      3XX-RR        3YY-RR        3ZZ-RR
 --------------------------------------------------------
     1   Atom        0.005924      0.005924     -0.011847
     2   Atom        0.480183      0.480183     -0.960365
     3   Atom        0.005924      0.005924     -0.011847
 --------------------------------------------------------
                        XY            XZ            YZ
 --------------------------------------------------------
     1   Atom        0.000000     -0.000000      0.000000
     2   Atom        0.000000      0.000000      0.000000
     3   Atom        0.000000      0.000000      0.000000
 --------------------------------------------------------


 ---------------------------------------------------------------------------------
              Anisotropic Spin Dipole Couplings in Principal Axis System
 ---------------------------------------------------------------------------------

       Atom             a.u.   MegaHertz   Gauss  10(-4) cm-1        Axes

              Baa    -0.0118    -6.321    -2.256    -2.109  0.0000  0.0000  1.0000
     1 H(1)   Bbb     0.0059     3.161     1.128     1.054  0.0000  1.0000  0.0000
              Bcc     0.0059     3.161     1.128     1.054  1.0000  0.0000 -0.0000
 
              Baa    -0.9604   -50.263   -17.935   -16.766 -0.0000  0.0000  1.0000
     2 Cl(35) Bbb     0.4802    25.132     8.968     8.383  1.0000  0.0002  0.0000
              Bcc     0.4802    25.132     8.968     8.383 -0.0002  1.0000 -0.0000
 
              Baa    -0.0118    -6.321    -2.256    -2.109 -0.0000  0.0000  1.0000
     3 H(1)   Bbb     0.0059     3.161     1.128     1.054 -0.0057  1.0000 -0.0000
              Bcc     0.0059     3.161     1.128     1.054  1.0000  0.0057  0.0000
 

 ---------------------------------------------------------------------------------

 No NMR shielding tensors so no spin-rotation constants.
 Leave Link  601 at Wed Oct  7 13:05:17 2020, MaxMem=  2684354560 cpu:               6.0 elap:               0.9
 (Enter /udrive/faculty/rpeverati/g16/g16/l701.exe)
 ... and contract with generalized density number  0.
 Compute integral first derivatives.
 R6Disp: Adding Grimme-D3(BJ) dispersion energy 1st derivatives to the gradient.
 Leave Link  701 at Wed Oct  7 13:05:18 2020, MaxMem=  2684354560 cpu:               3.9 elap:               0.7
 (Enter /udrive/faculty/rpeverati/g16/g16/l702.exe)
 L702 exits ... SP integral derivatives will be done elsewhere.
 Leave Link  702 at Wed Oct  7 13:05:19 2020, MaxMem=  2684354560 cpu:               1.7 elap:               0.5
 (Enter /udrive/faculty/rpeverati/g16/g16/l703.exe)
 Integral derivatives from FoFJK, PRISM(SPDF).
 Compute integral first derivatives, UseDBF=F ICtDFT=           0.
 Calling FoFJK, ICntrl=      2527 FMM=F ISym2X=1 I1Cent= 0 IOpClX= 0 NMat=1 NMatS=1 NMatT=0.
 FoFJK:  IHMeth= 1 ICntrl=    2527 DoSepK=F KAlg= 0 I1Cent=           0 FoldK=F
 IRaf=         0 NMat=       1 IRICut=       1 DoRegI=T DoRafI=F ISym2E= 1 IDoP0=0 IntGTp=1.
 FoFCou: FMM=F IPFlag=           0 FMFlag=      100000 FMFlg1=         800
         NFxFlg=           0 DoJE=F BraDBF=F KetDBF=F FulRan=T
         wScrn=  0.000000 ICntrl=      2527 IOpCl=  0 I1Cent=           0 NGrid=           0
         NMat0=    1 NMatS0=      1 NMatT0=    0 NMatD0=    1 NMtDS0=    0 NMtDT0=    0
 Petite list used in FoFCou.
 Leave Link  703 at Wed Oct  7 13:05:20 2020, MaxMem=  2684354560 cpu:               6.3 elap:               0.9
 (Enter /udrive/faculty/rpeverati/g16/g16/l716.exe)
 Dipole        = 4.26340583D-17-6.24618201D-32 0.00000000D+00
 ***** Axes restored to original set *****
 -------------------------------------------------------------------
 Center     Atomic                   Forces (Hartrees/Bohr)
 Number     Number              X              Y              Z
 -------------------------------------------------------------------
      1        1          -0.000000000   -0.000000000    0.006681704
      2       17           0.000000000    0.000000000   -0.000000000
      3        1          -0.000000000   -0.000000000   -0.006681704
 -------------------------------------------------------------------
 Cartesian Forces:  Max     0.006681704 RMS     0.003149785
 Leave Link  716 at Wed Oct  7 13:05:21 2020, MaxMem=  2684354560 cpu:               1.6 elap:               0.5
 (Enter /udrive/faculty/rpeverati/g16/g16/l103.exe)

 GradGradGradGradGradGradGradGradGradGradGradGradGradGradGradGradGradGrad
 Berny optimization.
 Optmz: redundant internal coordinate code flag= 1
 FormGI is forming the generalized inverse of G from B-inverse, IUseBI=4.
 Internal  Forces:  Max     0.006681704 RMS     0.004724678
 Search for a saddle point.
 Step number   1 out of a maximum of   50
 All quantities printed in internal units (Hartrees-Bohrs-Radians)
 Swapping is turned off.
 Second derivative matrix not updated -- first step.
 The second derivative matrix:
                          R1        R2        A1        A2
           R1           0.17502
           R2           0.00000   0.17502
           A1           0.00000   0.00000   0.00230
           A2           0.00000   0.00000   0.00000   0.00230
 ITU=  0
 Eigenvectors of the second derivative matrix:
                           1         2         3         4
     Eigenvalues --     0.00230   0.00230   0.17502   0.17502
   1         R1        -0.00000   0.00000  -1.00000   0.00000
   2         R2         0.00000   0.00000  -0.00000   1.00000
   3         A1        -1.00000   0.00000   0.00000   0.00000
   4         A2        -0.00000   1.00000   0.00000  -0.00000
 Eigenvalue     1 is   2.30D-03 should be less than     0.000000 Eigenvector:
                          A1        R1        R2        A2
   1                   -1.00000  -0.00000   0.00000  -0.00000
 RLam0= 2.30D-03.
 Iter=   1 RLamda= 0.00000000D+00 Sum=-5.10167250D-04.
 Iter=   2 RLamda=-5.10167250D-04 Sum=-5.08684495D-04.
 Iter=   3 RLamda=-5.08684495D-04 Sum=-5.08688792D-04.
 RFO step:  Lambda0=2.300010000D-03 Lambda=-5.08684495D-04.
 Linear search not attempted -- option 19 set.
 Iteration  1 RMS(Cart)=  0.04066896 RMS(Int)=  0.00075069
 Iteration  2 RMS(Cart)=  0.00082885 RMS(Int)=  0.00000033
 Iteration  3 RMS(Cart)=  0.00000033 RMS(Int)=  0.00000000
 ITry= 1 IFail=0 DXMaxC= 5.11D-02 DCOld= 1.00D+10 DXMaxT= 1.00D-01 DXLimC= 3.00D+00 Rises=F
 ClnCor:  largest displacement from symmetrization is 5.11D-02 for atom     2.
 Variable       Old X    -DE/DX   Delta X   Delta X   Delta X     New X
                                 (Linear)    (Quad)   (Total)
    R1        2.80776   0.00668   0.00000   0.03807   0.03703   2.84479
    R2        2.80776   0.00668   0.00000   0.03807   0.03703   2.84479
    A1        3.14159   0.00000   0.00000   0.05383   0.00000   3.14159
    A2        3.14159  -0.00000   0.00000  -0.00000   0.00000   3.14159
         Item               Value     Threshold  Converged?
 Maximum Force            0.006682     0.000450     NO 
 RMS     Force            0.004725     0.000300     NO 
 Maximum Displacement     0.037035     0.001800     NO 
 RMS     Displacement     0.026188     0.001200     NO 
 Predicted change in Energy=-2.548556D-04
 Lowest energy point so far.  Saving SCF results.
 Largest change from initial coordinates is atom    1       0.020 Angstoms.
 GradGradGradGradGradGradGradGradGradGradGradGradGradGradGradGradGradGrad

 Leave Link  103 at Wed Oct  7 13:05:21 2020, MaxMem=  2684354560 cpu:               1.8 elap:               0.5
 (Enter /udrive/faculty/rpeverati/g16/g16/l202.exe)
                          Input orientation:                          
 ---------------------------------------------------------------------
 Center     Atomic      Atomic             Coordinates (Angstroms)
 Number     Number       Type             X           Y           Z
 ---------------------------------------------------------------------
      1          1           0        0.000000    0.000000    1.505401
      2         17           0       -0.000000    0.000000   -0.000000
      3          1           0        0.000000    0.000000   -1.505401
 ---------------------------------------------------------------------
                    Distance matrix (angstroms):
                    1          2          3
     1  H    0.000000
     2  Cl   1.505401   0.000000
     3  H    3.010801   1.505401   0.000000
 Stoichiometry    ClH2(2)
 Framework group  D*H[O(Cl),C*(H.H)]
 Deg. of freedom     1
 Full point group                 D*H     NOp   8
 RotChk:  IX=0 Diff= 0.00D+00
 Largest Abelian subgroup         D2H     NOp   8
 Largest concise Abelian subgroup C2      NOp   2
                         Standard orientation:                         
 ---------------------------------------------------------------------
 Center     Atomic      Atomic             Coordinates (Angstroms)
 Number     Number       Type             X           Y           Z
 ---------------------------------------------------------------------
      1          1           0        0.000000    0.000000    1.505401
      2         17           0        0.000000    0.000000    0.000000
      3          1           0        0.000000    0.000000   -1.505401
 ---------------------------------------------------------------------
 Rotational constants (GHZ):           0.0000000         110.6363542         110.6363542
 Leave Link  202 at Wed Oct  7 13:05:22 2020, MaxMem=  2684354560 cpu:               1.4 elap:               0.4
 (Enter /udrive/faculty/rpeverati/g16/g16/l301.exe)
 Standard basis: 6-31G(d) (5D, 7F)
 Ernie: Thresh=  0.10000D-02 Tol=  0.10000D-05 Strict=F.
 There are     9 symmetry adapted cartesian basis functions of AG  symmetry.
 There are     1 symmetry adapted cartesian basis functions of B1G symmetry.
 There are     1 symmetry adapted cartesian basis functions of B2G symmetry.
 There are     1 symmetry adapted cartesian basis functions of B3G symmetry.
 There are     0 symmetry adapted cartesian basis functions of AU  symmetry.
 There are     5 symmetry adapted cartesian basis functions of B1U symmetry.
 There are     3 symmetry adapted cartesian basis functions of B2U symmetry.
 There are     3 symmetry adapted cartesian basis functions of B3U symmetry.
 There are     8 symmetry adapted basis functions of AG  symmetry.
 There are     1 symmetry adapted basis functions of B1G symmetry.
 There are     1 symmetry adapted basis functions of B2G symmetry.
 There are     1 symmetry adapted basis functions of B3G symmetry.
 There are     0 symmetry adapted basis functions of AU  symmetry.
 There are     5 symmetry adapted basis functions of B1U symmetry.
 There are     3 symmetry adapted basis functions of B2U symmetry.
 There are     3 symmetry adapted basis functions of B3U symmetry.
    22 basis functions,    60 primitive gaussians,    23 cartesian basis functions
    10 alpha electrons        9 beta electrons
       nuclear repulsion energy        12.1274118222 Hartrees.
 IExCor= 2523 DFT=T Ex=TPSS Corr=TPSS ExCW=0 ScaHFX=  0.000000
 ScaDFX=  1.000000  1.000000  1.000000  1.000000 ScalE2=  1.000000  1.000000
 IRadAn=      5 IRanWt=     -1 IRanGd=            0 ICorTp=0 IEmpDi=141
 NAtoms=    3 NActive=    3 NUniq=    2 SFac= 2.25D+00 NAtFMM=   60 NAOKFM=F Big=F
 Integral buffers will be    131072 words long.
 Raffenetti 2 integral format.
 Two-electron integral symmetry is turned on.
 R6Disp:  Grimme-D3(BJ) Dispersion energy=       -0.0008538797 Hartrees.
 Nuclear repulsion after empirical dispersion term =       12.1265579425 Hartrees.
 Leave Link  301 at Wed Oct  7 13:05:23 2020, MaxMem=  2684354560 cpu:               2.2 elap:               0.6
 (Enter /udrive/faculty/rpeverati/g16/g16/l302.exe)
 NPDir=0 NMtPBC=     1 NCelOv=     1 NCel=       1 NClECP=     1 NCelD=      1
         NCelK=      1 NCelE2=     1 NClLst=     1 CellRange=     0.0.
 One-electron integrals computed using PRISM.
 One-electron integral symmetry used in STVInt
 NBasis=    22 RedAO= T EigKep=  5.80D-02  NBF=     8     1     1     1     0     5     3     3
 NBsUse=    22 1.00D-06 EigRej= -1.00D+00 NBFU=     8     1     1     1     0     5     3     3
 Precomputing XC quadrature grid using
 IXCGrd= 4 IRadAn=           5 IRanWt=          -1 IRanGd=           0 AccXCQ= 0.00D+00.
 Generated NRdTot=       0 NPtTot=           0 NUsed=           0 NTot=          32
 NSgBfM=    23    23    23    23    23 MxSgAt=     3 MxSgA2=     3.
 Leave Link  302 at Wed Oct  7 13:05:24 2020, MaxMem=  2684354560 cpu:               3.8 elap:               0.7
 (Enter /udrive/faculty/rpeverati/g16/g16/l303.exe)
 DipDrv:  MaxL=1.
 Leave Link  303 at Wed Oct  7 13:05:24 2020, MaxMem=  2684354560 cpu:               1.3 elap:               0.5
 (Enter /udrive/faculty/rpeverati/g16/g16/l401.exe)
 Initial guess from the checkpoint file:  "MN_45_hclhts_BH76_TPSSDBJ_631Gs.chk"
 SCF N**3 symmetry information disabled.
 B after Tr=     0.000000    0.000000    0.000000
         Rot=    1.000000    0.000000    0.000000    0.000000 Ang=   0.00 deg.
 Guess basis will be translated and rotated to current coordinates.
 JPrj=2 DoOrth=T DoCkMO=T.
 Initial guess orbital symmetries:
 Alpha Orbitals:
       Occupied  (SGG) (SGG) (SGU) (PIU) (PIU) (SGG) (SGU) (PIU)
                 (PIU) (SGG)
       Virtual   (SGU) (SGG) (PIU) (PIU) (SGU) (SGG) (SGU) (PIG)
                 (PIG) (DLTG) (DLTG) (SGG)
 Beta  Orbitals:
       Occupied  (SGG) (SGG) (SGU) (PIU) (PIU) (SGG) (SGU) (PIU)
                 (PIU)
       Virtual   (SGG) (SGU) (SGG) (PIU) (PIU) (SGU) (SGG) (PIG)
                 (PIG) (SGU) (DLTG) (DLTG) (SGG)
 The electronic state of the initial guess is 2-SGG.
 Initial guess <Sx>= 0.0000 <Sy>= 0.0000 <Sz>= 0.5000 <S**2>= 0.7668 S= 0.5084
 Generating alternative initial guess.
 ExpMin= 1.43D-01 ExpMax= 2.52D+04 ExpMxC= 3.78D+03 IAcc=2 IRadAn=         4 AccDes= 0.00D+00
 Harris functional with IExCor= 1009 and IRadAn=       4 diagonalized for initial guess.
 HarFok:  IExCor= 1009 AccDes= 0.00D+00 IRadAn=         4 IDoV= 1 UseB2=F ITyADJ=14
 ICtDFT=  3500011 ScaDFX=  1.000000  1.000000  1.000000  1.000000
 FoFCou: FMM=F IPFlag=           0 FMFlag=      100000 FMFlg1=           0
         NFxFlg=           0 DoJE=T BraDBF=F KetDBF=T FulRan=T
         wScrn=  0.000000 ICntrl=       500 IOpCl=  0 I1Cent=   200000004 NGrid=           0
         NMat0=    1 NMatS0=      1 NMatT0=    0 NMatD0=    1 NMtDS0=    0 NMtDT0=    0
 Petite list used in FoFCou.
 Harris En= -460.971378540004    
 Leave Link  401 at Wed Oct  7 13:05:26 2020, MaxMem=  2684354560 cpu:               6.2 elap:               0.9
 (Enter /udrive/faculty/rpeverati/g16/g16/l502.exe)
 Keep J ints in memory in symmetry-blocked form, NReq=10387291.
 FoFCou: FMM=F IPFlag=           0 FMFlag=           0 FMFlg1=           0
         NFxFlg=           0 DoJE=F BraDBF=F KetDBF=F FulRan=T
         wScrn=  0.000000 ICntrl=       600 IOpCl=  0 I1Cent=           0 NGrid=           0
         NMat0=    1 NMatS0=    253 NMatT0=    0 NMatD0=    1 NMtDS0=    0 NMtDT0=    0
 Petite list used in FoFCou.
 UHF open shell SCF:
 Using DIIS extrapolation, IDIIS=  1040.
 NGot=  2684354560 LenX=  2684344661 LenY=  2684343691
 Requested convergence on RMS density matrix=1.00D-08 within 120 cycles.
 Requested convergence on MAX density matrix=1.00D-06.
 Requested convergence on             energy=1.00D-06.
 No special actions if energy rises.
 Integral accuracy reduced to 1.0D-05 until final iterations.

 Cycle   1  Pass 0  IDiag  1:
 E= -461.279365675059    
 DIIS: error= 2.15D-03 at cycle   1 NSaved=   1.
 NSaved= 1 IEnMin= 1 EnMin= -461.279365675059     IErMin= 1 ErrMin= 2.15D-03
 ErrMax= 2.15D-03  0.00D+00 EMaxC= 1.00D-01 BMatC= 2.04D-04 BMatP= 2.04D-04
 IDIUse=3 WtCom= 9.78D-01 WtEn= 2.15D-02
 Coeff-Com:  0.100D+01
 Coeff-En:   0.100D+01
 Coeff:      0.100D+01
 Gap=     0.229 Goal=   None    Shift=    0.000
 Gap=     0.169 Goal=   None    Shift=    0.000
 GapD=    0.169 DampG=1.000 DampE=1.000 DampFc=1.0000 IDamp=-1.
 RMSDP=9.86D-04 MaxDP=1.20D-02              OVMax= 6.24D-03

 Cycle   2  Pass 0  IDiag  1:
 E= -461.279456225837     Delta-E=       -0.000090550777 Rises=F Damp=F
 DIIS: error= 4.27D-04 at cycle   2 NSaved=   2.
 NSaved= 2 IEnMin= 2 EnMin= -461.279456225837     IErMin= 2 ErrMin= 4.27D-04
 ErrMax= 4.27D-04  0.00D+00 EMaxC= 1.00D-01 BMatC= 1.23D-05 BMatP= 2.04D-04
 IDIUse=3 WtCom= 9.96D-01 WtEn= 4.27D-03
 Coeff-Com:  0.925D-01 0.908D+00
 Coeff-En:   0.000D+00 0.100D+01
 Coeff:      0.921D-01 0.908D+00
 Gap=     0.228 Goal=   None    Shift=    0.000
 Gap=     0.170 Goal=   None    Shift=    0.000
 RMSDP=2.44D-04 MaxDP=2.27D-03 DE=-9.06D-05 OVMax= 1.56D-03

 Cycle   3  Pass 0  IDiag  1:
 E= -461.279457550107     Delta-E=       -0.000001324270 Rises=F Damp=F
 DIIS: error= 3.69D-04 at cycle   3 NSaved=   3.
 NSaved= 3 IEnMin= 3 EnMin= -461.279457550107     IErMin= 3 ErrMin= 3.69D-04
 ErrMax= 3.69D-04  0.00D+00 EMaxC= 1.00D-01 BMatC= 9.15D-06 BMatP= 1.23D-05
 IDIUse=3 WtCom= 9.96D-01 WtEn= 3.69D-03
 Coeff-Com: -0.282D-02 0.461D+00 0.542D+00
 Coeff-En:   0.000D+00 0.398D+00 0.602D+00
 Coeff:     -0.281D-02 0.461D+00 0.542D+00
 Gap=     0.228 Goal=   None    Shift=    0.000
 Gap=     0.170 Goal=   None    Shift=    0.000
 RMSDP=1.00D-04 MaxDP=8.42D-04 DE=-1.32D-06 OVMax= 8.15D-04

 Cycle   4  Pass 0  IDiag  1:
 E= -461.279460400706     Delta-E=       -0.000002850599 Rises=F Damp=F
 DIIS: error= 4.01D-05 at cycle   4 NSaved=   4.
 NSaved= 4 IEnMin= 4 EnMin= -461.279460400706     IErMin= 4 ErrMin= 4.01D-05
 ErrMax= 4.01D-05  0.00D+00 EMaxC= 1.00D-01 BMatC= 2.80D-08 BMatP= 9.15D-06
 IDIUse=1 WtCom= 1.00D+00 WtEn= 0.00D+00
 Coeff-Com: -0.432D-02-0.127D-01 0.211D-01 0.996D+00
 Coeff:     -0.432D-02-0.127D-01 0.211D-01 0.996D+00
 Gap=     0.228 Goal=   None    Shift=    0.000
 Gap=     0.170 Goal=   None    Shift=    0.000
 RMSDP=6.59D-06 MaxDP=1.03D-04 DE=-2.85D-06 OVMax= 1.06D-04

 Initial convergence to 1.0D-05 achieved.  Increase integral accuracy.
 Cycle   5  Pass 1  IDiag  1:
 E= -461.279458098782     Delta-E=        0.000002301924 Rises=F Damp=F
 DIIS: error= 5.51D-06 at cycle   1 NSaved=   1.
 NSaved= 1 IEnMin= 1 EnMin= -461.279458098782     IErMin= 1 ErrMin= 5.51D-06
 ErrMax= 5.51D-06  0.00D+00 EMaxC= 1.00D-01 BMatC= 1.25D-09 BMatP= 1.25D-09
 IDIUse=1 WtCom= 1.00D+00 WtEn= 0.00D+00
 Coeff-Com:  0.100D+01
 Coeff:      0.100D+01
 Gap=     0.228 Goal=   None    Shift=    0.000
 Gap=     0.170 Goal=   None    Shift=    0.000
 RMSDP=6.59D-06 MaxDP=1.03D-04 DE= 2.30D-06 OVMax= 1.70D-05

 Cycle   6  Pass 1  IDiag  1:
 E= -461.279458099501     Delta-E=       -0.000000000720 Rises=F Damp=F
 DIIS: error= 1.86D-06 at cycle   2 NSaved=   2.
 NSaved= 2 IEnMin= 2 EnMin= -461.279458099501     IErMin= 2 ErrMin= 1.86D-06
 ErrMax= 1.86D-06  0.00D+00 EMaxC= 1.00D-01 BMatC= 7.32D-11 BMatP= 1.25D-09
 IDIUse=1 WtCom= 1.00D+00 WtEn= 0.00D+00
 Coeff-Com: -0.145D+00 0.115D+01
 Coeff:     -0.145D+00 0.115D+01
 Gap=     0.228 Goal=   None    Shift=    0.000
 Gap=     0.170 Goal=   None    Shift=    0.000
 RMSDP=4.08D-07 MaxDP=6.08D-06 DE=-7.20D-10 OVMax= 6.11D-06

 Cycle   7  Pass 1  IDiag  1:
 E= -461.279458099552     Delta-E=       -0.000000000051 Rises=F Damp=F
 DIIS: error= 3.94D-07 at cycle   3 NSaved=   3.
 NSaved= 3 IEnMin= 3 EnMin= -461.279458099552     IErMin= 3 ErrMin= 3.94D-07
 ErrMax= 3.94D-07  0.00D+00 EMaxC= 1.00D-01 BMatC= 3.34D-12 BMatP= 7.32D-11
 IDIUse=1 WtCom= 1.00D+00 WtEn= 0.00D+00
 Coeff-Com: -0.497D-01 0.278D-01 0.102D+01
 Coeff:     -0.497D-01 0.278D-01 0.102D+01
 Gap=     0.228 Goal=   None    Shift=    0.000
 Gap=     0.170 Goal=   None    Shift=    0.000
 RMSDP=1.02D-07 MaxDP=1.49D-06 DE=-5.07D-11 OVMax= 1.55D-06

 Cycle   8  Pass 1  IDiag  1:
 E= -461.279458099555     Delta-E=       -0.000000000003 Rises=F Damp=F
 DIIS: error= 1.10D-07 at cycle   4 NSaved=   4.
 NSaved= 4 IEnMin= 4 EnMin= -461.279458099555     IErMin= 4 ErrMin= 1.10D-07
 ErrMax= 1.10D-07  0.00D+00 EMaxC= 1.00D-01 BMatC= 8.43D-13 BMatP= 3.34D-12
 IDIUse=1 WtCom= 1.00D+00 WtEn= 0.00D+00
 Coeff-Com: -0.226D-01-0.312D-02 0.514D+00 0.512D+00
 Coeff:     -0.226D-01-0.312D-02 0.514D+00 0.512D+00
 Gap=     0.228 Goal=   None    Shift=    0.000
 Gap=     0.170 Goal=   None    Shift=    0.000
 RMSDP=3.18D-08 MaxDP=2.89D-07 DE=-2.61D-12 OVMax= 2.35D-07

 Cycle   9  Pass 1  IDiag  1:
 E= -461.279458099554     Delta-E=        0.000000000000 Rises=F Damp=F
 DIIS: error= 7.60D-09 at cycle   5 NSaved=   5.
 NSaved= 5 IEnMin= 4 EnMin= -461.279458099555     IErMin= 5 ErrMin= 7.60D-09
 ErrMax= 7.60D-09  0.00D+00 EMaxC= 1.00D-01 BMatC= 4.00D-15 BMatP= 8.43D-13
 IDIUse=1 WtCom= 1.00D+00 WtEn= 0.00D+00
 Coeff-Com: -0.267D-03-0.335D-02 0.991D-02 0.581D-01 0.936D+00
 Coeff:     -0.267D-03-0.335D-02 0.991D-02 0.581D-01 0.936D+00
 Gap=     0.228 Goal=   None    Shift=    0.000
 Gap=     0.170 Goal=   None    Shift=    0.000
 RMSDP=3.11D-09 MaxDP=3.57D-08 DE= 3.41D-13 OVMax= 2.02D-08

 SCF Done:  E(UTPSS-TPSS) =  -461.279458100     A.U. after    9 cycles
            NFock=  9  Conv=0.31D-08     -V/T= 2.0018
 <Sx>= 0.0000 <Sy>= 0.0000 <Sz>= 0.5000 <S**2>= 0.7675 S= 0.5087
 <L.S>= 0.000000000000E+00
 KE= 4.604700901465D+02 PE=-1.120864756834D+03 EE= 1.869886506456D+02
 Annihilation of the first spin contaminant:
 S**2 before annihilation     0.7675,   after     0.7500
 Leave Link  502 at Wed Oct  7 13:05:27 2020, MaxMem=  2684354560 cpu:              11.1 elap:               1.3
 (Enter /udrive/faculty/rpeverati/g16/g16/l508.exe)
 QCSCF skips out because SCF is already converged.
 Leave Link  508 at Wed Oct  7 13:05:28 2020, MaxMem=  2684354560 cpu:               0.3 elap:               0.3
 (Enter /udrive/faculty/rpeverati/g16/g16/l701.exe)
 ... and contract with generalized density number  0.
 Compute integral first derivatives.
 R6Disp: Adding Grimme-D3(BJ) dispersion energy 1st derivatives to the gradient.
 Leave Link  701 at Wed Oct  7 13:05:29 2020, MaxMem=  2684354560 cpu:               4.1 elap:               0.6
 (Enter /udrive/faculty/rpeverati/g16/g16/l702.exe)
 L702 exits ... SP integral derivatives will be done elsewhere.
 Leave Link  702 at Wed Oct  7 13:05:29 2020, MaxMem=  2684354560 cpu:               1.5 elap:               0.5
 (Enter /udrive/faculty/rpeverati/g16/g16/l703.exe)
 Integral derivatives from FoFJK, PRISM(SPDF).
 Compute integral first derivatives, UseDBF=F ICtDFT=           0.
 Calling FoFJK, ICntrl=      2527 FMM=F ISym2X=1 I1Cent= 0 IOpClX= 0 NMat=1 NMatS=1 NMatT=0.
 FoFJK:  IHMeth= 1 ICntrl=    2527 DoSepK=F KAlg= 0 I1Cent=           0 FoldK=F
 IRaf=         0 NMat=       1 IRICut=       1 DoRegI=T DoRafI=F ISym2E= 1 IDoP0=0 IntGTp=1.
 FoFCou: FMM=F IPFlag=           0 FMFlag=      100000 FMFlg1=         800
         NFxFlg=           0 DoJE=F BraDBF=F KetDBF=F FulRan=T
         wScrn=  0.000000 ICntrl=      2527 IOpCl=  0 I1Cent=           0 NGrid=           0
         NMat0=    1 NMatS0=      1 NMatT0=    0 NMatD0=    1 NMtDS0=    0 NMtDT0=    0
 Petite list used in FoFCou.
 Leave Link  703 at Wed Oct  7 13:05:30 2020, MaxMem=  2684354560 cpu:               5.7 elap:               0.8
 (Enter /udrive/faculty/rpeverati/g16/g16/l716.exe)
 Dipole        = 4.33754005D-17-3.82899678D-32 0.00000000D+00
 ***** Axes restored to original set *****
 -------------------------------------------------------------------
 Center     Atomic                   Forces (Hartrees/Bohr)
 Number     Number              X              Y              Z
 -------------------------------------------------------------------
      1        1          -0.000000000   -0.000000000    0.001959589
      2       17           0.000000000    0.000000000    0.000000000
      3        1          -0.000000000   -0.000000000   -0.001959589
 -------------------------------------------------------------------
 Cartesian Forces:  Max     0.001959589 RMS     0.000923759
 Leave Link  716 at Wed Oct  7 13:05:31 2020, MaxMem=  2684354560 cpu:               2.1 elap:               0.6
 (Enter /udrive/faculty/rpeverati/g16/g16/l103.exe)

 GradGradGradGradGradGradGradGradGradGradGradGradGradGradGradGradGradGrad
 Berny optimization.
 Optmz: redundant internal coordinate code flag= 1
 Red2BG:  D1=  7.41D-01 OD1=  3.33D-16 B2RMS=  0.00D+00 IAprox=1
 Red2BG is reusing G-inverse.
 Internal  Forces:  Max     0.001959589 RMS     0.001385638
 Search for a saddle point.
 Step number   2 out of a maximum of   50
 All quantities printed in internal units (Hartrees-Bohrs-Radians)
 Swapping is turned off.
 Update second derivatives using D2CorX and points    1    2
 The second derivative matrix:
                          R1        R2        A1        A2
           R1           0.15126
           R2          -0.02376   0.15126
           A1           0.00000   0.00000   0.00230
           A2           0.00000   0.00000  -0.00000   0.00230
 ITU=  0  0
 Eigenvectors of the second derivative matrix:
                           1         2         3         4
     Eigenvalues --     0.00230   0.00230   0.12750   0.17502
   1         R1        -0.00000   0.00000   0.70711  -0.70711
   2         R2        -0.00000   0.00000   0.70711   0.70711
   3         A1         0.00000  -1.00000   0.00000  -0.00000
   4         A2         1.00000   0.00000   0.00000  -0.00000
 Eigenvalue     1 is   2.30D-03 should be less than     0.000000 Eigenvector:
                          A2        A1        R2        R1
   1                    1.00000   0.00000  -0.00000  -0.00000
 RLam0= 2.30D-03.
 Iter=   1 RLamda= 0.00000000D+00 Sum=-6.02330887D-05.
 Iter=   2 RLamda=-6.02330887D-05 Sum=-6.02046480D-05.
 Iter=   3 RLamda=-6.02046480D-05 Sum=-6.02046614D-05.
 RFO step:  Lambda0=2.300010000D-03 Lambda=-6.02046480D-05.
 Linear search not attempted -- option 19 set.
 Iteration  1 RMS(Cart)=  0.01660092 RMS(Int)=  0.00012432
 Iteration  2 RMS(Cart)=  0.00013617 RMS(Int)=  0.00000001
 Iteration  3 RMS(Cart)=  0.00000001 RMS(Int)=  0.00000000
 ITry= 1 IFail=0 DXMaxC= 2.07D-02 DCOld= 1.00D+10 DXMaxT= 1.00D-01 DXLimC= 3.00D+00 Rises=F
 ClnCor:  largest displacement from symmetrization is 2.07D-02 for atom     2.
 Variable       Old X    -DE/DX   Delta X   Delta X   Delta X     New X
                                 (Linear)    (Quad)   (Total)
    R1        2.84479   0.00196   0.00000   0.01536   0.01519   2.85999
    R2        2.84479   0.00196   0.00000   0.01536   0.01519   2.85999
    A1        3.14159   0.00000   0.00000   0.00000   0.00000   3.14159
    A2        3.14159  -0.00000   0.00000  -0.02172   0.00000   3.14159
         Item               Value     Threshold  Converged?
 Maximum Force            0.001960     0.000450     NO 
 RMS     Force            0.001386     0.000300     NO 
 Maximum Displacement     0.015193     0.001800     NO 
 RMS     Displacement     0.010743     0.001200     NO 
 Predicted change in Energy=-3.011260D-05
 Lowest energy point so far.  Saving SCF results.
 Largest change from initial coordinates is atom    1       0.028 Angstoms.
 GradGradGradGradGradGradGradGradGradGradGradGradGradGradGradGradGradGrad

 Leave Link  103 at Wed Oct  7 13:05:32 2020, MaxMem=  2684354560 cpu:               1.7 elap:               0.6
 (Enter /udrive/faculty/rpeverati/g16/g16/l202.exe)
                          Input orientation:                          
 ---------------------------------------------------------------------
 Center     Atomic      Atomic             Coordinates (Angstroms)
 Number     Number       Type             X           Y           Z
 ---------------------------------------------------------------------
      1          1           0        0.000000    0.000000    1.513440
      2         17           0        0.000000    0.000000   -0.000000
      3          1           0        0.000000    0.000000   -1.513440
 ---------------------------------------------------------------------
                    Distance matrix (angstroms):
                    1          2          3
     1  H    0.000000
     2  Cl   1.513440   0.000000
     3  H    3.026881   1.513440   0.000000
 Stoichiometry    ClH2(2)
 Framework group  D*H[O(Cl),C*(H.H)]
 Deg. of freedom     1
 Full point group                 D*H     NOp   8
 RotChk:  IX=0 Diff= 0.00D+00
 Largest Abelian subgroup         D2H     NOp   8
 Largest concise Abelian subgroup C2      NOp   2
                         Standard orientation:                         
 ---------------------------------------------------------------------
 Center     Atomic      Atomic             Coordinates (Angstroms)
 Number     Number       Type             X           Y           Z
 ---------------------------------------------------------------------
      1          1           0        0.000000    0.000000    1.513440
      2         17           0        0.000000    0.000000    0.000000
      3          1           0        0.000000    0.000000   -1.513440
 ---------------------------------------------------------------------
 Rotational constants (GHZ):           0.0000000         109.4640316         109.4640316
 Leave Link  202 at Wed Oct  7 13:05:33 2020, MaxMem=  2684354560 cpu:               1.9 elap:               0.6
 (Enter /udrive/faculty/rpeverati/g16/g16/l301.exe)
 Standard basis: 6-31G(d) (5D, 7F)
 Ernie: Thresh=  0.10000D-02 Tol=  0.10000D-05 Strict=F.
 There are     9 symmetry adapted cartesian basis functions of AG  symmetry.
 There are     1 symmetry adapted cartesian basis functions of B1G symmetry.
 There are     1 symmetry adapted cartesian basis functions of B2G symmetry.
 There are     1 symmetry adapted cartesian basis functions of B3G symmetry.
 There are     0 symmetry adapted cartesian basis functions of AU  symmetry.
 There are     5 symmetry adapted cartesian basis functions of B1U symmetry.
 There are     3 symmetry adapted cartesian basis functions of B2U symmetry.
 There are     3 symmetry adapted cartesian basis functions of B3U symmetry.
 There are     8 symmetry adapted basis functions of AG  symmetry.
 There are     1 symmetry adapted basis functions of B1G symmetry.
 There are     1 symmetry adapted basis functions of B2G symmetry.
 There are     1 symmetry adapted basis functions of B3G symmetry.
 There are     0 symmetry adapted basis functions of AU  symmetry.
 There are     5 symmetry adapted basis functions of B1U symmetry.
 There are     3 symmetry adapted basis functions of B2U symmetry.
 There are     3 symmetry adapted basis functions of B3U symmetry.
    22 basis functions,    60 primitive gaussians,    23 cartesian basis functions
    10 alpha electrons        9 beta electrons
       nuclear repulsion energy        12.0629885966 Hartrees.
 IExCor= 2523 DFT=T Ex=TPSS Corr=TPSS ExCW=0 ScaHFX=  0.000000
 ScaDFX=  1.000000  1.000000  1.000000  1.000000 ScalE2=  1.000000  1.000000
 IRadAn=      5 IRanWt=     -1 IRanGd=            0 ICorTp=0 IEmpDi=141
 NAtoms=    3 NActive=    3 NUniq=    2 SFac= 2.25D+00 NAtFMM=   60 NAOKFM=F Big=F
 Integral buffers will be    131072 words long.
 Raffenetti 2 integral format.
 Two-electron integral symmetry is turned on.
 R6Disp:  Grimme-D3(BJ) Dispersion energy=       -0.0008536398 Hartrees.
 Nuclear repulsion after empirical dispersion term =       12.0621349568 Hartrees.
 Leave Link  301 at Wed Oct  7 13:05:34 2020, MaxMem=  2684354560 cpu:               2.3 elap:               0.6
 (Enter /udrive/faculty/rpeverati/g16/g16/l302.exe)
 NPDir=0 NMtPBC=     1 NCelOv=     1 NCel=       1 NClECP=     1 NCelD=      1
         NCelK=      1 NCelE2=     1 NClLst=     1 CellRange=     0.0.
 One-electron integrals computed using PRISM.
 One-electron integral symmetry used in STVInt
 NBasis=    22 RedAO= T EigKep=  5.91D-02  NBF=     8     1     1     1     0     5     3     3
 NBsUse=    22 1.00D-06 EigRej= -1.00D+00 NBFU=     8     1     1     1     0     5     3     3
 Precomputing XC quadrature grid using
 IXCGrd= 4 IRadAn=           5 IRanWt=          -1 IRanGd=           0 AccXCQ= 0.00D+00.
 Generated NRdTot=       0 NPtTot=           0 NUsed=           0 NTot=          32
 NSgBfM=    23    23    23    23    23 MxSgAt=     3 MxSgA2=     3.
 Leave Link  302 at Wed Oct  7 13:05:35 2020, MaxMem=  2684354560 cpu:               4.1 elap:               0.8
 (Enter /udrive/faculty/rpeverati/g16/g16/l303.exe)
 DipDrv:  MaxL=1.
 Leave Link  303 at Wed Oct  7 13:05:36 2020, MaxMem=  2684354560 cpu:               1.7 elap:               0.6
 (Enter /udrive/faculty/rpeverati/g16/g16/l401.exe)
 Initial guess from the checkpoint file:  "MN_45_hclhts_BH76_TPSSDBJ_631Gs.chk"
 SCF N**3 symmetry information disabled.
 B after Tr=     0.000000    0.000000    0.000000
         Rot=    1.000000    0.000000    0.000000    0.000000 Ang=   0.00 deg.
 Guess basis will be translated and rotated to current coordinates.
 JPrj=2 DoOrth=T DoCkMO=T.
 Initial guess orbital symmetries:
 Alpha Orbitals:
       Occupied  (SGG) (SGG) (SGU) (PIU) (PIU) (SGG) (SGU) (PIU)
                 (PIU) (SGG)
       Virtual   (SGU) (SGG) (PIU) (PIU) (SGU) (SGG) (SGU) (PIG)
                 (PIG) (DLTG) (DLTG) (SGG)
 Beta  Orbitals:
       Occupied  (SGG) (SGG) (SGU) (PIU) (PIU) (SGG) (SGU) (PIU)
                 (PIU)
       Virtual   (SGG) (SGU) (SGG) (PIU) (PIU) (SGU) (SGG) (PIG)
                 (PIG) (SGU) (DLTG) (DLTG) (SGG)
 The electronic state of the initial guess is 2-SGG.
 Initial guess <Sx>= 0.0000 <Sy>= 0.0000 <Sz>= 0.5000 <S**2>= 0.7677 S= 0.5088
 Leave Link  401 at Wed Oct  7 13:05:37 2020, MaxMem=  2684354560 cpu:               3.0 elap:               0.7
 (Enter /udrive/faculty/rpeverati/g16/g16/l502.exe)
 Keep J ints in memory in symmetry-blocked form, NReq=10387291.
 FoFCou: FMM=F IPFlag=           0 FMFlag=           0 FMFlg1=           0
         NFxFlg=           0 DoJE=F BraDBF=F KetDBF=F FulRan=T
         wScrn=  0.000000 ICntrl=       600 IOpCl=  0 I1Cent=           0 NGrid=           0
         NMat0=    1 NMatS0=    253 NMatT0=    0 NMatD0=    1 NMtDS0=    0 NMtDT0=    0
 Petite list used in FoFCou.
 UHF open shell SCF:
 Using DIIS extrapolation, IDIIS=  1040.
 NGot=  2684354560 LenX=  2684344661 LenY=  2684343691
 Requested convergence on RMS density matrix=1.00D-08 within 120 cycles.
 Requested convergence on MAX density matrix=1.00D-06.
 Requested convergence on             energy=1.00D-06.
 No special actions if energy rises.

 Cycle   1  Pass 1  IDiag  1:
 E= -461.279474683002    
 DIIS: error= 8.72D-04 at cycle   1 NSaved=   1.
 NSaved= 1 IEnMin= 1 EnMin= -461.279474683002     IErMin= 1 ErrMin= 8.72D-04
 ErrMax= 8.72D-04  0.00D+00 EMaxC= 1.00D-01 BMatC= 3.31D-05 BMatP= 3.31D-05
 IDIUse=3 WtCom= 9.91D-01 WtEn= 8.72D-03
 Coeff-Com:  0.100D+01
 Coeff-En:   0.100D+01
 Coeff:      0.100D+01
 Gap=     0.227 Goal=   None    Shift=    0.000
 Gap=     0.168 Goal=   None    Shift=    0.000
 RMSDP=3.90D-04 MaxDP=4.62D-03              OVMax= 2.50D-03

 Cycle   2  Pass 1  IDiag  1:
 E= -461.279489378506     Delta-E=       -0.000014695503 Rises=F Damp=F
 DIIS: error= 1.73D-04 at cycle   2 NSaved=   2.
 NSaved= 2 IEnMin= 2 EnMin= -461.279489378506     IErMin= 2 ErrMin= 1.73D-04
 ErrMax= 1.73D-04  0.00D+00 EMaxC= 1.00D-01 BMatC= 2.01D-06 BMatP= 3.31D-05
 IDIUse=3 WtCom= 9.98D-01 WtEn= 1.73D-03
 Coeff-Com:  0.925D-01 0.907D+00
 Coeff-En:   0.000D+00 0.100D+01
 Coeff:      0.924D-01 0.908D+00
 Gap=     0.227 Goal=   None    Shift=    0.000
 Gap=     0.169 Goal=   None    Shift=    0.000
 RMSDP=9.78D-05 MaxDP=8.94D-04 DE=-1.47D-05 OVMax= 6.43D-04

 Cycle   3  Pass 1  IDiag  1:
 E= -461.279489589349     Delta-E=       -0.000000210843 Rises=F Damp=F
 DIIS: error= 1.50D-04 at cycle   3 NSaved=   3.
 NSaved= 3 IEnMin= 3 EnMin= -461.279489589349     IErMin= 3 ErrMin= 1.50D-04
 ErrMax= 1.50D-04  0.00D+00 EMaxC= 1.00D-01 BMatC= 1.51D-06 BMatP= 2.01D-06
 IDIUse=3 WtCom= 9.99D-01 WtEn= 1.50D-03
 Coeff-Com: -0.305D-02 0.463D+00 0.540D+00
 Coeff-En:   0.000D+00 0.402D+00 0.598D+00
 Coeff:     -0.304D-02 0.463D+00 0.540D+00
 Gap=     0.227 Goal=   None    Shift=    0.000
 Gap=     0.168 Goal=   None    Shift=    0.000
 RMSDP=4.06D-05 MaxDP=3.43D-04 DE=-2.11D-07 OVMax= 3.36D-04

 Cycle   4  Pass 1  IDiag  1:
 E= -461.279490061604     Delta-E=       -0.000000472255 Rises=F Damp=F
 DIIS: error= 1.61D-05 at cycle   4 NSaved=   4.
 NSaved= 4 IEnMin= 4 EnMin= -461.279490061604     IErMin= 4 ErrMin= 1.61D-05
 ErrMax= 1.61D-05  0.00D+00 EMaxC= 1.00D-01 BMatC= 4.51D-09 BMatP= 1.51D-06
 IDIUse=1 WtCom= 1.00D+00 WtEn= 0.00D+00
 Coeff-Com: -0.429D-02-0.140D-01 0.190D-01 0.999D+00
 Coeff:     -0.429D-02-0.140D-01 0.190D-01 0.999D+00
 Gap=     0.227 Goal=   None    Shift=    0.000
 Gap=     0.168 Goal=   None    Shift=    0.000
 RMSDP=2.67D-06 MaxDP=4.20D-05 DE=-4.72D-07 OVMax= 4.36D-05

 Cycle   5  Pass 1  IDiag  1:
 E= -461.279490064161     Delta-E=       -0.000000002556 Rises=F Damp=F
 DIIS: error= 2.71D-06 at cycle   5 NSaved=   5.
 NSaved= 5 IEnMin= 5 EnMin= -461.279490064161     IErMin= 5 ErrMin= 2.71D-06
 ErrMax= 2.71D-06  0.00D+00 EMaxC= 1.00D-01 BMatC= 1.78D-10 BMatP= 4.51D-09
 IDIUse=1 WtCom= 1.00D+00 WtEn= 0.00D+00
 Coeff-Com:  0.616D-03-0.156D-01-0.264D-01-0.139D+00 0.118D+01
 Coeff:      0.616D-03-0.156D-01-0.264D-01-0.139D+00 0.118D+01
 Gap=     0.227 Goal=   None    Shift=    0.000
 Gap=     0.168 Goal=   None    Shift=    0.000
 RMSDP=7.68D-07 MaxDP=1.01D-05 DE=-2.56D-09 OVMax= 1.05D-05

 Cycle   6  Pass 1  IDiag  1:
 E= -461.279490064286     Delta-E=       -0.000000000126 Rises=F Damp=F
 DIIS: error= 2.46D-07 at cycle   6 NSaved=   6.
 NSaved= 6 IEnMin= 6 EnMin= -461.279490064286     IErMin= 6 ErrMin= 2.46D-07
 ErrMax= 2.46D-07  0.00D+00 EMaxC= 1.00D-01 BMatC= 2.40D-12 BMatP= 1.78D-10
 IDIUse=1 WtCom= 1.00D+00 WtEn= 0.00D+00
 Coeff-Com:  0.511D-04-0.597D-03-0.267D-03-0.158D-01 0.504D-01 0.966D+00
 Coeff:      0.511D-04-0.597D-03-0.267D-03-0.158D-01 0.504D-01 0.966D+00
 Gap=     0.227 Goal=   None    Shift=    0.000
 Gap=     0.168 Goal=   None    Shift=    0.000
 RMSDP=5.24D-08 MaxDP=8.19D-07 DE=-1.26D-10 OVMax= 6.98D-07

 Cycle   7  Pass 1  IDiag  1:
 E= -461.279490064287     Delta-E=       -0.000000000001 Rises=F Damp=F
 DIIS: error= 7.46D-09 at cycle   7 NSaved=   7.
 NSaved= 7 IEnMin= 7 EnMin= -461.279490064287     IErMin= 7 ErrMin= 7.46D-09
 ErrMax= 7.46D-09  0.00D+00 EMaxC= 1.00D-01 BMatC= 2.96D-15 BMatP= 2.40D-12
 IDIUse=1 WtCom= 1.00D+00 WtEn= 0.00D+00
 Coeff-Com: -0.658D-05 0.153D-03 0.164D-03 0.193D-02-0.103D-01-0.787D-01
 Coeff-Com:  0.109D+01
 Coeff:     -0.658D-05 0.153D-03 0.164D-03 0.193D-02-0.103D-01-0.787D-01
 Coeff:      0.109D+01
 Gap=     0.227 Goal=   None    Shift=    0.000
 Gap=     0.168 Goal=   None    Shift=    0.000
 RMSDP=3.36D-09 MaxDP=3.02D-08 DE=-1.02D-12 OVMax= 2.13D-08

 SCF Done:  E(UTPSS-TPSS) =  -461.279490064     A.U. after    7 cycles
            NFock=  7  Conv=0.34D-08     -V/T= 2.0018
 <Sx>= 0.0000 <Sy>= 0.0000 <Sz>= 0.5000 <S**2>= 0.7680 S= 0.5090
 <L.S>= 0.000000000000E+00
 KE= 4.604579705117D+02 PE=-1.120733260529D+03 EE= 1.869336649965D+02
 Annihilation of the first spin contaminant:
 S**2 before annihilation     0.7680,   after     0.7500
 Leave Link  502 at Wed Oct  7 13:05:38 2020, MaxMem=  2684354560 cpu:               9.7 elap:               1.2
 (Enter /udrive/faculty/rpeverati/g16/g16/l508.exe)
 QCSCF skips out because SCF is already converged.
 Leave Link  508 at Wed Oct  7 13:05:39 2020, MaxMem=  2684354560 cpu:               0.7 elap:               0.6
 (Enter /udrive/faculty/rpeverati/g16/g16/l701.exe)
 ... and contract with generalized density number  0.
 Compute integral first derivatives.
 R6Disp: Adding Grimme-D3(BJ) dispersion energy 1st derivatives to the gradient.
 Leave Link  701 at Wed Oct  7 13:05:40 2020, MaxMem=  2684354560 cpu:               3.5 elap:               0.7
 (Enter /udrive/faculty/rpeverati/g16/g16/l702.exe)
 L702 exits ... SP integral derivatives will be done elsewhere.
 Leave Link  702 at Wed Oct  7 13:05:41 2020, MaxMem=  2684354560 cpu:               1.1 elap:               0.4
 (Enter /udrive/faculty/rpeverati/g16/g16/l703.exe)
 Integral derivatives from FoFJK, PRISM(SPDF).
 Compute integral first derivatives, UseDBF=F ICtDFT=           0.
 Calling FoFJK, ICntrl=      2527 FMM=F ISym2X=1 I1Cent= 0 IOpClX= 0 NMat=1 NMatS=1 NMatT=0.
 FoFJK:  IHMeth= 1 ICntrl=    2527 DoSepK=F KAlg= 0 I1Cent=           0 FoldK=F
 IRaf=         0 NMat=       1 IRICut=       1 DoRegI=T DoRafI=F ISym2E= 1 IDoP0=0 IntGTp=1.
 FoFCou: FMM=F IPFlag=           0 FMFlag=      100000 FMFlg1=         800
         NFxFlg=           0 DoJE=F BraDBF=F KetDBF=F FulRan=T
         wScrn=  0.000000 ICntrl=      2527 IOpCl=  0 I1Cent=           0 NGrid=           0
         NMat0=    1 NMatS0=      1 NMatT0=    0 NMatD0=    1 NMtDS0=    0 NMtDT0=    0
 Petite list used in FoFCou.
 Leave Link  703 at Wed Oct  7 13:05:42 2020, MaxMem=  2684354560 cpu:               6.1 elap:               0.8
 (Enter /udrive/faculty/rpeverati/g16/g16/l716.exe)
 Dipole        = 4.36845013D-17-3.19505146D-32 0.00000000D+00
 ***** Axes restored to original set *****
 -------------------------------------------------------------------
 Center     Atomic                   Forces (Hartrees/Bohr)
 Number     Number              X              Y              Z
 -------------------------------------------------------------------
      1        1          -0.000000000   -0.000000000    0.000156912
      2       17           0.000000000    0.000000000   -0.000000000
      3        1          -0.000000000   -0.000000000   -0.000156912
 -------------------------------------------------------------------
 Cartesian Forces:  Max     0.000156912 RMS     0.000073969
 Leave Link  716 at Wed Oct  7 13:05:43 2020, MaxMem=  2684354560 cpu:               2.0 elap:               0.5
 (Enter /udrive/faculty/rpeverati/g16/g16/l103.exe)

 GradGradGradGradGradGradGradGradGradGradGradGradGradGradGradGradGradGrad
 Berny optimization.
 Optmz: redundant internal coordinate code flag= 1
 Red2BG:  D1=  7.34D-01 OD1=  3.33D-16 B2RMS=  0.00D+00 IAprox=1
 Red2BG is reusing G-inverse.
 Internal  Forces:  Max     0.000156912 RMS     0.000110953
 Search for a saddle point.
 Step number   3 out of a maximum of   50
 All quantities printed in internal units (Hartrees-Bohrs-Radians)
 Swapping is turned off.
 Update second derivatives using D2CorX and points    1    2    3
 The second derivative matrix:
                          R1        R2        A1        A2
           R1           0.14684
           R2          -0.02818   0.14684
           A1           0.00000   0.00000   0.00230
           A2           0.00000   0.00000  -0.00000   0.00230
 ITU=  0  0  0
 Eigenvectors of the second derivative matrix:
                           1         2         3         4
     Eigenvalues --     0.00230   0.00230   0.11865   0.17502
   1         R1        -0.00000  -0.00000   0.70711  -0.70711
   2         R2        -0.00000  -0.00000   0.70711   0.70711
   3         A1        -1.00000  -0.00034  -0.00000  -0.00000
   4         A2        -0.00034   1.00000   0.00000   0.00000
 Eigenvalue     1 is   2.30D-03 should be less than     0.000000 Eigenvector:
                          A1        A2        R1        R2
   1                   -1.00000  -0.00034  -0.00000  -0.00000
 RLam0= 2.30D-03.
 Iter=   1 RLamda= 0.00000000D+00 Sum=-4.15012541D-07.
 Iter=   2 RLamda=-4.15012541D-07 Sum=-4.15011089D-07.
 RFO step:  Lambda0=2.300010000D-03 Lambda=-4.15012541D-07.
 Linear search not attempted -- option 19 set.
 Iteration  1 RMS(Cart)=  0.00143718 RMS(Int)=  0.00000093
 Iteration  2 RMS(Cart)=  0.00000101 RMS(Int)=  0.00000000
 Iteration  3 RMS(Cart)=  0.00000000 RMS(Int)=  0.00000000
 ITry= 1 IFail=0 DXMaxC= 1.78D-03 DCOld= 1.00D+10 DXMaxT= 1.00D-01 DXLimC= 3.00D+00 Rises=F
 ClnCor:  largest displacement from symmetrization is 1.78D-03 for atom     2.
 Variable       Old X    -DE/DX   Delta X   Delta X   Delta X     New X
                                 (Linear)    (Quad)   (Total)
    R1        2.85999   0.00016   0.00000   0.00132   0.00132   2.86131
    R2        2.85999   0.00016   0.00000   0.00132   0.00132   2.86131
    A1        3.14159   0.00000   0.00000   0.00187   0.00000   3.14159
    A2        3.14159  -0.00000   0.00000   0.00000   0.00000   3.14159
         Item               Value     Threshold  Converged?
 Maximum Force            0.000157     0.000450     YES
 RMS     Force            0.000111     0.000300     YES
 Maximum Displacement     0.001321     0.001800     YES
 RMS     Displacement     0.000934     0.001200     YES
 Predicted change in Energy=-2.075061D-07
 Optimization completed.
    -- Stationary point found.
                           ----------------------------
                           !   Optimized Parameters   !
                           ! (Angstroms and Degrees)  !
 --------------------------                            --------------------------
 ! Name  Definition              Value          Derivative Info.                !
 --------------------------------------------------------------------------------
 ! R1    R(1,2)                  1.5134         -DE/DX =    0.0002              !
 ! R2    R(2,3)                  1.5134         -DE/DX =    0.0002              !
 ! A1    L(1,2,3,-1,-1)        180.0            -DE/DX =    0.0                 !
 ! A2    L(1,2,3,-2,-2)        180.0            -DE/DX =    0.0                 !
 --------------------------------------------------------------------------------
 Lowest energy point so far.  Saving SCF results.
 Largest change from initial coordinates is atom    1       0.028 Angstoms.
 GradGradGradGradGradGradGradGradGradGradGradGradGradGradGradGradGradGrad

 Leave Link  103 at Wed Oct  7 13:05:43 2020, MaxMem=  2684354560 cpu:               1.5 elap:               0.4
 (Enter /udrive/faculty/rpeverati/g16/g16/l202.exe)
                          Input orientation:                          
 ---------------------------------------------------------------------
 Center     Atomic      Atomic             Coordinates (Angstroms)
 Number     Number       Type             X           Y           Z
 ---------------------------------------------------------------------
      1          1           0        0.000000    0.000000    1.513440
      2         17           0        0.000000    0.000000    0.000000
      3          1           0        0.000000    0.000000   -1.513440
 ---------------------------------------------------------------------
                    Distance matrix (angstroms):
                    1          2          3
     1  H    0.000000
     2  Cl   1.513440   0.000000
     3  H    3.026881   1.513440   0.000000
 Stoichiometry    ClH2(2)
 Framework group  D*H[O(Cl),C*(H.H)]
 Deg. of freedom     1
 Full point group                 D*H     NOp   8
 RotChk:  IX=0 Diff= 0.00D+00
 Largest Abelian subgroup         D2H     NOp   8
 Largest concise Abelian subgroup C2      NOp   2
                         Standard orientation:                         
 ---------------------------------------------------------------------
 Center     Atomic      Atomic             Coordinates (Angstroms)
 Number     Number       Type             X           Y           Z
 ---------------------------------------------------------------------
      1          1           0        0.000000    0.000000    1.513440
      2         17           0        0.000000    0.000000    0.000000
      3          1           0        0.000000    0.000000   -1.513440
 ---------------------------------------------------------------------
 Rotational constants (GHZ):           0.0000000         109.4640316         109.4640316
 Leave Link  202 at Wed Oct  7 13:05:44 2020, MaxMem=  2684354560 cpu:               0.8 elap:               0.3
 (Enter /udrive/faculty/rpeverati/g16/g16/l601.exe)
 Copying SCF densities to generalized density rwf, IOpCl= 1 IROHF=0.

 **********************************************************************

            Population analysis using the SCF density.

 **********************************************************************

 Orbital symmetries:
 Alpha Orbitals:
       Occupied  (SGG) (SGG) (SGU) (PIU) (PIU) (SGG) (SGU) (PIU)
                 (PIU) (SGG)
       Virtual   (SGU) (SGG) (PIU) (PIU) (SGU) (SGG) (SGU) (PIG)
                 (PIG) (DLTG) (DLTG) (SGG)
 Beta  Orbitals:
       Occupied  (SGG) (SGG) (SGU) (PIU) (PIU) (SGG) (SGU) (PIU)
                 (PIU)
       Virtual   (SGG) (SGU) (SGG) (PIU) (PIU) (SGU) (SGG) (PIG)
                 (PIG) (SGU) (DLTG) (DLTG) (SGG)
 The electronic state is 2-SGG.
 Alpha  occ. eigenvalues -- -101.01046  -9.26226  -7.04488  -7.03144  -7.03144
 Alpha  occ. eigenvalues --   -0.78633  -0.49497  -0.30334  -0.30334  -0.23819
 Alpha virt. eigenvalues --   -0.01147   0.37741   0.41296   0.41296   0.59847
 Alpha virt. eigenvalues --    0.61929   0.69124   0.78083   0.78083   0.80937
 Alpha virt. eigenvalues --    0.80938   1.03284
  Beta  occ. eigenvalues -- -101.01036  -9.26180  -7.04638  -7.03057  -7.03057
  Beta  occ. eigenvalues --   -0.78130  -0.45606  -0.29766  -0.29766
  Beta virt. eigenvalues --   -0.12923   0.05301   0.37822   0.41792   0.41792
  Beta virt. eigenvalues --    0.60568   0.67156   0.77702   0.77702   0.80497
  Beta virt. eigenvalues --    0.81965   0.81966   1.09763
          Condensed to atoms (all electrons):
               1          2          3
     1  H    0.891494  -0.038308   0.022952
     2  Cl  -0.038308  17.324341  -0.038308
     3  H    0.022952  -0.038308   0.891494
          Atomic-Atomic Spin Densities.
               1          2          3
     1  H    0.755286  -0.217498   0.024780
     2  Cl  -0.217498   0.309858  -0.217498
     3  H    0.024780  -0.217498   0.755286
 Mulliken charges and spin densities:
               1          2
     1  H    0.123862   0.562569
     2  Cl  -0.247724  -0.125138
     3  H    0.123862   0.562569
 Sum of Mulliken charges =  -0.00000   1.00000
 Mulliken charges and spin densities with hydrogens summed into heavy atoms:
               1          2
     2  Cl  -0.000000   1.000000
 Electronic spatial extent (au):  <R**2>=             47.6534
 Charge=              0.0000 electrons
 Dipole moment (field-independent basis, Debye):
    X=              0.0000    Y=             -0.0000    Z=              0.0000  Tot=              0.0000
 Quadrupole moment (field-independent basis, Debye-Ang):
   XX=            -15.1686   YY=            -15.1686   ZZ=            -11.7548
   XY=             -0.0000   XZ=             -0.0000   YZ=              0.0000
 Traceless Quadrupole moment (field-independent basis, Debye-Ang):
   XX=             -1.1379   YY=             -1.1379   ZZ=              2.2759
   XY=             -0.0000   XZ=             -0.0000   YZ=              0.0000
 Octapole moment (field-independent basis, Debye-Ang**2):
  XXX=             -0.0000  YYY=             -0.0000  ZZZ=             -0.0000  XYY=             -0.0000
  XXY=             -0.0000  XXZ=             -0.0000  XZZ=             -0.0000  YZZ=              0.0000
  YYZ=              0.0000  XYZ=              0.0000
 Hexadecapole moment (field-independent basis, Debye-Ang**3):
 XXXX=            -16.7850 YYYY=            -16.7850 ZZZZ=            -38.7257 XXXY=             -0.0000
 XXXZ=              0.0000 YYYX=             -0.0000 YYYZ=              0.0000 ZZZX=              0.0000
 ZZZY=              0.0000 XXYY=             -5.5950 XXZZ=             -9.7208 YYZZ=             -9.7208
 XXYZ=              0.0000 YYXZ=              0.0000 ZZXY=             -0.0000
 N-N= 1.206213495681D+01 E-N=-1.120733260338D+03  KE= 4.604579705117D+02
                          Isotropic Fermi Contact Couplings
        Atom                 a.u.       MegaHertz       Gauss      10(-4) cm-1
     1  H(1)               0.20204     903.08815     322.24431     301.23778
     2  Cl(35)             1.28925     565.28802     201.70882     188.55979
     3  H(1)               0.20204     903.08815     322.24431     301.23778
 --------------------------------------------------------
       Center         ----  Spin Dipole Couplings  ----
                      3XX-RR        3YY-RR        3ZZ-RR
 --------------------------------------------------------
     1   Atom        0.006595      0.006595     -0.013191
     2   Atom        0.496413      0.496413     -0.992826
     3   Atom        0.006595      0.006595     -0.013191
 --------------------------------------------------------
                        XY            XZ            YZ
 --------------------------------------------------------
     1   Atom        0.000000     -0.000000      0.000000
     2   Atom        0.000000      0.000000      0.000000
     3   Atom        0.000000      0.000000      0.000000
 --------------------------------------------------------


 ---------------------------------------------------------------------------------
              Anisotropic Spin Dipole Couplings in Principal Axis System
 ---------------------------------------------------------------------------------

       Atom             a.u.   MegaHertz   Gauss  10(-4) cm-1        Axes

[...]
     2   Atom        0.000000      0.000000      0.000000
     3   Atom        0.000000      0.000000      0.000000
 --------------------------------------------------------


 ---------------------------------------------------------------------------------
              Anisotropic Spin Dipole Couplings in Principal Axis System
 ---------------------------------------------------------------------------------

       Atom             a.u.   MegaHertz   Gauss  10(-4) cm-1        Axes

              Baa    -0.0132    -7.038    -2.511    -2.348  0.0000  0.0000  1.0000
     1 H(1)   Bbb     0.0066     3.519     1.256     1.174  1.0000  0.0000  0.0000
              Bcc     0.0066     3.519     1.256     1.174  0.0000  1.0000  0.0000
 
              Baa    -0.9928   -51.962   -18.541   -17.333 -0.0000  0.0000  1.0000
     2 Cl(35) Bbb     0.4964    25.981     9.271     8.666  0.0006  1.0000  0.0000
              Bcc     0.4964    25.981     9.271     8.666  1.0000 -0.0006  0.0000
 
              Baa    -0.0132    -7.038    -2.511    -2.348 -0.0000  0.0000  1.0000
     3 H(1)   Bbb     0.0066     3.519     1.256     1.174  0.7349  0.6782  0.0000
              Bcc     0.0066     3.519     1.256     1.174 -0.6782  0.7349 -0.0000
 

 ---------------------------------------------------------------------------------

 No NMR shielding tensors so no spin-rotation constants.
 Leave Link  601 at Wed Oct  7 13:06:03 2020, MaxMem=  2684354560 cpu:               5.8 elap:               0.8
 (Enter /udrive/faculty/rpeverati/g16/g16/l701.exe)
 ... and contract with generalized density number  0.
 Compute integral second derivatives.
 R6Disp: Adding Grimme-D3(BJ) dispersion energy 2nd derivatives to the Hessian.
 Leave Link  701 at Wed Oct  7 13:06:04 2020, MaxMem=  2684354560 cpu:               4.0 elap:               0.8
 (Enter /udrive/faculty/rpeverati/g16/g16/l702.exe)
 L702 exits ... SP integral derivatives will be done elsewhere.
 Leave Link  702 at Wed Oct  7 13:06:05 2020, MaxMem=  2684354560 cpu:               1.5 elap:               0.5
 (Enter /udrive/faculty/rpeverati/g16/g16/l703.exe)
 Integral derivatives from FoFJK, PRISM(SPDF).
 Compute integral second derivatives, UseDBF=F ICtDFT=           0.
 Calling FoFJK, ICntrl=    100527 FMM=F ISym2X=1 I1Cent= 0 IOpClX= 0 NMat=1 NMatS=1 NMatT=0.
 FoFJK:  IHMeth= 1 ICntrl=  100527 DoSepK=F KAlg= 0 I1Cent=           0 FoldK=F
 IRaf=         0 NMat=       1 IRICut=       1 DoRegI=T DoRafI=F ISym2E= 1 IDoP0=0 IntGTp=1.
 FoFCou: FMM=F IPFlag=           0 FMFlag=      100000 FMFlg1=         800
         NFxFlg=           0 DoJE=F BraDBF=F KetDBF=F FulRan=T
         wScrn=  0.000000 ICntrl=    100527 IOpCl=  0 I1Cent=           0 NGrid=           0
         NMat0=    1 NMatS0=      1 NMatT0=    0 NMatD0=    1 NMtDS0=    0 NMtDT0=    0
 Petite list used in FoFCou.
 Leave Link  703 at Wed Oct  7 13:06:06 2020, MaxMem=  2684354560 cpu:              11.5 elap:               1.4
 (Enter /udrive/faculty/rpeverati/g16/g16/l716.exe)
 Dipole        = 4.36845013D-17 7.32847342D-32-2.22044605D-16
 Polarizability= 6.26004418D+00-4.01115991D-15 6.26004418D+00
                 9.19895658D-16-2.53940633D-15 3.79375854D+01
 Full mass-weighted force constant matrix:
 Low frequencies ----1272.1958   -0.0034   -0.0014   -0.0014   17.3080   17.3080
 Low frequencies ---  278.9419  278.9419 1745.4007
 ******    1 imaginary frequencies (negative Signs) ****** 
 Diagonal vibrational polarizability:
       14.2451979      14.2451979      15.7046929
 Harmonic frequencies (cm**-1), IR intensities (KM/Mole), Raman scattering
 activities (A**4/AMU), depolarization ratios for plane and unpolarized
 incident light, reduced masses (AMU), force constants (mDyne/A),
 and normal coordinates:
                      1                      2                      3
                     SGU                    PIU                    PIU
 Frequencies --  -1272.1958               278.9419               278.9419
 Red. masses --      1.0641                 1.0641                 1.0641
 Frc consts  --      1.0148                 0.0488                 0.0488
 IR Inten    --    944.5049                41.1873                41.1873
  Atom  AN      X      Y      Z        X      Y      Z        X      Y      Z
     1   1    -0.00  -0.00   0.71     0.71  -0.00   0.00     0.00   0.71   0.00
     2  17     0.00   0.00  -0.04    -0.04   0.00  -0.00    -0.00  -0.04  -0.00
     3   1    -0.00  -0.00   0.71     0.71  -0.00   0.00     0.00   0.71   0.00
                      4
                     SGG
 Frequencies --   1745.4007
 Red. masses --      1.0078
 Frc consts  --      1.8089
 IR Inten    --      0.0000
  Atom  AN      X      Y      Z
     1   1    -0.00   0.00   0.71
     2  17     0.00  -0.00  -0.00
     3   1    -0.00   0.00  -0.71

 -------------------
 - Thermochemistry -
 -------------------
 Temperature   298.150 Kelvin.  Pressure   1.00000 Atm.
 Atom     1 has atomic number  1 and mass   1.00783
 Atom     2 has atomic number 17 and mass  34.96885
 Atom     3 has atomic number  1 and mass   1.00783
 Molecular mass:    36.98450 amu.
 Principal axes and moments of inertia in atomic units:
                           1         2         3
     Eigenvalues --     0.00000  16.48707  16.48707
           X           -0.00000   1.00000   0.00000
           Y            0.00000   0.00000   1.00000
           Z            1.00000   0.00000   0.00000
 This molecule is a prolate symmetric top.
 Rotational symmetry number  2.
 Rotational temperature (Kelvin)      5.25345
 Rotational constant (GHZ):         109.464032
    1 imaginary frequencies ignored.
 Zero-point vibrational energy      13776.7 (Joules/Mol)
                                    3.29271 (Kcal/Mol)
 Warning -- explicit consideration of   2 degrees of freedom as
           vibrations may cause significant error
 Vibrational temperatures:    401.34   401.34  2511.24
          (Kelvin)
 
 Zero-point correction=                           0.005247 (Hartree/Particle)
 Thermal correction to Energy=                    0.008504
 Thermal correction to Enthalpy=                  0.009448
 Thermal correction to Gibbs Free Energy=        -0.014238
 Sum of electronic and zero-point Energies=           -461.274243
 Sum of electronic and thermal Energies=              -461.270986
 Sum of electronic and thermal Enthalpies=            -461.270042
 Sum of electronic and thermal Free Energies=         -461.293728
 
                     E (Thermal)             CV                S
                      KCal/Mol        Cal/Mol-Kelvin    Cal/Mol-Kelvin
 Total                    5.336              8.424             49.850
 Electronic               0.000              0.000              1.377
 Translational            0.889              2.981             36.753
 Rotational               0.592              1.987              8.636
 Vibrational              3.855              3.456              3.084
 Vibration     1          0.679              1.712              1.540
 Vibration     2          0.679              1.712              1.540
                       Q            Log10(Q)             Ln(Q)
 Total Bot       0.353862D+07          6.548834         15.079248
 Total V=0       0.917082D+09          8.962408         20.636707
 Vib (Bot)       0.705278D-02         -2.151640         -4.954334
 Vib (Bot)    1  0.689637D+00         -0.161379         -0.371590
 Vib (Bot)    2  0.689637D+00         -0.161379         -0.371590
 Vib (V=0)       0.182782D+01          0.261934          0.603125
 Vib (V=0)    1  0.135182D+01          0.130919          0.301453
 Vib (V=0)    2  0.135182D+01          0.130919          0.301453
 Electronic      0.200000D+01          0.301030          0.693147
 Translational   0.884064D+07          6.946484         15.994869
 Rotational      0.283766D+02          1.452961          3.345565
 
                                                          TS search on BH76.
                                                             IR Spectrum
 
     1                                                                                                                               
     7                                                                                                          2                    
     4                                                                                                          7                    
     5                                                                                                          9                    
 
                                                                                                                X                    
                                                                                                                X                    
                                                                                                                X                    
                                                                                                                X                    
                                                                                                                X                    
                                                                                                                X                    
                                                                                                                X                    
                                                                                                                X                    
                                                                                                                X                    
                                                                                                                X                    
                                                                                                                X                    
                                                                                                                X                    
                                                                                                                X                    
                                                                                                                X                    
                                                                                                                X                    
                                                                                                                X                    
                                                                                                                X                    
                                                                                                                X                    
                                                                                                                X                    
                                                                                                                X                    
 
 ***** Axes restored to original set *****
 -------------------------------------------------------------------
 Center     Atomic                   Forces (Hartrees/Bohr)
 Number     Number              X              Y              Z
 -------------------------------------------------------------------
      1        1           0.000000000   -0.000000000    0.000156912
      2       17           0.000000000    0.000000000    0.000000000
      3        1          -0.000000000   -0.000000000   -0.000156912
 -------------------------------------------------------------------
 Cartesian Forces:  Max     0.000156912 RMS     0.000073969
 Force constants in Cartesian coordinates: 
                1             2             3             4             5 
      1  0.140864D-02
      2  0.000000D+00  0.140864D-02
      3  0.000000D+00  0.000000D+00  0.289127D-01
      4 -0.280586D-02  0.000000D+00  0.000000D+00  0.561172D-02
      5  0.000000D+00 -0.280586D-02  0.000000D+00  0.000000D+00  0.561172D-02
      6  0.000000D+00  0.000000D+00  0.583641D-01  0.000000D+00  0.000000D+00
      7  0.139722D-02  0.000000D+00  0.000000D+00 -0.280586D-02  0.000000D+00
      8  0.000000D+00  0.139722D-02  0.000000D+00  0.000000D+00 -0.280586D-02
      9  0.000000D+00  0.000000D+00 -0.872768D-01  0.000000D+00  0.000000D+00
                6             7             8             9 
      6 -0.116728D+00
      7  0.000000D+00  0.140864D-02
      8  0.000000D+00  0.000000D+00  0.140864D-02
      9  0.583641D-01  0.000000D+00  0.000000D+00  0.289127D-01
 FormGI is forming the generalized inverse of G from B-inverse, IUseBI=4.
 Force constants in internal coordinates: 
                1             2             3             4 
      1  0.289127D-01
      2  0.872768D-01  0.289127D-01
      3  0.000000D+00  0.000000D+00  0.116997D-01
      4  0.000000D+00  0.000000D+00  0.000000D+00  0.116997D-01
 Leave Link  716 at Wed Oct  7 13:06:07 2020, MaxMem=  2684354560 cpu:               2.3 elap:               0.7
 (Enter /udrive/faculty/rpeverati/g16/g16/l103.exe)

 GradGradGradGradGradGradGradGradGradGradGradGradGradGradGradGradGradGrad
 Berny optimization.
 Optmz: redundant internal coordinate code flag= 1
 Red2BG:  D1=  7.34D-01 OD1=  3.33D-16 B2RMS=  0.00D+00 IAprox=1
 Red2BG is reusing G-inverse.
 Internal  Forces:  Max     0.000156912 RMS     0.000110953
 Search for a local minimum.
 Step number   1 out of a maximum of    2
 All quantities printed in internal units (Hartrees-Bohrs-Radians)
 Second derivative matrix not updated -- analytic derivatives used.
 The second derivative matrix:
                          R1        R2        A1        A2
           R1           0.02891
           R2           0.08728   0.02891
           A1          -0.00000   0.00000   0.01170
           A2           0.00000  -0.00000  -0.00000   0.01170
 ITU=  0
 Eigenvectors of the second derivative matrix:
                           1         2         3         4
     Eigenvalues --    -0.05836   0.01170   0.01170   0.11619
   1         R1        -0.70711  -0.00000  -0.00000   0.70711
   2         R2         0.70711   0.00000   0.00000   0.70711
   3         A1        -0.00000  -0.00152   1.00000  -0.00000
   4         A2         0.00000  -1.00000  -0.00152   0.00000
 Eigenvalue     1 is  -5.84D-02 should be greater than     0.000000 Eigenvector:
                          R2        R1        A2        A1
   1                    0.70711  -0.70711   0.00000  -0.00000
 Angle between quadratic step and forces=   0.00 degrees.
 Linear search not attempted -- first point.
 Iteration  1 RMS(Cart)=  0.00095493 RMS(Int)=  0.00000000
 Iteration  2 RMS(Cart)=  0.00000000 RMS(Int)=  0.00000000
 ITry= 1 IFail=0 DXMaxC= 1.35D-03 DCOld= 1.00D+10 DXMaxT= 3.00D-01 DXLimC= 3.00D+00 Rises=F
 ClnCor:  largest displacement from symmetrization is 1.34D-13 for atom     2.
 Variable       Old X    -DE/DX   Delta X   Delta X   Delta X     New X
                                 (Linear)    (Quad)   (Total)
    R1        2.85999   0.00016   0.00000   0.00135   0.00135   2.86134
    R2        2.85999   0.00016   0.00000   0.00135   0.00135   2.86134
    A1        3.14159   0.00000   0.00000   0.00000   0.00000   3.14159
    A2        3.14159  -0.00000   0.00000  -0.00000   0.00000   3.14159
         Item               Value     Threshold  Converged?
 Maximum Force            0.000157     0.000450     YES
 RMS     Force            0.000111     0.000300     YES
 Maximum Displacement     0.001350     0.001800     YES
 RMS     Displacement     0.000955     0.001200     YES
 Predicted change in Energy=-2.119066D-07
 Optimization completed.
    -- Stationary point found.
                           ----------------------------
                           !   Optimized Parameters   !
                           ! (Angstroms and Degrees)  !
 --------------------------                            --------------------------
 ! Name  Definition              Value          Derivative Info.                !
 --------------------------------------------------------------------------------
 ! R1    R(1,2)                  1.5134         -DE/DX =    0.0002              !
 ! R2    R(2,3)                  1.5134         -DE/DX =    0.0002              !
 ! A1    L(1,2,3,-1,-1)        180.0            -DE/DX =    0.0                 !
 ! A2    L(1,2,3,-2,-2)        180.0            -DE/DX =    0.0                 !
 --------------------------------------------------------------------------------
 GradGradGradGradGradGradGradGradGradGradGradGradGradGradGradGradGradGrad

 Leave Link  103 at Wed Oct  7 13:06:08 2020, MaxMem=  2684354560 cpu:               2.9 elap:               0.7
 (Enter /udrive/faculty/rpeverati/g16/g16/l9999.exe)
 Dipole is zero, so no output in dipole orientation.

 ----------------------------------------------------------------------

 Electric dipole moment (input orientation):
 (Debye = 10**-18 statcoulomb cm , SI units = C m)
                  (au)            (Debye)         (10**-30 SI)
   Tot        0.000000D+00      0.000000D+00      0.000000D+00
   x          0.000000D+00      0.000000D+00      0.000000D+00
   y          0.000000D+00      0.000000D+00      0.000000D+00
   z          0.000000D+00      0.000000D+00      0.000000D+00

 Dipole polarizability, Alpha (input orientation).
 (esu units = cm**3 , SI units = C**2 m**2 J**-1)
 Alpha(0;0):
               (au)            (10**-24 esu)      (10**-40 SI)
   iso        0.168192D+02      0.249235D+01      0.277312D+01
   aniso      0.316775D+02      0.469413D+01      0.522292D+01
   xx         0.626004D+01      0.927643D+00      0.103214D+01
   yx         0.000000D+00      0.000000D+00      0.000000D+00
   yy         0.626004D+01      0.927643D+00      0.103214D+01
   zx         0.000000D+00      0.000000D+00      0.000000D+00
   zy         0.000000D+00      0.000000D+00      0.000000D+00
   zz         0.379376D+02      0.562177D+01      0.625506D+01

 ----------------------------------------------------------------------

 Test job not archived.
 1\1\GINC-NODE34\Freq\UTPSSTPSS\6-31G(d)\Cl1H2(2)\RPEVERATI\07-Oct-2020
 \0\\#P Freq TPSSTPSS/6-31G* 5D 7F Integral=UltraFineGrid SCF=(NoSymm,X
 QC,MaxCyc=120) EmpiricalDispersion=GD3BJ IOp(1/33=1) Geom=Check Guess=
 Read\\TS search on BH76.\\0,2\H,0.,0.,1.5134403577\Cl,0.,0.,0.\H,0.,0.
 ,-1.5134403577\\Version=ES64L-G16RevA.03\State=2-SGG\HF=-461.2794901\S
 2=0.768007\S2-1=0.\S2A=0.750014\RMSD=0.000e+00\RMSF=7.397e-05\ZeroPoin
 t=0.0052473\Thermal=0.0085038\Dipole=0.,0.,0.\DipoleDeriv=0.1418777,0.
 ,0.,0.,0.1418777,0.,0.,0.,-0.6794146,-0.2837554,0.,0.,0.,-0.2837554,0.
 ,0.,0.,1.3588292,0.1418777,0.,0.,0.,0.1418777,0.,0.,0.,-0.6794146\Pola
 r=6.2600442,0.,6.2600442,0.,0.,37.9375854\Quadrupole=-0.8460301,-0.846
 0301,1.6920602,0.,0.,0.\PG=D*H [O(Cl1),C*(H1.H1)]\NImag=1\\0.00140864,
 0.,0.00140864,0.,0.,0.02891268,-0.00280586,0.,0.,0.00561172,0.,-0.0028
 0586,0.,0.,0.00561172,0.,0.,0.05836414,0.,0.,-0.11672828,0.00139722,0.
 ,0.,-0.00280586,0.,0.,0.00140864,0.,0.00139722,0.,0.,-0.00280586,0.,0.
 ,0.00140864,0.,0.,-0.08727682,0.,0.,0.05836414,0.,0.,0.02891268\\0.,0.
 ,-0.00015691,0.,0.,0.,0.,0.,0.00015691\\\@


 ADVERTISING--  HE WHO HAS SOMETHING TO SELL AND GOES AND WHISPERS
                IN A WELL, IS NOT SO APT TO GET THE DOLLARS AS HE
                WHO CLIMBS A TREE AND HOLLERS.

                   -- FROM THE BACK OF A SUGAR PACKET
 Job cpu time:       0 days  0 hours  1 minutes 38.9 seconds.
 Elapsed time:       0 days  0 hours  0 minutes 17.2 seconds.
 File lengths (MBytes):  RWF=      5 Int=      0 D2E=      0 Chk=      1 Scr=      1
 Normal termination of Gaussian 16 at Wed Oct  7 13:06:09 2020.
