 Entering Gaussian System, Link 0=g16
 Input=MN_40_f_lower_BH76_TPSSDBJ_631Gs.in
 Output=MN_40_f_lower_BH76_TPSSDBJ_631Gs.log
 Initial command:
 /udrive/faculty/rpeverati/g16/g16/l1.exe "/udrive/scratch-directories/gaussian09/rpeverati/Gau-34607.inp" -scrdir="/udrive/scratch-directories/gaussian09/rpeverati/"
 Entering Link 1 = /udrive/faculty/rpeverati/g16/g16/l1.exe PID=     34608.
  
 Copyright (c) 1988,1990,1992,1993,1995,1998,2003,2009,2016,
            Gaussian, Inc.  All Rights Reserved.
  
 This is part of the Gaussian(R) 16 program.  It is based on
 the Gaussian(R) 09 system (copyright 2009, Gaussian, Inc.),
 the Gaussian(R) 03 system (copyright 2003, Gaussian, Inc.),
 the Gaussian(R) 98 system (copyright 1998, Gaussian, Inc.),
 the Gaussian(R) 94 system (copyright 1995, Gaussian, Inc.),
 the Gaussian 92(TM) system (copyright 1992, Gaussian, Inc.),
 the Gaussian 90(TM) system (copyright 1990, Gaussian, Inc.),
 the Gaussian 88(TM) system (copyright 1988, Gaussian, Inc.),
 the Gaussian 86(TM) system (copyright 1986, Carnegie Mellon
 University), and the Gaussian 82(TM) system (copyright 1983,
 Carnegie Mellon University). Gaussian is a federally registered
 trademark of Gaussian, Inc.
  
 This software contains proprietary and confidential information,
 including trade secrets, belonging to Gaussian, Inc.
  
 This software is provided under written license and may be
 used, copied, transmitted, or stored only in accord with that
 written license.
  
 The following legend is applicable only to US Government
 contracts under FAR:
  
                    RESTRICTED RIGHTS LEGEND
  
 Use, reproduction and disclosure by the US Government is
 subject to restrictions as set forth in subparagraphs (a)
 and (c) of the Commercial Computer Software - Restricted
 Rights clause in FAR 52.227-19.
  
 Gaussian, Inc.
 340 Quinnipiac St., Bldg. 40, Wallingford CT 06492
  
  
 ---------------------------------------------------------------
 Warning -- This program may not be used in any manner that
 competes with the business of Gaussian, Inc. or will provide
 assistance to any competitor of Gaussian, Inc.  The licensee
 of this program is prohibited from giving any competitor of
 Gaussian, Inc. access to this program.  By using this program,
 the user acknowledges that Gaussian, Inc. is engaged in the
 business of creating and licensing software in the field of
 computational chemistry and represents and warrants to the
 licensee that it is not a competitor of Gaussian, Inc. and that
 it will not use this program in any manner prohibited above.
 ---------------------------------------------------------------
  

 Cite this work as:
 Gaussian 16, Revision A.03,
 M. J. Frisch, G. W. Trucks, H. B. Schlegel, G. E. Scuseria, 
 M. A. Robb, J. R. Cheeseman, G. Scalmani, V. Barone, 
 G. A. Petersson, H. Nakatsuji, X. Li, M. Caricato, A. V. Marenich, 
 J. Bloino, B. G. Janesko, R. Gomperts, B. Mennucci, H. P. Hratchian, 
 J. V. Ortiz, A. F. Izmaylov, J. L. Sonnenberg, D. Williams-Young, 
 F. Ding, F. Lipparini, F. Egidi, J. Goings, B. Peng, A. Petrone, 
 T. Henderson, D. Ranasinghe, V. G. Zakrzewski, J. Gao, N. Rega, 
 G. Zheng, W. Liang, M. Hada, M. Ehara, K. Toyota, R. Fukuda, 
 J. Hasegawa, M. Ishida, T. Nakajima, Y. Honda, O. Kitao, H. Nakai, 
 T. Vreven, K. Throssell, J. A. Montgomery, Jr., J. E. Peralta, 
 F. Ogliaro, M. J. Bearpark, J. J. Heyd, E. N. Brothers, K. N. Kudin, 
 V. N. Staroverov, T. A. Keith, R. Kobayashi, J. Normand, 
 K. Raghavachari, A. P. Rendell, J. C. Burant, S. S. Iyengar, 
 J. Tomasi, M. Cossi, J. M. Millam, M. Klene, C. Adamo, R. Cammi, 
 J. W. Ochterski, R. L. Martin, K. Morokuma, O. Farkas, 
 J. B. Foresman, and D. J. Fox, Gaussian, Inc., Wallingford CT, 2016.
 
 ******************************************
 Gaussian 16:  ES64L-G16RevA.03 25-Dec-2016
                 7-Oct-2020 
 ******************************************
 %NoSave
 %nproc=12
 Will use up to   12 processors via shared memory.
 %mem=20GB
 %chk=MN_40_f_lower_BH76_TPSSDBJ_631Gs
 ----------------------------------------------------------------------
 #P TPSSTPSS/6-31G* 5D 7F Integral=UltraFineGrid SCF=(NoSymm,XQC,MaxCyc
 =120) EmpiricalDispersion=GD3BJ IOp(1/33=1) Stable=Opt
 ----------------------------------------------------------------------
 1/33=1,38=1,172=1/1;
 2/12=2,17=6,18=5,40=1/2;
 3/5=1,6=6,7=1,8=11,11=2,25=1,30=1,74=2523,75=-5,124=41/1,2,3;
 4/9=2/1;
 5/5=2,7=120,8=3,13=1,38=5/2,8;
 6/7=2,8=2,9=2,10=2,28=1/1;
 8/6=1,10=90,11=11/1;
 9/8=-3,42=1,46=1/14;
 5/5=2,7=120,8=3,17=40,38=5/8(-2);
 6/7=2,8=2,9=2,10=2,28=1/1;
 99/5=1,9=1/99;
 Leave Link    1 at Wed Oct  7 13:04:50 2020, MaxMem=  2684354560 cpu:               5.4 elap:               0.5
 (Enter /udrive/faculty/rpeverati/g16/g16/l101.exe)
 ONIOM data not found on unit 2.
 ------------------
 TS search on BH76.
 ------------------
 TstMul:  ICh=     0
 TstMul:  Mul=     2
 TstMul:  ICh=     0
 TstMul:  Mul=     2
 Symbolic Z-matrix:
 Charge =  0 Multiplicity = 2
 F                     0.        0.        0. 
 
 RdStrC is calling ZToCFu for IStruc=1 NZ=     1.
 PrtBox:  NBox=     1 Levels=  0 BoxLen=    8.00 SMaxX=        0.00
          Shift=            0.000000            0.000000            0.000000
 Box      1 Number                   0 centers from      1 to      1:
 After GenITR:
 ITRead=  0
 MicOpt= -1
 ITRead=  0
 MicOpt= -1
 NAtoms=      1 NQM=        1 NQMF=       0 NMMI=      0 NMMIF=      0
                NMic=       0 NMicF=      0.
                    Isotopes and Nuclear Properties:
 (Nuclear quadrupole moments (NQMom) in fm**2, nuclear magnetic moments (NMagM)
  in nuclear magnetons)

  Atom         1
 IAtWgt=          19
 AtmWgt=  18.9984033
 NucSpn=           1
 AtZEff=   0.0000000
 NQMom=    0.0000000
 NMagM=    2.6288670
 AtZNuc=   9.0000000
 No MM parameters found.
 Leave Link  101 at Wed Oct  7 13:04:51 2020, MaxMem=  2684354560 cpu:               1.2 elap:               0.2
 (Enter /udrive/faculty/rpeverati/g16/g16/l202.exe)
                          Input orientation:                          
 ---------------------------------------------------------------------
 Center     Atomic      Atomic             Coordinates (Angstroms)
 Number     Number       Type             X           Y           Z
 ---------------------------------------------------------------------
      1          9           0        0.000000    0.000000    0.000000
 ---------------------------------------------------------------------
 Stoichiometry    F(2)
 Framework group  OH[O(F)]
 Deg. of freedom     0
 Full point group                 OH      NOp  48
 Largest Abelian subgroup         D2H     NOp   8
 Largest concise Abelian subgroup C1      NOp   1
                         Standard orientation:                         
 ---------------------------------------------------------------------
 Center     Atomic      Atomic             Coordinates (Angstroms)
 Number     Number       Type             X           Y           Z
 ---------------------------------------------------------------------
      1          9           0        0.000000    0.000000    0.000000
 ---------------------------------------------------------------------
 Leave Link  202 at Wed Oct  7 13:04:52 2020, MaxMem=  2684354560 cpu:               0.8 elap:               0.4
 (Enter /udrive/faculty/rpeverati/g16/g16/l301.exe)
 Standard basis: 6-31G(d) (5D, 7F)
 Ernie: Thresh=  0.10000D-02 Tol=  0.10000D-05 Strict=F.
 There are     6 symmetry adapted cartesian basis functions of AG  symmetry.
 There are     1 symmetry adapted cartesian basis functions of B1G symmetry.
 There are     1 symmetry adapted cartesian basis functions of B2G symmetry.
 There are     1 symmetry adapted cartesian basis functions of B3G symmetry.
 There are     0 symmetry adapted cartesian basis functions of AU  symmetry.
 There are     2 symmetry adapted cartesian basis functions of B1U symmetry.
 There are     2 symmetry adapted cartesian basis functions of B2U symmetry.
 There are     2 symmetry adapted cartesian basis functions of B3U symmetry.
 There are     5 symmetry adapted basis functions of AG  symmetry.
 There are     1 symmetry adapted basis functions of B1G symmetry.
 There are     1 symmetry adapted basis functions of B2G symmetry.
 There are     1 symmetry adapted basis functions of B3G symmetry.
 There are     0 symmetry adapted basis functions of AU  symmetry.
 There are     2 symmetry adapted basis functions of B1U symmetry.
 There are     2 symmetry adapted basis functions of B2U symmetry.
 There are     2 symmetry adapted basis functions of B3U symmetry.
    14 basis functions,    28 primitive gaussians,    15 cartesian basis functions
     5 alpha electrons        4 beta electrons
       nuclear repulsion energy         0.0000000000 Hartrees.
 IExCor= 2523 DFT=T Ex=TPSS Corr=TPSS ExCW=0 ScaHFX=  0.000000
 ScaDFX=  1.000000  1.000000  1.000000  1.000000 ScalE2=  1.000000  1.000000
 IRadAn=      5 IRanWt=     -1 IRanGd=            0 ICorTp=0 IEmpDi=141
 NAtoms=    1 NActive=    1 NUniq=    1 SFac= 1.00D+00 NAtFMM=   60 NAOKFM=F Big=F
 Integral buffers will be    131072 words long.
 Raffenetti 2 integral format.
 Two-electron integral symmetry is turned on.
 R6Disp:  Grimme-D3(BJ) Dispersion energy=        0.0000000000 Hartrees.
 Nuclear repulsion after empirical dispersion term =        0.0000000000 Hartrees.
 Leave Link  301 at Wed Oct  7 13:04:52 2020, MaxMem=  2684354560 cpu:               2.4 elap:               0.5
 (Enter /udrive/faculty/rpeverati/g16/g16/l302.exe)
 NPDir=0 NMtPBC=     1 NCelOv=     1 NCel=       1 NClECP=     1 NCelD=      1
         NCelK=      1 NCelE2=     1 NClLst=     1 CellRange=     0.0.
 One-electron integrals computed using PRISM.
 One-electron integral symmetry used in STVInt
 NBasis=    14 RedAO= T EigKep=  2.33D-01  NBF=     5     1     1     1     0     2     2     2
 NBsUse=    14 1.00D-06 EigRej= -1.00D+00 NBFU=     5     1     1     1     0     2     2     2
 Precomputing XC quadrature grid using
 IXCGrd= 4 IRadAn=           5 IRanWt=          -1 IRanGd=           0 AccXCQ= 0.00D+00.
 Generated NRdTot=       0 NPtTot=           0 NUsed=           0 NTot=          32
 NSgBfM=    15    15    15    15    15 MxSgAt=     1 MxSgA2=     1.
 Leave Link  302 at Wed Oct  7 13:04:53 2020, MaxMem=  2684354560 cpu:               2.9 elap:               0.6
 (Enter /udrive/faculty/rpeverati/g16/g16/l303.exe)
 DipDrv:  MaxL=1.
 Leave Link  303 at Wed Oct  7 13:04:54 2020, MaxMem=  2684354560 cpu:               1.5 elap:               0.5
 (Enter /udrive/faculty/rpeverati/g16/g16/l401.exe)
 SCF N**3 symmetry information disabled.
 ExpMin= 3.58D-01 ExpMax= 7.00D+03 ExpMxC= 1.05D+03 IAcc=3 IRadAn=         5 AccDes= 0.00D+00
 Harris functional with IExCor= 1009 and IRadAn=       5 diagonalized for initial guess.
 HarFok:  IExCor= 1009 AccDes= 0.00D+00 IRadAn=         5 IDoV= 1 UseB2=F ITyADJ=14
 ICtDFT=  3500011 ScaDFX=  1.000000  1.000000  1.000000  1.000000
 FoFCou: FMM=F IPFlag=           0 FMFlag=      100000 FMFlg1=           0
         NFxFlg=           0 DoJE=T BraDBF=F KetDBF=T FulRan=T
         wScrn=  0.000000 ICntrl=       500 IOpCl=  0 I1Cent=   200000004 NGrid=           0
         NMat0=    1 NMatS0=      1 NMatT0=    0 NMatD0=    1 NMtDS0=    0 NMtDT0=    0
 Petite list used in FoFCou.
 Harris En= -99.5795218424902    
 JPrj=0 DoOrth=F DoCkMO=F.
 Initial guess orbital symmetries:
 Alpha Orbitals:
       Occupied  (A1G) (A1G) (T1U) (T1U) (T1U)
       Virtual   (T1U) (T1U) (T1U) (A1G) (T2G) (T2G) (T2G) (EG)
                 (EG)
 Beta  Orbitals:
       Occupied  (A1G) (A1G) (T1U) (T1U)
       Virtual   (T1U) (T1U) (T1U) (T1U) (A1G) (T2G) (T2G) (T2G)
                 (EG) (EG)
 Initial guess <Sx>= 0.0000 <Sy>= 0.0000 <Sz>= 0.5000 <S**2>= 0.7500 S= 0.5000
 Leave Link  401 at Wed Oct  7 13:04:55 2020, MaxMem=  2684354560 cpu:               4.0 elap:               0.7
 (Enter /udrive/faculty/rpeverati/g16/g16/l502.exe)
 Keep J ints in memory in symmetry-blocked form, NReq=10353267.
 FoFCou: FMM=F IPFlag=           0 FMFlag=           0 FMFlg1=           0
         NFxFlg=           0 DoJE=F BraDBF=F KetDBF=F FulRan=T
         wScrn=  0.000000 ICntrl=       600 IOpCl=  0 I1Cent=           0 NGrid=           0
         NMat0=    1 NMatS0=    105 NMatT0=    0 NMatD0=    1 NMtDS0=    0 NMtDT0=    0
 Petite list used in FoFCou.
 UHF open shell SCF:
 Using DIIS extrapolation, IDIIS=  1040.
 NGot=  2684354560 LenX=  2684350175 LenY=  2684349293
 Requested convergence on RMS density matrix=1.00D-08 within 120 cycles.
 Requested convergence on MAX density matrix=1.00D-06.
 Requested convergence on             energy=1.00D-06.
 No special actions if energy rises.
 Integral accuracy reduced to 1.0D-05 until final iterations.

 Cycle   1  Pass 0  IDiag  1:
 Density matrix breaks symmetry, PCut= 1.00D-04
 Density matrix has no symmetry -- integrals replicated.
 E= -99.7156662481464    
 DIIS: error= 1.93D-02 at cycle   1 NSaved=   1.
 NSaved= 1 IEnMin= 1 EnMin= -99.7156662481464     IErMin= 1 ErrMin= 1.93D-02
 ErrMax= 1.93D-02  0.00D+00 EMaxC= 1.00D-01 BMatC= 1.36D-02 BMatP= 1.36D-02
 IDIUse=3 WtCom= 8.07D-01 WtEn= 1.93D-01
 Coeff-Com:  0.100D+01
 Coeff-En:   0.100D+01
 Coeff:      0.100D+01
 Gap=     1.569 Goal=   None    Shift=    0.000
 Gap=     0.054 Goal=   None    Shift=    0.000
 GapD=    0.054 DampG=0.500 DampE=0.500 DampFc=0.2500 IDamp=-1.
 Damping current iteration by 2.50D-01
 RMSDP=2.79D-03 MaxDP=3.28D-02              OVMax= 2.56D-02

 Cycle   2  Pass 0  IDiag  1:
 Density matrix breaks symmetry, PCut= 1.00D-04
 Density matrix has no symmetry -- integrals replicated.
 E= -99.7162533714381     Delta-E=       -0.000587123292 Rises=F Damp=T
 DIIS: error= 1.37D-02 at cycle   2 NSaved=   2.
 NSaved= 2 IEnMin= 2 EnMin= -99.7162533714381     IErMin= 2 ErrMin= 1.37D-02
 ErrMax= 1.37D-02  0.00D+00 EMaxC= 1.00D-01 BMatC= 7.42D-03 BMatP= 1.36D-02
 IDIUse=3 WtCom= 8.63D-01 WtEn= 1.37D-01
 Coeff-Com: -0.252D+01 0.352D+01
 Coeff-En:   0.000D+00 0.100D+01
 Coeff:     -0.218D+01 0.318D+01
 Gap=     1.417 Goal=   None    Shift=    0.000
 Gap=     0.056 Goal=   None    Shift=    0.000
 RMSDP=2.02D-03 MaxDP=2.05D-02 DE=-5.87D-04 OVMax= 6.08D-03

 Cycle   3  Pass 0  IDiag  1:
 Density matrix breaks symmetry, PCut= 1.00D-04
 Density matrix has no symmetry -- integrals replicated.
 E= -99.7179957690788     Delta-E=       -0.001742397641 Rises=F Damp=F
 DIIS: error= 2.80D-03 at cycle   3 NSaved=   3.
 NSaved= 3 IEnMin= 3 EnMin= -99.7179957690788     IErMin= 3 ErrMin= 2.80D-03
 ErrMax= 2.80D-03  0.00D+00 EMaxC= 1.00D-01 BMatC= 3.39D-04 BMatP= 7.42D-03
 IDIUse=3 WtCom= 9.72D-01 WtEn= 2.80D-02
 Coeff-Com: -0.105D+01 0.136D+01 0.681D+00
 Coeff-En:   0.000D+00 0.000D+00 0.100D+01
 Coeff:     -0.102D+01 0.133D+01 0.690D+00
 Gap=     1.419 Goal=   None    Shift=    0.000
 Gap=     0.058 Goal=   None    Shift=    0.000
 RMSDP=3.93D-04 MaxDP=2.81D-03 DE=-1.74D-03 OVMax= 2.18D-03

 Cycle   4  Pass 0  IDiag  1:
 Density matrix breaks symmetry, PCut= 1.00D-04
 Density matrix has no symmetry -- integrals replicated.
 E= -99.7180497562319     Delta-E=       -0.000053987153 Rises=F Damp=F
 DIIS: error= 2.60D-04 at cycle   4 NSaved=   4.
 NSaved= 4 IEnMin= 4 EnMin= -99.7180497562319     IErMin= 4 ErrMin= 2.60D-04
 ErrMax= 2.60D-04  0.00D+00 EMaxC= 1.00D-01 BMatC= 1.66D-06 BMatP= 3.39D-04
 IDIUse=3 WtCom= 9.97D-01 WtEn= 2.60D-03
 Coeff-Com:  0.189D+00-0.252D+00-0.472D-01 0.111D+01
 Coeff-En:   0.000D+00 0.000D+00 0.000D+00 0.100D+01
 Coeff:      0.189D+00-0.251D+00-0.470D-01 0.111D+01
 Gap=     1.419 Goal=   None    Shift=    0.000
 Gap=     0.058 Goal=   None    Shift=    0.000
 RMSDP=3.82D-05 MaxDP=3.53D-04 DE=-5.40D-05 OVMax= 2.79D-04

 Cycle   5  Pass 0  IDiag  1:
 Density matrix breaks symmetry, PCut= 1.00D-04
 Density matrix has no symmetry -- integrals replicated.
 E= -99.7180501155604     Delta-E=       -0.000000359329 Rises=F Damp=F
 DIIS: error= 8.74D-06 at cycle   5 NSaved=   5.
 NSaved= 5 IEnMin= 5 EnMin= -99.7180501155604     IErMin= 5 ErrMin= 8.74D-06
 ErrMax= 8.74D-06  0.00D+00 EMaxC= 1.00D-01 BMatC= 2.10D-09 BMatP= 1.66D-06
 IDIUse=1 WtCom= 1.00D+00 WtEn= 0.00D+00
 Coeff-Com: -0.810D-02 0.109D-01-0.182D-02-0.918D-01 0.109D+01
 Coeff:     -0.810D-02 0.109D-01-0.182D-02-0.918D-01 0.109D+01
 Gap=     1.419 Goal=   None    Shift=    0.000
 Gap=     0.058 Goal=   None    Shift=    0.000
 RMSDP=2.26D-06 MaxDP=1.55D-05 DE=-3.59D-07 OVMax= 2.14D-05

 Initial convergence to 1.0D-05 achieved.  Increase integral accuracy.
 Cycle   6  Pass 1  IDiag  1:
 Density matrix breaks symmetry, PCut= 1.00D-04
 Density matrix has no symmetry -- integrals replicated.
 E= -99.7180504797362     Delta-E=       -0.000000364176 Rises=F Damp=F
 DIIS: error= 8.87D-07 at cycle   1 NSaved=   1.
 NSaved= 1 IEnMin= 1 EnMin= -99.7180504797362     IErMin= 1 ErrMin= 8.87D-07
 ErrMax= 8.87D-07  0.00D+00 EMaxC= 1.00D-01 BMatC= 2.76D-11 BMatP= 2.76D-11
 IDIUse=1 WtCom= 1.00D+00 WtEn= 0.00D+00
 Coeff-Com:  0.100D+01
 Coeff:      0.100D+01
 Gap=     1.419 Goal=   None    Shift=    0.000
 Gap=     0.058 Goal=   None    Shift=    0.000
 RMSDP=2.26D-06 MaxDP=1.55D-05 DE=-3.64D-07 OVMax= 1.79D-06

 Cycle   7  Pass 1  IDiag  1:
 Density matrix breaks symmetry, PCut= 1.00D-04
 Density matrix has no symmetry -- integrals replicated.
 E= -99.7180504797421     Delta-E=       -0.000000000006 Rises=F Damp=F
 DIIS: error= 1.24D-07 at cycle   2 NSaved=   2.
 NSaved= 2 IEnMin= 2 EnMin= -99.7180504797421     IErMin= 2 ErrMin= 1.24D-07
 ErrMax= 1.24D-07  0.00D+00 EMaxC= 1.00D-01 BMatC= 6.05D-13 BMatP= 2.76D-11
 IDIUse=1 WtCom= 1.00D+00 WtEn= 0.00D+00
 Coeff-Com:  0.356D-01 0.964D+00
 Coeff:      0.356D-01 0.964D+00
 Gap=     1.419 Goal=   None    Shift=    0.000
 Gap=     0.058 Goal=   None    Shift=    0.000
 RMSDP=3.28D-08 MaxDP=2.07D-07 DE=-5.88D-12 OVMax= 3.69D-07

 Cycle   8  Pass 1  IDiag  1:
 Density matrix breaks symmetry, PCut= 1.00D-04
 Density matrix has no symmetry -- integrals replicated.
 E= -99.7180504797422     Delta-E=       -0.000000000000 Rises=F Damp=F
 DIIS: error= 9.61D-08 at cycle   3 NSaved=   3.
 NSaved= 3 IEnMin= 3 EnMin= -99.7180504797422     IErMin= 3 ErrMin= 9.61D-08
 ErrMax= 9.61D-08  0.00D+00 EMaxC= 1.00D-01 BMatC= 4.18D-13 BMatP= 6.05D-13
 IDIUse=1 WtCom= 1.00D+00 WtEn= 0.00D+00
 Coeff-Com:  0.453D-02 0.450D+00 0.545D+00
 Coeff:      0.453D-02 0.450D+00 0.545D+00
 Gap=     1.419 Goal=   None    Shift=    0.000
 Gap=     0.058 Goal=   None    Shift=    0.000
 RMSDP=1.79D-08 MaxDP=1.10D-07 DE=-8.53D-14 OVMax= 2.53D-07

 Cycle   9  Pass 1  IDiag  1:
 Density matrix breaks symmetry, PCut= 1.00D-04
 Density matrix has no symmetry -- integrals replicated.
 E= -99.7180504797423     Delta-E=       -0.000000000000 Rises=F Damp=F
 DIIS: error= 1.66D-08 at cycle   4 NSaved=   4.
 NSaved= 4 IEnMin= 4 EnMin= -99.7180504797423     IErMin= 4 ErrMin= 1.66D-08
 ErrMax= 1.66D-08  0.00D+00 EMaxC= 1.00D-01 BMatC= 6.97D-15 BMatP= 4.18D-13
 IDIUse=1 WtCom= 1.00D+00 WtEn= 0.00D+00
 Coeff-Com:  0.465D-02-0.159D+00-0.120D+00 0.127D+01
 Coeff:      0.465D-02-0.159D+00-0.120D+00 0.127D+01
 Gap=     1.419 Goal=   None    Shift=    0.000
 Gap=     0.058 Goal=   None    Shift=    0.000
 RMSDP=2.78D-08 MaxDP=2.62D-07 DE=-8.53D-14 OVMax= 5.70D-07

 Cycle  10  Pass 1  IDiag  1:
 Density matrix breaks symmetry, PCut= 1.00D-04
 Density matrix has no symmetry -- integrals replicated.
 E= -99.7180504797424     Delta-E=       -0.000000000000 Rises=F Damp=F
 DIIS: error= 1.87D-08 at cycle   5 NSaved=   5.
 NSaved= 5 IEnMin= 5 EnMin= -99.7180504797424     IErMin= 4 ErrMin= 1.66D-08
 ErrMax= 1.87D-08  0.00D+00 EMaxC= 1.00D-01 BMatC= 6.44D-15 BMatP= 6.97D-15
 IDIUse=1 WtCom= 1.00D+00 WtEn= 0.00D+00
 Coeff-Com:  0.395D-02-0.176D+00-0.111D+00 0.188D+01-0.596D+00
 Coeff:      0.395D-02-0.176D+00-0.111D+00 0.188D+01-0.596D+00
 Gap=     1.419 Goal=   None    Shift=    0.000
 Gap=     0.058 Goal=   None    Shift=    0.000
 RMSDP=1.60D-08 MaxDP=1.51D-07 DE=-5.68D-14 OVMax= 3.28D-07

 Cycle  11  Pass 1  IDiag  1:
 Density matrix breaks symmetry, PCut= 1.00D-04
 Density matrix has no symmetry -- integrals replicated.
 E= -99.7180504797424     Delta-E=       -0.000000000000 Rises=F Damp=F
 DIIS: error= 1.88D-08 at cycle   6 NSaved=   6.
 NSaved= 6 IEnMin= 6 EnMin= -99.7180504797424     IErMin= 4 ErrMin= 1.66D-08
 ErrMax= 1.88D-08  0.00D+00 EMaxC= 1.00D-01 BMatC= 6.48D-15 BMatP= 6.44D-15
 IDIUse=1 WtCom= 1.00D+00 WtEn= 0.00D+00
 Large coefficients: NSaved=  6 BigCof=   36.69 CofMax=   10.00 Det=-3.77D-19
 Inversion failed.  Reducing to  5 matrices.
 Large coefficients: NSaved=  5 BigCof=   35.73 CofMax=   10.00 Det=-7.23D-19
 Inversion failed.  Reducing to  4 matrices.
 Large coefficients: NSaved=  4 BigCof=   51.25 CofMax=   10.00 Det=-9.80D-19
 Inversion failed.  Reducing to  3 matrices.
 Coeff-Com:  0.354D+00 0.809D+01-0.744D+01
 Coeff:      0.354D+00 0.809D+01-0.744D+01
 Gap=     1.419 Goal=   None    Shift=    0.000
 Gap=     0.058 Goal=   None    Shift=    0.000
 RMSDP=1.47D-07 MaxDP=1.38D-06 DE=-2.84D-14 OVMax= 3.00D-06

 Cycle  12  Pass 1  IDiag  1:
 Density matrix breaks symmetry, PCut= 1.00D-04
 Density matrix has no symmetry -- integrals replicated.
 E= -99.7180504797425     Delta-E=       -0.000000000000 Rises=F Damp=F
 DIIS: error= 1.79D-08 at cycle   7 NSaved=   4.
 NSaved= 4 IEnMin= 4 EnMin= -99.7180504797425     IErMin= 1 ErrMin= 1.66D-08
 ErrMax= 1.79D-08  0.00D+00 EMaxC= 1.00D-01 BMatC= 6.37D-15 BMatP= 6.44D-15
 IDIUse=1 WtCom= 1.00D+00 WtEn= 0.00D+00
 Large coefficients: NSaved=  4 BigCof=   32.27 CofMax=   10.00 Det=-1.69D-18
 Inversion failed.  Reducing to  3 matrices.
 Coeff-Com:  0.771D+01-0.752D+01 0.812D+00
 Coeff:      0.771D+01-0.752D+01 0.812D+00
 Gap=     1.419 Goal=   None    Shift=    0.000
 Gap=     0.058 Goal=   None    Shift=    0.000
 RMSDP=1.17D-07 MaxDP=1.10D-06 DE=-1.42D-13 OVMax= 2.40D-06

 Cycle  13  Pass 1  IDiag  1:
 Density matrix breaks symmetry, PCut= 1.00D-04
 Density matrix has no symmetry -- integrals replicated.
 E= -99.7180504797427     Delta-E=       -0.000000000000 Rises=F Damp=F
 DIIS: error= 1.79D-08 at cycle   8 NSaved=   4.
 NSaved= 4 IEnMin= 4 EnMin= -99.7180504797427     IErMin= 4 ErrMin= 1.79D-08
 ErrMax= 1.79D-08  0.00D+00 EMaxC= 1.00D-01 BMatC= 6.22D-15 BMatP= 6.37D-15
 IDIUse=1 WtCom= 1.00D+00 WtEn= 0.00D+00
 Large coefficients: NSaved=  4 BigCof=   54.68 CofMax=   10.00 Det=-5.84D-19
 Inversion failed.  Reducing to  3 matrices.
 Coeff-Com: -0.731D+01 0.283D+01 0.548D+01
 Coeff:     -0.731D+01 0.283D+01 0.548D+01
 Gap=     1.419 Goal=   None    Shift=    0.000
 Gap=     0.058 Goal=   None    Shift=    0.000
 RMSDP=1.62D-06 MaxDP=1.52D-05 DE=-1.71D-13 OVMax= 3.31D-05

 Cycle  14  Pass 1  IDiag  1:
 Density matrix breaks symmetry, PCut= 1.00D-04
 Density matrix has no symmetry -- integrals replicated.
 E= -99.7180504797445     Delta-E=       -0.000000000002 Rises=F Damp=F
 DIIS: error= 1.83D-08 at cycle   9 NSaved=   4.
 NSaved= 4 IEnMin= 4 EnMin= -99.7180504797445     IErMin= 3 ErrMin= 1.79D-08
 ErrMax= 1.83D-08  0.00D+00 EMaxC= 1.00D-01 BMatC= 6.31D-15 BMatP= 6.22D-15
 IDIUse=1 WtCom= 1.00D+00 WtEn= 0.00D+00
 Large coefficients: NSaved=  4 BigCof=   20.41 CofMax=   10.00 Det=-7.10D-18
 Inversion failed.  Reducing to  3 matrices.
 Coeff-Com:  0.177D+01 0.478D+01-0.555D+01
 Coeff:      0.177D+01 0.478D+01-0.555D+01
 Gap=     1.419 Goal=   None    Shift=    0.000
 Gap=     0.058 Goal=   None    Shift=    0.000
 RMSDP=1.08D-05 MaxDP=1.01D-04 DE=-1.82D-12 OVMax= 2.21D-04

 Cycle  15  Pass 1  IDiag  1:
 Density matrix breaks symmetry, PCut= 1.00D-04
 Density matrix has no symmetry -- integrals replicated.
 E= -99.7180504797323     Delta-E=        0.000000000012 Rises=F Damp=F
 DIIS: error= 1.82D-08 at cycle  10 NSaved=   4.
 NSaved= 4 IEnMin= 3 EnMin= -99.7180504797445     IErMin= 2 ErrMin= 1.79D-08
 ErrMax= 1.82D-08  0.00D+00 EMaxC= 1.00D-01 BMatC= 6.29D-15 BMatP= 6.22D-15
 IDIUse=1 WtCom= 1.00D+00 WtEn= 0.00D+00
 Coeff-Com:  0.341D+01 0.859D+01-0.846D+01-0.254D+01
 Coeff:      0.341D+01 0.859D+01-0.846D+01-0.254D+01
 Gap=     1.419 Goal=   None    Shift=    0.000
 Gap=     0.058 Goal=   None    Shift=    0.000
 RMSDP=1.83D-05 MaxDP=1.73D-04 DE= 1.22D-11 OVMax= 3.76D-04

 Cycle  16  Pass 1  IDiag  1:
 Density matrix breaks symmetry, PCut= 1.00D-04
 Density matrix has no symmetry -- integrals replicated.
 E= -99.7180504797531     Delta-E=       -0.000000000021 Rises=F Damp=F
 DIIS: error= 1.83D-08 at cycle  11 NSaved=   5.
 NSaved= 5 IEnMin= 5 EnMin= -99.7180504797531     IErMin= 2 ErrMin= 1.79D-08
 ErrMax= 1.83D-08  0.00D+00 EMaxC= 1.00D-01 BMatC= 6.56D-15 BMatP= 6.22D-15
 IDIUse=1 WtCom= 1.00D+00 WtEn= 0.00D+00
 Large coefficients: NSaved=  5 BigCof=   44.81 CofMax=   10.00 Det=-2.35D-18
 Inversion failed.  Reducing to  4 matrices.
 Coeff-Com:  0.139D+01-0.924D+00 0.685D+00-0.154D+00
 Coeff:      0.139D+01-0.924D+00 0.685D+00-0.154D+00
 Gap=     1.419 Goal=   None    Shift=    0.000
 Gap=     0.058 Goal=   None    Shift=    0.000
 RMSDP=1.83D-05 MaxDP=1.73D-04 DE=-2.07D-11 OVMax= 3.76D-04

 Cycle  17  Pass 1  IDiag  1:
 Density matrix breaks symmetry, PCut= 1.00D-04
 Density matrix has no symmetry -- integrals replicated.
 E= -99.7180504797323     Delta-E=        0.000000000021 Rises=F Damp=F
 DIIS: error= 1.80D-08 at cycle  12 NSaved=   5.
 NSaved= 5 IEnMin= 4 EnMin= -99.7180504797531     IErMin= 1 ErrMin= 1.79D-08
 ErrMax= 1.80D-08  0.00D+00 EMaxC= 1.00D-01 BMatC= 6.27D-15 BMatP= 6.22D-15
 IDIUse=1 WtCom= 1.00D+00 WtEn= 0.00D+00
 Large coefficients: NSaved=  5 BigCof=   47.69 CofMax=   10.00 Det=-1.45D-18
 Inversion failed.  Reducing to  4 matrices.
 Coeff-Com:  0.322D+01-0.365D+01-0.290D+00 0.172D+01
 Coeff:      0.322D+01-0.365D+01-0.290D+00 0.172D+01
 Gap=     1.419 Goal=   None    Shift=    0.000
 Gap=     0.058 Goal=   None    Shift=    0.000
 RMSDP=1.52D-05 MaxDP=1.43D-04 DE= 2.07D-11 OVMax= 3.11D-04

 Cycle  18  Pass 1  IDiag  1:
 Density matrix breaks symmetry, PCut= 1.00D-04
 Density matrix has no symmetry -- integrals replicated.
 E= -99.7180504797151     Delta-E=        0.000000000017 Rises=F Damp=F
 DIIS: error= 1.86D-08 at cycle  13 NSaved=   5.
 NSaved= 5 IEnMin= 3 EnMin= -99.7180504797531     IErMin= 1 ErrMin= 1.79D-08
 ErrMax= 1.86D-08  0.00D+00 EMaxC= 1.00D-01 BMatC= 7.25D-15 BMatP= 6.22D-15
 IDIUse=1 WtCom= 1.00D+00 WtEn= 0.00D+00
 Large coefficients: NSaved=  5 BigCof=   21.78 CofMax=   10.00 Det=-1.03D-18
 Inversion failed.  Reducing to  4 matrices.
 Coeff-Com: -0.150D+01 0.681D+01 0.177D+00-0.449D+01
 Coeff:     -0.150D+01 0.681D+01 0.177D+00-0.449D+01
 Gap=     1.419 Goal=   None    Shift=    0.000
 Gap=     0.058 Goal=   None    Shift=    0.000
 RMSDP=1.92D-04 MaxDP=1.81D-03 DE= 1.73D-11 OVMax= 3.93D-03

 Cycle  19  Pass 1  IDiag  1:
 Density matrix breaks symmetry, PCut= 1.00D-04
 Density matrix has no symmetry -- integrals replicated.
 E= -99.7180504799233     Delta-E=       -0.000000000208 Rises=F Damp=F
 DIIS: error= 4.89D-07 at cycle  14 NSaved=   5.
 NSaved= 5 IEnMin= 5 EnMin= -99.7180504799233     IErMin= 3 ErrMin= 1.80D-08
 ErrMax= 4.89D-07  0.00D+00 EMaxC= 1.00D-01 BMatC= 3.84D-12 BMatP= 6.27D-15
 IDIUse=1 WtCom= 1.00D+00 WtEn= 0.00D+00
 Large coefficients: NSaved=  5 BigCof=   63.44 CofMax=   10.00 Det=-1.31D-18
 Inversion failed.  Reducing to  4 matrices.
 Large coefficients: NSaved=  4 BigCof=   10.95 CofMax=   10.00 Det=-7.57D-18
 Inversion failed.  Reducing to  3 matrices.
 Large coefficients: NSaved=  3 BigCof=   10.38 CofMax=   10.00 Det=-8.82D-18
 Inversion failed.  Reducing to  2 matrices.
 Coeff-Com:  0.102D+01-0.153D-01
 Coeff:      0.102D+01-0.153D-01
 Gap=     1.419 Goal=   None    Shift=    0.000
 Gap=     0.058 Goal=   None    Shift=    0.000
 RMSDP=1.95D-04 MaxDP=1.84D-03 DE=-2.08D-10 OVMax= 3.99D-03

 Cycle  20  Pass 1  IDiag  1:
 Density matrix breaks symmetry, PCut= 1.00D-04
 Density matrix has no symmetry -- integrals replicated.
 E= -99.7180504797118     Delta-E=        0.000000000212 Rises=F Damp=F
 DIIS: error= 1.86D-08 at cycle  15 NSaved=   3.
 NSaved= 3 IEnMin= 2 EnMin= -99.7180504799233     IErMin= 1 ErrMin= 1.86D-08
 ErrMax= 1.86D-08  0.00D+00 EMaxC= 1.00D-01 BMatC= 7.72D-15 BMatP= 7.25D-15
 IDIUse=1 WtCom= 1.00D+00 WtEn= 0.00D+00
 Coeff-Com:  0.336D+00-0.179D-01 0.682D+00
 Coeff:      0.336D+00-0.179D-01 0.682D+00
 Gap=     1.419 Goal=   None    Shift=    0.000
 Gap=     0.058 Goal=   None    Shift=    0.000
 RMSDP=2.49D-06 MaxDP=2.34D-05 DE= 2.12D-10 OVMax= 5.10D-05

 Cycle  21  Pass 1  IDiag  1:
 Density matrix breaks symmetry, PCut= 1.00D-04
 Density matrix has no symmetry -- integrals replicated.
 E= -99.7180504797088     Delta-E=        0.000000000003 Rises=F Damp=F
 DIIS: error= 1.87D-08 at cycle  16 NSaved=   4.
 NSaved= 4 IEnMin= 2 EnMin= -99.7180504799233     IErMin= 1 ErrMin= 1.86D-08
 ErrMax= 1.87D-08  0.00D+00 EMaxC= 1.00D-01 BMatC= 8.26D-15 BMatP= 7.25D-15
 IDIUse=1 WtCom= 1.00D+00 WtEn= 0.00D+00
 Coeff-Com:  0.289D+01 0.765D-02 0.278D+01-0.469D+01
 Coeff:      0.289D+01 0.765D-02 0.278D+01-0.469D+01
 Gap=     1.419 Goal=   None    Shift=    0.000
 Gap=     0.058 Goal=   None    Shift=    0.000
 RMSDP=2.41D-05 MaxDP=2.27D-04 DE= 2.91D-12 OVMax= 4.93D-04

 Cycle  22  Pass 1  IDiag  1:
 Density matrix breaks symmetry, PCut= 1.00D-04
 Density matrix has no symmetry -- integrals replicated.
 E= -99.7180504797363     Delta-E=       -0.000000000027 Rises=F Damp=F
 DIIS: error= 1.81D-08 at cycle  17 NSaved=   5.
 NSaved= 5 IEnMin= 2 EnMin= -99.7180504799233     IErMin= 5 ErrMin= 1.81D-08
 ErrMax= 1.81D-08  0.00D+00 EMaxC= 1.00D-01 BMatC= 6.30D-15 BMatP= 7.25D-15
 IDIUse=1 WtCom= 1.00D+00 WtEn= 0.00D+00
 Large coefficients: NSaved=  5 BigCof=   63.65 CofMax=   10.00 Det=-1.54D-18
 Inversion failed.  Reducing to  4 matrices.
 Large coefficients: NSaved=  4 BigCof=   55.51 CofMax=   10.00 Det=-2.29D-18
 Inversion failed.  Reducing to  3 matrices.
 Large coefficients: NSaved=  3 BigCof=   12.82 CofMax=   10.00 Det=-7.39D-18
 Inversion failed.  Reducing to  2 matrices.
 Coeff-Com: -0.380D+00 0.138D+01
 Coeff:     -0.380D+00 0.138D+01
 Gap=     1.419 Goal=   None    Shift=    0.000
 Gap=     0.058 Goal=   None    Shift=    0.000
 RMSDP=9.16D-06 MaxDP=8.63D-05 DE=-2.75D-11 OVMax= 1.88D-04

 Cycle  23  Pass 1  IDiag  1:
 Density matrix breaks symmetry, PCut= 1.00D-04
 Density matrix has no symmetry -- integrals replicated.
 E= -99.7180504797466     Delta-E=       -0.000000000010 Rises=F Damp=F
 DIIS: error= 1.81D-08 at cycle  18 NSaved=   3.
 NSaved= 3 IEnMin= 3 EnMin= -99.7180504797466     IErMin= 2 ErrMin= 1.81D-08
 ErrMax= 1.81D-08  0.00D+00 EMaxC= 1.00D-01 BMatC= 6.56D-15 BMatP= 6.30D-15
 IDIUse=1 WtCom= 1.00D+00 WtEn= 0.00D+00
 Coeff-Com: -0.907D+00 0.169D+00 0.174D+01
 Coeff:     -0.907D+00 0.169D+00 0.174D+01
 Gap=     1.419 Goal=   None    Shift=    0.000
 Gap=     0.058 Goal=   None    Shift=    0.000
 RMSDP=2.86D-05 MaxDP=2.69D-04 DE=-1.03D-11 OVMax= 5.86D-04

 Cycle  24  Pass 1  IDiag  1:
 Density matrix breaks symmetry, PCut= 1.00D-04
 Density matrix has no symmetry -- integrals replicated.
 E= -99.7180504797787     Delta-E=       -0.000000000032 Rises=F Damp=F
 DIIS: error= 2.84D-08 at cycle  19 NSaved=   4.
 NSaved= 4 IEnMin= 4 EnMin= -99.7180504797787     IErMin= 2 ErrMin= 1.81D-08
 ErrMax= 2.84D-08  0.00D+00 EMaxC= 1.00D-01 BMatC= 1.94D-14 BMatP= 6.30D-15
 IDIUse=1 WtCom= 1.00D+00 WtEn= 0.00D+00
 Large coefficients: NSaved=  4 BigCof=   47.68 CofMax=   10.00 Det=-2.39D-18
 Inversion failed.  Reducing to  3 matrices.
 Coeff-Com:  0.498D+00 0.654D+00-0.152D+00
 Coeff:      0.498D+00 0.654D+00-0.152D+00
 Gap=     1.419 Goal=   None    Shift=    0.000
 Gap=     0.058 Goal=   None    Shift=    0.000
 RMSDP=3.75D-05 MaxDP=3.53D-04 DE=-3.20D-11 OVMax= 7.68D-04

 Cycle  25  Pass 1  IDiag  1:
 Density matrix breaks symmetry, PCut= 1.00D-04
 Density matrix has no symmetry -- integrals replicated.
 E= -99.7180504797367     Delta-E=        0.000000000042 Rises=F Damp=F
 DIIS: error= 1.81D-08 at cycle  20 NSaved=   4.
 NSaved= 4 IEnMin= 3 EnMin= -99.7180504797787     IErMin= 4 ErrMin= 1.81D-08
 ErrMax= 1.81D-08  0.00D+00 EMaxC= 1.00D-01 BMatC= 6.28D-15 BMatP= 6.30D-15
 IDIUse=1 WtCom= 1.00D+00 WtEn= 0.00D+00
 Coeff-Com:  0.141D+01 0.813D+00-0.174D+00-0.105D+01
 Coeff:      0.141D+01 0.813D+00-0.174D+00-0.105D+01
 Gap=     1.419 Goal=   None    Shift=    0.000
 Gap=     0.058 Goal=   None    Shift=    0.000
 RMSDP=3.53D-07 MaxDP=3.33D-06 DE= 4.20D-11 OVMax= 7.24D-06

 Cycle  26  Pass 1  IDiag  1:
 Density matrix breaks symmetry, PCut= 1.00D-04
 Density matrix has no symmetry -- integrals replicated.
 E= -99.7180504797371     Delta-E=       -0.000000000000 Rises=F Damp=F
 DIIS: error= 1.81D-08 at cycle  21 NSaved=   5.
 NSaved= 5 IEnMin= 3 EnMin= -99.7180504797787     IErMin= 4 ErrMin= 1.81D-08
 ErrMax= 1.81D-08  0.00D+00 EMaxC= 1.00D-01 BMatC= 6.30D-15 BMatP= 6.28D-15
 IDIUse=1 WtCom= 1.00D+00 WtEn= 0.00D+00
 Large coefficients: NSaved=  5 BigCof= 3642.03 CofMax=   10.00 Det=-2.88D-22
 Inversion failed.  Reducing to  4 matrices.
 Coeff-Com:  0.559D+00-0.104D+00 0.394D+01-0.340D+01
 Coeff:      0.559D+00-0.104D+00 0.394D+01-0.340D+01
 Gap=     1.419 Goal=   None    Shift=    0.000
 Gap=     0.058 Goal=   None    Shift=    0.000
 RMSDP=4.47D-07 MaxDP=4.22D-06 DE=-3.98D-13 OVMax= 9.17D-06

 Cycle  27  Pass 1  IDiag  1:
 Density matrix breaks symmetry, PCut= 1.00D-04
 Density matrix has no symmetry -- integrals replicated.
 E= -99.7180504797366     Delta-E=        0.000000000000 Rises=F Damp=F
 DIIS: error= 1.80D-08 at cycle  22 NSaved=   5.
 NSaved= 5 IEnMin= 2 EnMin= -99.7180504797787     IErMin= 5 ErrMin= 1.80D-08
 ErrMax= 1.80D-08  0.00D+00 EMaxC= 1.00D-01 BMatC= 6.22D-15 BMatP= 6.28D-15
 IDIUse=1 WtCom= 1.00D+00 WtEn= 0.00D+00
 Large coefficients: NSaved=  5 BigCof= 2674.48 CofMax=   10.00 Det=-8.16D-22
 Inversion failed.  Reducing to  4 matrices.
 Large coefficients: NSaved=  4 BigCof=   19.05 CofMax=   10.00 Det=-2.56D-19
 Inversion failed.  Reducing to  3 matrices.
 Large coefficients: NSaved=  3 BigCof=   11.83 CofMax=   10.00 Det=-3.40D-19
 Inversion failed.  Reducing to  2 matrices.
 Coeff-Com: -0.116D+01 0.216D+01
 Coeff:     -0.116D+01 0.216D+01
 Gap=     1.419 Goal=   None    Shift=    0.000
 Gap=     0.058 Goal=   None    Shift=    0.000
 RMSDP=4.98D-07 MaxDP=4.70D-06 DE= 4.83D-13 OVMax= 1.02D-05

 Cycle  28  Pass 1  IDiag  1:
 Density matrix breaks symmetry, PCut= 1.00D-04
 Density matrix has no symmetry -- integrals replicated.
 E= -99.7180504797360     Delta-E=        0.000000000001 Rises=F Damp=F
 DIIS: error= 1.79D-08 at cycle  23 NSaved=   3.
 NSaved= 3 IEnMin= 1 EnMin= -99.7180504797371     IErMin= 3 ErrMin= 1.79D-08
 ErrMax= 1.79D-08  0.00D+00 EMaxC= 1.00D-01 BMatC= 6.18D-15 BMatP= 6.22D-15
 IDIUse=1 WtCom= 1.00D+00 WtEn= 0.00D+00
 Coeff-Com: -0.581D+00 0.105D+01 0.532D+00
 Coeff:     -0.581D+00 0.105D+01 0.532D+00
 Gap=     1.419 Goal=   None    Shift=    0.000
 Gap=     0.058 Goal=   None    Shift=    0.000
 RMSDP=5.38D-09 MaxDP=5.07D-08 DE= 6.25D-13 OVMax= 1.10D-07

 Density matrix breaks symmetry, PCut= 1.00D-04
 Density matrix has no symmetry -- integrals replicated.
 SCF Done:  E(UTPSS-TPSS) =  -99.7180504797     A.U. after   28 cycles
            NFock= 28  Conv=0.54D-08     -V/T= 2.0043
 <Sx>= 0.0000 <Sy>= 0.0000 <Sz>= 0.5000 <S**2>= 0.7510 S= 0.5005
 <L.S>= 0.000000000000E+00
 KE= 9.929277283801D+01 PE=-2.385737265879D+02 EE= 3.956290327011D+01
 Annihilation of the first spin contaminant:
 S**2 before annihilation     0.7510,   after     0.7500
 Leave Link  502 at Wed Oct  7 13:04:58 2020, MaxMem=  2684354560 cpu:              26.6 elap:               2.6
 (Enter /udrive/faculty/rpeverati/g16/g16/l508.exe)
 QCSCF skips out because SCF is already converged.
 Leave Link  508 at Wed Oct  7 13:04:58 2020, MaxMem=  2684354560 cpu:               0.3 elap:               0.3
 (Enter /udrive/faculty/rpeverati/g16/g16/l601.exe)
 Copying SCF densities to generalized density rwf, IOpCl= 1 IROHF=0.
 SCF density gives NOpUse=  1 NOpAll= 48.
 Marking SCF density as not fully symmetric.

 **********************************************************************

            Population analysis using the SCF density.

 **********************************************************************

 Orbital symmetries:
 Alpha Orbitals:
       Occupied  (A1G) (?A) (?B) (?B) (?B)
       Virtual   (?B) (?B) (?B) (?A) (?A) (?A) (?A) (?A) (?A)
 Beta  Orbitals:
       Occupied  (A1G) (?A) (?B) (?B)
       Virtual   (?B) (?B) (?B) (?B) (A1G) (?A) (?A) (?A) (?A)
                 (?A)
 Unable to determine electronic state:  an orbital has unidentified symmetry.
 Alpha  occ. eigenvalues --  -24.49926  -1.11968  -0.46831  -0.37485  -0.37485
 Alpha virt. eigenvalues --    1.04389   1.10133   1.10133   1.24242   1.72301
 Alpha virt. eigenvalues --    1.73744   1.73744   1.78583   1.78583
  Beta  occ. eigenvalues --  -24.46850  -1.04053  -0.34770  -0.34770
  Beta virt. eigenvalues --   -0.29018   1.12361   1.12361   1.15963   1.29580
  Beta virt. eigenvalues --    1.79364   1.79364   1.79756   1.79756   1.81535
          Condensed to atoms (all electrons):
               1
     1  F    9.000000
          Atomic-Atomic Spin Densities.
               1
     1  F    1.000000
 Mulliken charges and spin densities:
               1          2
     1  F   -0.000000   1.000000
 Sum of Mulliken charges =  -0.00000   1.00000
 Mulliken charges and spin densities with hydrogens summed into heavy atoms:
               1          2
     1  F   -0.000000   1.000000
 Electronic spatial extent (au):  <R**2>=              9.8962
 Charge=             -0.0000 electrons
 Dipole moment (field-independent basis, Debye):
    X=              0.0000    Y=             -0.0000    Z=              0.0000  Tot=              0.0000
 Quadrupole moment (field-independent basis, Debye-Ang):
   XX=             -4.7105   YY=             -4.7099   ZZ=             -3.8903
   XY=             -0.0000   XZ=             -0.0000   YZ=              0.0221
 Traceless Quadrupole moment (field-independent basis, Debye-Ang):
   XX=             -0.2736   YY=             -0.2730   ZZ=              0.5466
   XY=             -0.0000   XZ=             -0.0000   YZ=              0.0221
 Octapole moment (field-independent basis, Debye-Ang**2):
  XXX=              0.0000  YYY=             -0.0000  ZZZ=              0.0000  XYY=              0.0000
  XXY=             -0.0000  XXZ=              0.0000  XZZ=             -0.0000  YZZ=             -0.0000
  YYZ=             -0.0000  XYZ=              0.0000
 Hexadecapole moment (field-independent basis, Debye-Ang**3):
 XXXX=             -2.4868 YYYY=             -2.4864 ZZZZ=             -1.8142 XXXY=             -0.0000
 XXXZ=             -0.0000 YYYX=             -0.0000 YYYZ=              0.0090 ZZZX=             -0.0000
 ZZZY=              0.0090 XXYY=             -0.8289 XXZZ=             -0.7168 YYZZ=             -0.7167
 XXYZ=              0.0030 YYXZ=             -0.0000 ZZXY=             -0.0000
 N-N= 0.000000000000D+00 E-N=-2.385737265817D+02  KE= 9.929277283801D+01
                          Isotropic Fermi Contact Couplings
        Atom                 a.u.       MegaHertz       Gauss      10(-4) cm-1
     1  F(19)              0.16366     688.59679     245.70846     229.69116
 --------------------------------------------------------
       Center         ----  Spin Dipole Couplings  ----
                      3XX-RR        3YY-RR        3ZZ-RR
 --------------------------------------------------------
     1   Atom       -2.943023     -2.936645      5.879668
 --------------------------------------------------------
                        XY            XZ            YZ
 --------------------------------------------------------
     1   Atom        0.000000     -0.000000      0.237220
 --------------------------------------------------------


 ---------------------------------------------------------------------------------
              Anisotropic Spin Dipole Couplings in Principal Axis System
 ---------------------------------------------------------------------------------

       Atom             a.u.   MegaHertz   Gauss  10(-4) cm-1        Axes

              Baa    -2.9430 -1478.062  -527.409  -493.028  1.0000 -0.0000  0.0000
     1 F(19)  Bbb    -2.9430 -1478.062  -527.409  -493.028  0.0000  0.9996 -0.0269
              Bcc     5.8860  2956.123  1054.818   986.057  0.0000  0.0269  0.9996
 

 ---------------------------------------------------------------------------------

 No NMR shielding tensors so no spin-rotation constants.
 Leave Link  601 at Wed Oct  7 13:04:59 2020, MaxMem=  2684354560 cpu:               4.1 elap:               0.6
 (Enter /udrive/faculty/rpeverati/g16/g16/l801.exe)
 DoSCS=F DFT=T ScalE2(SS,OS)=  1.000000  1.000000
 Range of M.O.s used for correlation:     1    14
 NBasis=    14 NAE=     5 NBE=     4 NFC=     0 NFV=     0
 NROrb=     14 NOA=     5 NOB=     4 NVA=     9 NVB=    10

 **** Warning!!: The smallest beta delta epsilon is  0.57513416D-01

 Leave Link  801 at Wed Oct  7 13:05:00 2020, MaxMem=  2684354560 cpu:               1.3 elap:               0.4
 (Enter /udrive/faculty/rpeverati/g16/g16/l914.exe)
 UHF ground state
 Doing stability rather than CIS.
 Keep J ints in memory in symmetry-blocked form, NReq=11700571.
 FoFCou: FMM=F IPFlag=           0 FMFlag=           0 FMFlg1=           0
         NFxFlg=           0 DoJE=F BraDBF=F KetDBF=F FulRan=T
         wScrn=  0.000000 ICntrl=       600 IOpCl=  0 I1Cent=           0 NGrid=           0
         NMat0=    1 NMatS0=    105 NMatT0=    0 NMatD0=    1 NMtDS0=    0 NMtDT0=    0
 Petite list used in FoFCou.
 MDV=  2684354560 DFT=T DoStab=T Mixed=F DoRPA=F DoScal=F NonHer=F
 Making orbital integer symmetry assigments:
 Orbital symmetries:
 Alpha Orbitals:
       Occupied  (A1G) (?A) (?B) (?B) (?B)
       Virtual   (?B) (?B) (?B) (?A) (?A) (?A) (?A) (?A) (?A)
 Beta  Orbitals:
       Occupied  (A1G) (?A) (?B) (?B)
       Virtual   (?B) (?B) (?B) (?B) (A1G) (?A) (?A) (?A) (?A)
                 (?A)
    24 initial guesses have been made.
 Convergence on wavefunction:    0.001000000000000
 Davidson Disk Diagonalization:  ConvIn= 1.00D-03 SkipCon=T Conv= 1.00D-03.
 Max sub-space:   170 roots to seek:    24 dimension of matrix:           85
 Iteration     1 Dimension    24 NMult     0 NNew     24
 CISAX will form    24 AO SS matrices at one time.
 NMat=    24 NSing=    24 JSym2X= 2.
 Excitation Energies [eV] at current iteration:
 Root      1 :     0.085972923713767
 Root      2 :     0.085995098219248
 Root      3 :    23.315301217915870
 Root      4 :    33.452700458292360
 Root      5 :    35.319669693427340
 Root      6 :    35.319676545772200
 Root      7 :    36.496095564190720
 Root      8 :    36.496098314677130
 Root      9 :    38.453354390946760
 Root     10 :    38.960142525062050
 Root     11 :    38.960146846681570
 Root     12 :    39.361716956553070
 Root     13 :    39.361734139463100
 Root     14 :    40.036283614059560
 Root     15 :    40.168827629849200
 Root     16 :    41.204775559855160
 Root     17 :    41.205891615308850
 Root     18 :    41.926627673486580
 Root     19 :    41.926628902379680
 Root     20 :    45.987718287018660
 Root     21 :    45.995300778114410
 Root     22 :    46.095311232213000
 Root     23 :    56.589300470518050
 Root     24 :    73.086243563420650
 Iteration     2 Dimension    46 NMult    24 NNew     22
 CISAX will form    22 AO SS matrices at one time.
 NMat=    22 NSing=    22 JSym2X= 2.
 Root      1 not converged, maximum delta is    0.031067756671921
 Excitation Energies [eV] at current iteration:
 Root      1 :     0.000016832158738   Change is   -0.085956091555029
 Root      2 :     0.000039143353230   Change is   -0.085955954866018
 Root      3 :    20.981582196706780   Change is   -2.333719021209095
 Root      4 :    32.967590349226010   Change is   -0.485110109066343
 Root      5 :    35.318223479343100   Change is   -0.001446214084236
 Root      6 :    35.318230316971030   Change is   -0.001446228801164
 Root      7 :    36.489688321548970   Change is   -0.006407242641754
 Root      8 :    36.489691058971890   Change is   -0.006407255705250
 Root      9 :    38.401856649130120   Change is   -0.051497741816629
 Root     10 :    38.935806676654140   Change is   -0.024335848407911
 Root     11 :    38.935810929315640   Change is   -0.024335917365938
 Root     12 :    39.349663151418820   Change is   -0.012053805134247
 Root     13 :    39.349680239668210   Change is   -0.012053899794891
 Root     14 :    40.036283614059530   Change is   -0.000000000000036
 Root     15 :    40.168827629849200   Change is    0.000000000000000
 Root     16 :    40.639113403837790   Change is   -0.565662156017370
 Root     17 :    40.639599456031190   Change is   -0.566292159277661
 Root     18 :    41.917179527200600   Change is   -0.009448146285971
 Root     19 :    41.917180688989500   Change is   -0.009448213390173
 Root     20 :    45.539493765337210   Change is   -0.555817466875781
 Root     21 :    45.795524005425480   Change is   -0.192194281593181
 Root     22 :    45.816194868339060   Change is   -0.179105909775348
 Root     23 :    54.773380722710770   Change is   -1.815919747807280
 Root     24 :    54.923434511728750   Change is  -18.162809051691900
 Iteration     3 Dimension    47 NMult    46 NNew      1
 CISAX will form     1 AO SS matrices at one time.
 NMat=     1 NSing=     1 JSym2X= 2.
 Root      1 has converged.
 Excitation Energies [eV] at current iteration:
 Root      1 :     0.000016832158629   Change is   -0.000000000000109
 Root      2 :     0.000039143353327   Change is    0.000000000000097
 Root      3 :    20.954402255101390   Change is   -0.027179941605389
 Convergence achieved on expansion vectors.
 ***********************************************************************
 Stability analysis using <AA,BB:AA,BB> singles matrix:
 ***********************************************************************
 1PDM for each excited state written to RWF  633
 Ground to excited state transition densities written to RWF  633

 Eigenvectors of the stability matrix:
 
 Excited state symmetry could not be determined.
 Eigenvector   1:  2.003-?Sym  Eigenvalue= 0.0000006  <S**2>=0.753
      4B ->  5B        0.99870
 The wavefunction is stable under the perturbations considered.
 Leave Link  914 at Wed Oct  7 13:05:01 2020, MaxMem=  2684354560 cpu:              13.3 elap:               1.5
 (Enter /udrive/faculty/rpeverati/g16/g16/l508.exe)
 The wavefunction is already stable.
 Leave Link  508 at Wed Oct  7 13:05:02 2020, MaxMem=  2684354560 cpu:               0.6 elap:               0.4
 (Enter /udrive/faculty/rpeverati/g16/g16/l601.exe)
 Copying SCF densities to generalized density rwf, IOpCl= 1 IROHF=0.
 SCF density gives NOpUse=  1 NOpAll= 48.
 Marking SCF density as not fully symmetric.

 **********************************************************************

            Population analysis using the SCF density.

 **********************************************************************

 Orbital symmetries:
 Alpha Orbitals:
       Occupied  (A1G) (?A) (?B) (?B) (?B)
       Virtual   (?B) (?B) (?B) (?A) (?A) (?A) (?A) (?A) (?A)
 Beta  Orbitals:
       Occupied  (A1G) (?A) (?B) (?B)
       Virtual   (?B) (?B) (?B) (?B) (A1G) (?A) (?A) (?A) (?A)
                 (?A)
 Unable to determine electronic state:  an orbital has unidentified symmetry.
 Alpha  occ. eigenvalues --  -24.49926  -1.11968  -0.46831  -0.37485  -0.37485
 Alpha virt. eigenvalues --    1.04389   1.10133   1.10133   1.24242   1.72301
 Alpha virt. eigenvalues --    1.73744   1.73744   1.78583   1.78583
  Beta  occ. eigenvalues --  -24.46850  -1.04053  -0.34770  -0.34770
  Beta virt. eigenvalues --   -0.29018   1.12361   1.12361   1.15963   1.29580
  Beta virt. eigenvalues --    1.79364   1.79364   1.79756   1.79756   1.81535
          Condensed to atoms (all electrons):
               1
     1  F    9.000000
          Atomic-Atomic Spin Densities.
               1
     1  F    1.000000
 Mulliken charges and spin densities:
               1          2
     1  F   -0.000000   1.000000
 Sum of Mulliken charges =  -0.00000   1.00000
 Mulliken charges and spin densities with hydrogens summed into heavy atoms:
               1          2
     1  F   -0.000000   1.000000
 Electronic spatial extent (au):  <R**2>=              9.8962
 Charge=             -0.0000 electrons
 Dipole moment (field-independent basis, Debye):
    X=              0.0000    Y=             -0.0000    Z=              0.0000  Tot=              0.0000
 Quadrupole moment (field-independent basis, Debye-Ang):
   XX=             -4.7105   YY=             -4.7099   ZZ=             -3.8903
   XY=             -0.0000   XZ=             -0.0000   YZ=              0.0221
 Traceless Quadrupole moment (field-independent basis, Debye-Ang):
   XX=             -0.2736   YY=             -0.2730   ZZ=              0.5466
   XY=             -0.0000   XZ=             -0.0000   YZ=              0.0221
 Octapole moment (field-independent basis, Debye-Ang**2):
  XXX=              0.0000  YYY=             -0.0000  ZZZ=              0.0000  XYY=              0.0000
  XXY=             -0.0000  XXZ=              0.0000  XZZ=             -0.0000  YZZ=             -0.0000
  YYZ=             -0.0000  XYZ=              0.0000
 Hexadecapole moment (field-independent basis, Debye-Ang**3):
 XXXX=             -2.4868 YYYY=             -2.4864 ZZZZ=             -1.8142 XXXY=             -0.0000
 XXXZ=             -0.0000 YYYX=             -0.0000 YYYZ=              0.0090 ZZZX=             -0.0000
 ZZZY=              0.0090 XXYY=             -0.8289 XXZZ=             -0.7168 YYZZ=             -0.7167
 XXYZ=              0.0030 YYXZ=             -0.0000 ZZXY=             -0.0000
 N-N= 0.000000000000D+00 E-N=-2.385737265817D+02  KE= 9.929277283801D+01
                          Isotropic Fermi Contact Couplings
        Atom                 a.u.       MegaHertz       Gauss      10(-4) cm-1
     1  F(19)              0.16366     688.59679     245.70846     229.69116
 --------------------------------------------------------
       Center         ----  Spin Dipole Couplings  ----
                      3XX-RR        3YY-RR        3ZZ-RR
 --------------------------------------------------------
     1   Atom       -2.943023     -2.936645      5.879668
 --------------------------------------------------------
                        XY            XZ            YZ
 --------------------------------------------------------
     1   Atom        0.000000     -0.000000      0.237220
 --------------------------------------------------------


 ---------------------------------------------------------------------------------
              Anisotropic Spin Dipole Couplings in Principal Axis System
 ---------------------------------------------------------------------------------

       Atom             a.u.   MegaHertz   Gauss  10(-4) cm-1        Axes

              Baa    -2.9430 -1478.062  -527.409  -493.028  1.0000 -0.0000  0.0000
     1 F(19)  Bbb    -2.9430 -1478.062  -527.409  -493.028  0.0000  0.9996 -0.0269
              Bcc     5.8860  2956.123  1054.818   986.057  0.0000  0.0269  0.9996
 

 ---------------------------------------------------------------------------------

 No NMR shielding tensors so no spin-rotation constants.
 Leave Link  601 at Wed Oct  7 13:05:03 2020, MaxMem=  2684354560 cpu:               4.1 elap:               0.6
 (Enter /udrive/faculty/rpeverati/g16/g16/l9999.exe)

 Test job not archived.
 1\1\GINC-NODE59\Stability\UTPSSTPSS\6-31G(d)\F1(2)\RPEVERATI\07-Oct-20
 20\0\\#P TPSSTPSS/6-31G* 5D 7F Integral=UltraFineGrid SCF=(NoSymm,XQC,
 MaxCyc=120) EmpiricalDispersion=GD3BJ IOp(1/33=1) Stable=Opt\\TS searc
 h on BH76.\\0,2\F,0,0.,0.,0.\\Version=ES64L-G16RevA.03\HF=-99.7180505\
 S2=0.751021\S2-1=0.\S2A=0.75\RMSD=5.384e-09\Dipole=0.,0.,0.\Quadrupole
 =0.406365,-0.2029621,-0.2034029,0.0163951,0.,0.\PG=OH [O(F1)]\\@


 EXPERIENCE IS THE FRUIT OF THE TREE OF ERRORS.
 Job cpu time:       0 days  0 hours  1 minutes 10.6 seconds.
 Elapsed time:       0 days  0 hours  0 minutes 10.6 seconds.
 File lengths (MBytes):  RWF=      5 Int=      0 D2E=      0 Chk=      1 Scr=      1
 Normal termination of Gaussian 16 at Wed Oct  7 13:05:04 2020.
