 Entering Gaussian System, Link 0=g16
 Input=MN_49_hcnts_BH76_TPSSDBJ_631Gs.in
 Output=MN_49_hcnts_BH76_TPSSDBJ_631Gs.log
 Initial command:
 /udrive/faculty/rpeverati/g16/g16/l1.exe "/udrive/scratch-directories/gaussian09/rpeverati/Gau-5067.inp" -scrdir="/udrive/scratch-directories/gaussian09/rpeverati/"
 Entering Link 1 = /udrive/faculty/rpeverati/g16/g16/l1.exe PID=      5089.
  
 Copyright (c) 1988,1990,1992,1993,1995,1998,2003,2009,2016,
            Gaussian, Inc.  All Rights Reserved.
  
 This is part of the Gaussian(R) 16 program.  It is based on
 the Gaussian(R) 09 system (copyright 2009, Gaussian, Inc.),
 the Gaussian(R) 03 system (copyright 2003, Gaussian, Inc.),
 the Gaussian(R) 98 system (copyright 1998, Gaussian, Inc.),
 the Gaussian(R) 94 system (copyright 1995, Gaussian, Inc.),
 the Gaussian 92(TM) system (copyright 1992, Gaussian, Inc.),
 the Gaussian 90(TM) system (copyright 1990, Gaussian, Inc.),
 the Gaussian 88(TM) system (copyright 1988, Gaussian, Inc.),
 the Gaussian 86(TM) system (copyright 1986, Carnegie Mellon
 University), and the Gaussian 82(TM) system (copyright 1983,
 Carnegie Mellon University). Gaussian is a federally registered
 trademark of Gaussian, Inc.
  
 This software contains proprietary and confidential information,
 including trade secrets, belonging to Gaussian, Inc.
  
 This software is provided under written license and may be
 used, copied, transmitted, or stored only in accord with that
 written license.
  
 The following legend is applicable only to US Government
 contracts under FAR:
  
                    RESTRICTED RIGHTS LEGEND
  
 Use, reproduction and disclosure by the US Government is
 subject to restrictions as set forth in subparagraphs (a)
 and (c) of the Commercial Computer Software - Restricted
 Rights clause in FAR 52.227-19.
  
 Gaussian, Inc.
 340 Quinnipiac St., Bldg. 40, Wallingford CT 06492
  
  
 ---------------------------------------------------------------
 Warning -- This program may not be used in any manner that
 competes with the business of Gaussian, Inc. or will provide
 assistance to any competitor of Gaussian, Inc.  The licensee
 of this program is prohibited from giving any competitor of
 Gaussian, Inc. access to this program.  By using this program,
 the user acknowledges that Gaussian, Inc. is engaged in the
 business of creating and licensing software in the field of
 computational chemistry and represents and warrants to the
 licensee that it is not a competitor of Gaussian, Inc. and that
 it will not use this program in any manner prohibited above.
 ---------------------------------------------------------------
  

 Cite this work as:
 Gaussian 16, Revision A.03,
 M. J. Frisch, G. W. Trucks, H. B. Schlegel, G. E. Scuseria, 
 M. A. Robb, J. R. Cheeseman, G. Scalmani, V. Barone, 
 G. A. Petersson, H. Nakatsuji, X. Li, M. Caricato, A. V. Marenich, 
 J. Bloino, B. G. Janesko, R. Gomperts, B. Mennucci, H. P. Hratchian, 
 J. V. Ortiz, A. F. Izmaylov, J. L. Sonnenberg, D. Williams-Young, 
 F. Ding, F. Lipparini, F. Egidi, J. Goings, B. Peng, A. Petrone, 
 T. Henderson, D. Ranasinghe, V. G. Zakrzewski, J. Gao, N. Rega, 
 G. Zheng, W. Liang, M. Hada, M. Ehara, K. Toyota, R. Fukuda, 
 J. Hasegawa, M. Ishida, T. Nakajima, Y. Honda, O. Kitao, H. Nakai, 
 T. Vreven, K. Throssell, J. A. Montgomery, Jr., J. E. Peralta, 
 F. Ogliaro, M. J. Bearpark, J. J. Heyd, E. N. Brothers, K. N. Kudin, 
 V. N. Staroverov, T. A. Keith, R. Kobayashi, J. Normand, 
 K. Raghavachari, A. P. Rendell, J. C. Burant, S. S. Iyengar, 
 J. Tomasi, M. Cossi, J. M. Millam, M. Klene, C. Adamo, R. Cammi, 
 J. W. Ochterski, R. L. Martin, K. Morokuma, O. Farkas, 
 J. B. Foresman, and D. J. Fox, Gaussian, Inc., Wallingford CT, 2016.
 
 ******************************************
 Gaussian 16:  ES64L-G16RevA.03 25-Dec-2016
                 7-Oct-2020 
 ******************************************
 %NoSave
 %nproc=12
 Will use up to   12 processors via shared memory.
 %mem=20GB
 %chk=MN_49_hcnts_BH76_TPSSDBJ_631Gs
 ----------------------------------------------------------------------
 #P Opt(TS,MaxCyc=50,NoEigenTest,MaxStep=10,AddRedundant) TPSSTPSS/6-31
 G* 5D 7F Integral=UltraFineGrid SCF=(NoSymm,XQC,MaxCyc=120) EmpiricalD
 ispersion=GD3BJ IOp(1/33=1)
 ----------------------------------------------------------------------
 1/5=1,6=50,8=10,11=1,18=120,26=4,33=1,38=1/1,3;
 2/9=110,12=2,17=6,18=5,40=1/2;
 3/5=1,6=6,7=1,8=11,11=2,25=1,30=1,71=1,74=2523,75=-5,124=41/1,2,3;
 4/9=2/1;
 5/5=2,7=120,8=3,13=1,38=5/2,8;
 6/7=2,8=2,9=2,10=2,28=1/1;
 7//1,2,3,16;
 1/5=1,6=50,8=10,11=1,18=20,26=4,33=1/3(2);
 2/9=110/2;
 99//99;
 2/9=110/2;
 3/5=1,6=6,7=1,8=11,11=2,25=1,30=1,71=1,74=2523,75=-5,124=41/1,2,3;
 4/5=5,9=2,16=3,69=1/1;
 5/5=2,7=120,8=3,13=1,38=5/2,8;
 7//1,2,3,16;
 1/5=1,6=50,8=10,11=1,18=20,26=4,33=1/3(-5);
 2/9=110/2;
 6/7=2,8=2,9=2,10=2,19=2,28=1/1;
 99/9=1/99;
 Leave Link    1 at Wed Oct  7 13:05:29 2020, MaxMem=  2684354560 cpu:               6.4 elap:               0.7
 (Enter /udrive/faculty/rpeverati/g16/g16/l101.exe)
 ONIOM data not found on unit 2.
 ------------------
 TS search on BH76.
 ------------------
 TstMul:  ICh=     0
 TstMul:  Mul=     1
 TstMul:  ICh=     0
 TstMul:  Mul=     1
 Symbolic Z-matrix:
 Charge =  0 Multiplicity = 1
 C                     0.08032   0.62026   0. 
 N                     0.08032  -0.56809   0. 
 H                    -1.04415   0.25512   0. 
 
 RdStrC is calling ZToCFu for IStruc=1 NZ=     3.
 PrtBox:  NBox=     1 Levels=  1 BoxLen=    8.00 SMaxX=        2.25
          Shift=            1.973150            1.073540            0.000000
 Box      1 Number                   0 centers from      1 to      3:
 After GenITR:
 ITRead=  0  0  0
 MicOpt= -1 -1 -1
 The following ModRedundant input section has been read:
 
 ITRead=  0  0  0
 MicOpt= -1 -1 -1
 NAtoms=      3 NQM=        3 NQMF=       0 NMMI=      0 NMMIF=      0
                NMic=       0 NMicF=      0.
                    Isotopes and Nuclear Properties:
 (Nuclear quadrupole moments (NQMom) in fm**2, nuclear magnetic moments (NMagM)
  in nuclear magnetons)

  Atom         1           2           3
 IAtWgt=          12          14           1
 AtmWgt=  12.0000000  14.0030740   1.0078250
 NucSpn=           0           2           1
 AtZEff=   0.0000000   0.0000000   0.0000000
 NQMom=    0.0000000   2.0440000   0.0000000
 NMagM=    0.0000000   0.4037610   2.7928460
 AtZNuc=   6.0000000   7.0000000   1.0000000
 No MM parameters found.
 Leave Link  101 at Wed Oct  7 13:05:31 2020, MaxMem=  2684354560 cpu:               9.9 elap:               1.0
 (Enter /udrive/faculty/rpeverati/g16/g16/l103.exe)

 GradGradGradGradGradGradGradGradGradGradGradGradGradGradGradGradGradGrad
 Berny optimization.
 Optmz: redundant internal coordinate code flag= 1
 Initialization pass.
                           ----------------------------
                           !    Initial Parameters    !
                           ! (Angstroms and Degrees)  !
 --------------------------                            --------------------------
 ! Name  Definition              Value          Derivative Info.                !
 --------------------------------------------------------------------------------
 ! R1    R(1,2)                  1.1884         estimate D2E/DX2                !
 ! R2    R(1,3)                  1.1823         estimate D2E/DX2                !
 ! A1    A(2,1,3)               72.0103         estimate D2E/DX2                !
 --------------------------------------------------------------------------------
 Maximum allowed force set to 1.00D+20.
 Trust Radius=1.00D-01 FncErr=1.00D-07 GrdErr=1.00D-06 EigMax=2.50D+02 EigMin=1.00D-04
 Number of steps in this run=     50 maximum allowed number of steps=    100.
 Search for a saddle point of order  1.
 GradGradGradGradGradGradGradGradGradGradGradGradGradGradGradGradGradGrad

 Leave Link  103 at Wed Oct  7 13:05:32 2020, MaxMem=  2684354560 cpu:               1.4 elap:               0.6
 (Enter /udrive/faculty/rpeverati/g16/g16/l202.exe)
                          Input orientation:                          
 ---------------------------------------------------------------------
 Center     Atomic      Atomic             Coordinates (Angstroms)
 Number     Number       Type             X           Y           Z
 ---------------------------------------------------------------------
      1          6           0        0.080319    0.620259    0.000000
      2          7           0        0.080319   -0.568093    0.000000
      3          1           0       -1.044146    0.255121    0.000000
 ---------------------------------------------------------------------
                    Distance matrix (angstroms):
                    1          2          3
     1  C    0.000000
     2  N    1.188352   0.000000
     3  H    1.182264   1.393594   0.000000
 Stoichiometry    CHN
 Framework group  CS[SG(CHN)]
 Deg. of freedom     3
 Full point group                 CS      NOp   2
 Largest Abelian subgroup         CS      NOp   2
 Largest concise Abelian subgroup C1      NOp   1
                         Standard orientation:                         
 ---------------------------------------------------------------------
 Center     Atomic      Atomic             Coordinates (Angstroms)
 Number     Number       Type             X           Y           Z
 ---------------------------------------------------------------------
      1          6           0        0.080319    0.620257    0.000000
      2          7           0        0.080319   -0.568095    0.000000
      3          1           0       -1.044146    0.255119    0.000000
 ---------------------------------------------------------------------
 Rotational constants (GHZ):         415.7753317          54.8709834          48.4737702
 Leave Link  202 at Wed Oct  7 13:05:32 2020, MaxMem=  2684354560 cpu:               1.7 elap:               0.5
 (Enter /udrive/faculty/rpeverati/g16/g16/l301.exe)
 Standard basis: 6-31G(d) (5D, 7F)
 Ernie: Thresh=  0.10000D-02 Tol=  0.10000D-05 Strict=F.
 There are    24 symmetry adapted cartesian basis functions of A'  symmetry.
 There are     8 symmetry adapted cartesian basis functions of A"  symmetry.
 There are    22 symmetry adapted basis functions of A'  symmetry.
 There are     8 symmetry adapted basis functions of A"  symmetry.
    30 basis functions,    60 primitive gaussians,    32 cartesian basis functions
     7 alpha electrons        7 beta electrons
       nuclear repulsion energy        24.0463711332 Hartrees.
 IExCor= 2523 DFT=T Ex=TPSS Corr=TPSS ExCW=0 ScaHFX=  0.000000
 ScaDFX=  1.000000  1.000000  1.000000  1.000000 ScalE2=  1.000000  1.000000
 IRadAn=      5 IRanWt=     -1 IRanGd=            0 ICorTp=0 IEmpDi=141
 NAtoms=    3 NActive=    3 NUniq=    3 SFac= 1.00D+00 NAtFMM=   60 NAOKFM=F Big=F
 Integral buffers will be    131072 words long.
 Raffenetti 2 integral format.
 Two-electron integral symmetry is turned on.
 R6Disp:  Grimme-D3(BJ) Dispersion energy=       -0.0010203276 Hartrees.
 Nuclear repulsion after empirical dispersion term =       24.0453508056 Hartrees.
 Leave Link  301 at Wed Oct  7 13:05:33 2020, MaxMem=  2684354560 cpu:               2.6 elap:               0.8
 (Enter /udrive/faculty/rpeverati/g16/g16/l302.exe)
 NPDir=0 NMtPBC=     1 NCelOv=     1 NCel=       1 NClECP=     1 NCelD=      1
         NCelK=      1 NCelE2=     1 NClLst=     1 CellRange=     0.0.
 One-electron integrals computed using PRISM.
 One-electron integral symmetry used in STVInt
 NBasis=    30 RedAO= T EigKep=  7.88D-03  NBF=    22     8
 NBsUse=    30 1.00D-06 EigRej= -1.00D+00 NBFU=    22     8
 Precomputing XC quadrature grid using
 IXCGrd= 4 IRadAn=           5 IRanWt=          -1 IRanGd=           0 AccXCQ= 0.00D+00.
 Generated NRdTot=       0 NPtTot=           0 NUsed=           0 NTot=          32
 NSgBfM=    32    32    32    32    32 MxSgAt=     3 MxSgA2=     3.
 Leave Link  302 at Wed Oct  7 13:05:35 2020, MaxMem=  2684354560 cpu:               4.6 elap:               0.9
 (Enter /udrive/faculty/rpeverati/g16/g16/l303.exe)
 DipDrv:  MaxL=1.
 Leave Link  303 at Wed Oct  7 13:05:35 2020, MaxMem=  2684354560 cpu:               2.1 elap:               0.5
 (Enter /udrive/faculty/rpeverati/g16/g16/l401.exe)
 SCF N**3 symmetry information disabled.
 ExpMin= 1.61D-01 ExpMax= 4.17D+03 ExpMxC= 6.27D+02 IAcc=3 IRadAn=         5 AccDes= 0.00D+00
 Harris functional with IExCor= 1009 and IRadAn=       5 diagonalized for initial guess.
 HarFok:  IExCor= 1009 AccDes= 0.00D+00 IRadAn=         5 IDoV= 1 UseB2=F ITyADJ=14
 ICtDFT=  3500011 ScaDFX=  1.000000  1.000000  1.000000  1.000000
 FoFCou: FMM=F IPFlag=           0 FMFlag=      100000 FMFlg1=           0
         NFxFlg=           0 DoJE=T BraDBF=F KetDBF=T FulRan=T
         wScrn=  0.000000 ICntrl=       500 IOpCl=  0 I1Cent=   200000004 NGrid=           0
         NMat0=    1 NMatS0=      1 NMatT0=    0 NMatD0=    1 NMtDS0=    0 NMtDT0=    0
 Petite list used in FoFCou.
 Harris En= -93.2370649853934    
 JPrj=0 DoOrth=F DoCkMO=F.
 Initial guess orbital symmetries:
       Occupied  (A') (A') (A') (A') (A') (A") (A')
       Virtual   (A') (A") (A') (A') (A") (A') (A') (A') (A') (A")
                 (A') (A') (A') (A") (A') (A") (A') (A") (A') (A')
                 (A') (A") (A')
 The electronic state of the initial guess is 1-A'.
 Leave Link  401 at Wed Oct  7 13:05:37 2020, MaxMem=  2684354560 cpu:               5.1 elap:               0.9
 (Enter /udrive/faculty/rpeverati/g16/g16/l502.exe)
 Keep J ints in memory in symmetry-blocked form, NReq=10468376.
 FoFCou: FMM=F IPFlag=           0 FMFlag=           0 FMFlg1=           0
         NFxFlg=           0 DoJE=F BraDBF=F KetDBF=F FulRan=T
         wScrn=  0.000000 ICntrl=       600 IOpCl=  0 I1Cent=           0 NGrid=           0
         NMat0=    1 NMatS0=    465 NMatT0=    0 NMatD0=    1 NMtDS0=    0 NMtDT0=    0
 Petite list used in FoFCou.
 Closed shell SCF:
 Using DIIS extrapolation, IDIIS=  1040.
 NGot=  2684354560 LenX=  2684292770 LenY=  2684291305
 Requested convergence on RMS density matrix=1.00D-08 within 120 cycles.
 Requested convergence on MAX density matrix=1.00D-06.
 Requested convergence on             energy=1.00D-06.
 No special actions if energy rises.
 Integral accuracy reduced to 1.0D-05 until final iterations.

 Cycle   1  Pass 0  IDiag  1:
 E= -93.3360770748938    
 DIIS: error= 2.43D-02 at cycle   1 NSaved=   1.
 NSaved= 1 IEnMin= 1 EnMin= -93.3360770748938     IErMin= 1 ErrMin= 2.43D-02
 ErrMax= 2.43D-02  0.00D+00 EMaxC= 1.00D-01 BMatC= 1.78D-02 BMatP= 1.78D-02
 IDIUse=3 WtCom= 7.57D-01 WtEn= 2.43D-01
 Coeff-Com:  0.100D+01
 Coeff-En:   0.100D+01
 Coeff:      0.100D+01
 Gap=     0.186 Goal=   None    Shift=    0.000
 GapD=    0.186 DampG=1.000 DampE=0.500 DampFc=0.5000 IDamp=-1.
 Damping current iteration by 5.00D-01
 RMSDP=9.38D-03 MaxDP=6.67D-02              OVMax= 1.16D-01

 Cycle   2  Pass 0  IDiag  1:
 E= -93.3456242296506     Delta-E=       -0.009547154757 Rises=F Damp=T
 DIIS: error= 5.41D-03 at cycle   2 NSaved=   2.
 NSaved= 2 IEnMin= 2 EnMin= -93.3456242296506     IErMin= 2 ErrMin= 5.41D-03
 ErrMax= 5.41D-03  0.00D+00 EMaxC= 1.00D-01 BMatC= 1.37D-03 BMatP= 1.78D-02
 IDIUse=3 WtCom= 9.46D-01 WtEn= 5.41D-02
 Coeff-Com: -0.135D-01 0.101D+01
 Coeff-En:   0.991D-02 0.990D+00
 Coeff:     -0.122D-01 0.101D+01
 Gap=     0.206 Goal=   None    Shift=    0.000
 RMSDP=2.71D-03 MaxDP=1.97D-02 DE=-9.55D-03 OVMax= 6.53D-02

 Cycle   3  Pass 0  IDiag  1:
 E= -93.3512713225181     Delta-E=       -0.005647092867 Rises=F Damp=F
 DIIS: error= 1.77D-02 at cycle   3 NSaved=   3.
 NSaved= 3 IEnMin= 3 EnMin= -93.3512713225181     IErMin= 2 ErrMin= 5.41D-03
 ErrMax= 1.77D-02  0.00D+00 EMaxC= 1.00D-01 BMatC= 5.38D-03 BMatP= 1.37D-03
 IDIUse=2 WtCom= 0.00D+00 WtEn= 1.00D+00
 Coeff-En:   0.000D+00 0.874D-01 0.913D+00
 Coeff:      0.000D+00 0.874D-01 0.913D+00
 Gap=     0.184 Goal=   None    Shift=    0.000
 RMSDP=6.86D-03 MaxDP=5.98D-02 DE=-5.65D-03 OVMax= 1.00D-01

 Cycle   4  Pass 0  IDiag  1:
 E= -93.3136023889667     Delta-E=        0.037668933551 Rises=F Damp=F
 DIIS: error= 4.94D-02 at cycle   4 NSaved=   4.
 NSaved= 4 IEnMin= 3 EnMin= -93.3512713225181     IErMin= 2 ErrMin= 5.41D-03
 ErrMax= 4.94D-02  0.00D+00 EMaxC= 1.00D-01 BMatC= 4.55D-02 BMatP= 1.37D-03
 IDIUse=2 WtCom= 0.00D+00 WtEn= 1.00D+00
 Coeff-En:   0.000D+00 0.000D+00 0.818D+00 0.182D+00
 Coeff:      0.000D+00 0.000D+00 0.818D+00 0.182D+00
 Gap=     0.194 Goal=   None    Shift=    0.000
 RMSDP=3.45D-03 MaxDP=3.01D-02 DE= 3.77D-02 OVMax= 4.98D-02

 Cycle   5  Pass 0  IDiag  1:
 E= -93.3519995233208     Delta-E=       -0.038397134354 Rises=F Damp=F
 DIIS: error= 1.63D-02 at cycle   5 NSaved=   5.
 NSaved= 5 IEnMin= 5 EnMin= -93.3519995233208     IErMin= 2 ErrMin= 5.41D-03
 ErrMax= 1.63D-02  0.00D+00 EMaxC= 1.00D-01 BMatC= 4.70D-03 BMatP= 1.37D-03
 IDIUse=2 WtCom= 0.00D+00 WtEn= 1.00D+00
 Coeff-En:   0.000D+00 0.000D+00 0.475D+00 0.000D+00 0.525D+00
 Coeff:      0.000D+00 0.000D+00 0.475D+00 0.000D+00 0.525D+00
 Gap=     0.200 Goal=   None    Shift=    0.000
 RMSDP=1.71D-03 MaxDP=1.52D-02 DE=-3.84D-02 OVMax= 2.59D-02

 Cycle   6  Pass 0  IDiag  1:
 E= -93.3564379079951     Delta-E=       -0.004438384674 Rises=F Damp=F
 DIIS: error= 8.97D-04 at cycle   6 NSaved=   6.
 NSaved= 6 IEnMin= 6 EnMin= -93.3564379079951     IErMin= 6 ErrMin= 8.97D-04
 ErrMax= 8.97D-04  0.00D+00 EMaxC= 1.00D-01 BMatC= 1.46D-05 BMatP= 1.37D-03
 IDIUse=3 WtCom= 9.91D-01 WtEn= 8.97D-03
 Coeff-Com:  0.248D-02-0.101D-02 0.242D+00-0.811D-01 0.526D+00 0.312D+00
 Coeff-En:   0.000D+00 0.000D+00 0.000D+00 0.000D+00 0.000D+00 0.100D+01
 Coeff:      0.245D-02-0.100D-02 0.239D+00-0.803D-01 0.521D+00 0.318D+00
 Gap=     0.200 Goal=   None    Shift=    0.000
 RMSDP=9.52D-05 MaxDP=9.03D-04 DE=-4.44D-03 OVMax= 1.62D-03

 Cycle   7  Pass 0  IDiag  1:
 E= -93.3564511092605     Delta-E=       -0.000013201265 Rises=F Damp=F
 DIIS: error= 1.32D-04 at cycle   7 NSaved=   7.
 NSaved= 7 IEnMin= 7 EnMin= -93.3564511092605     IErMin= 7 ErrMin= 1.32D-04
 ErrMax= 1.32D-04  0.00D+00 EMaxC= 1.00D-01 BMatC= 3.06D-07 BMatP= 1.46D-05
 IDIUse=3 WtCom= 9.99D-01 WtEn= 1.32D-03
 Coeff-Com:  0.363D-03-0.470D-03 0.437D-01-0.156D-01 0.969D-01 0.137D+00
 Coeff-Com:  0.738D+00
 Coeff-En:   0.000D+00 0.000D+00 0.000D+00 0.000D+00 0.000D+00 0.000D+00
 Coeff-En:   0.100D+01
 Coeff:      0.363D-03-0.469D-03 0.436D-01-0.156D-01 0.968D-01 0.137D+00
 Coeff:      0.738D+00
 Gap=     0.200 Goal=   None    Shift=    0.000
 RMSDP=1.40D-05 MaxDP=9.76D-05 DE=-1.32D-05 OVMax= 2.19D-04

 Cycle   8  Pass 0  IDiag  1:
 E= -93.3564514173156     Delta-E=       -0.000000308055 Rises=F Damp=F
 DIIS: error= 5.73D-06 at cycle   8 NSaved=   8.
 NSaved= 8 IEnMin= 8 EnMin= -93.3564514173156     IErMin= 8 ErrMin= 5.73D-06
 ErrMax= 5.73D-06  0.00D+00 EMaxC= 1.00D-01 BMatC= 1.05D-09 BMatP= 3.06D-07
 IDIUse=1 WtCom= 1.00D+00 WtEn= 0.00D+00
 Coeff-Com:  0.155D-04-0.723D-04 0.446D-02-0.152D-02 0.954D-02 0.313D-01
 Coeff-Com:  0.180D+00 0.776D+00
 Coeff:      0.155D-04-0.723D-04 0.446D-02-0.152D-02 0.954D-02 0.313D-01
 Coeff:      0.180D+00 0.776D+00
 Gap=     0.200 Goal=   None    Shift=    0.000
 RMSDP=1.15D-06 MaxDP=6.71D-06 DE=-3.08D-07 OVMax= 1.69D-05

 Initial convergence to 1.0D-05 achieved.  Increase integral accuracy.
 Cycle   9  Pass 1  IDiag  1:
 E= -93.3564508871384     Delta-E=        0.000000530177 Rises=F Damp=F
 DIIS: error= 6.24D-07 at cycle   1 NSaved=   1.
 NSaved= 1 IEnMin= 1 EnMin= -93.3564508871384     IErMin= 1 ErrMin= 6.24D-07
 ErrMax= 6.24D-07  0.00D+00 EMaxC= 1.00D-01 BMatC= 2.17D-11 BMatP= 2.17D-11
 IDIUse=1 WtCom= 1.00D+00 WtEn= 0.00D+00
 Coeff-Com:  0.100D+01
 Coeff:      0.100D+01
 Gap=     0.200 Goal=   None    Shift=    0.000
 RMSDP=1.15D-06 MaxDP=6.71D-06 DE= 5.30D-07 OVMax= 2.54D-06

 Cycle  10  Pass 1  IDiag  1:
 E= -93.3564508871466     Delta-E=       -0.000000000008 Rises=F Damp=F
 DIIS: error= 8.19D-07 at cycle   2 NSaved=   2.
 NSaved= 2 IEnMin= 2 EnMin= -93.3564508871466     IErMin= 1 ErrMin= 6.24D-07
 ErrMax= 8.19D-07  0.00D+00 EMaxC= 1.00D-01 BMatC= 1.26D-11 BMatP= 2.17D-11
 IDIUse=1 WtCom= 1.00D+00 WtEn= 0.00D+00
 Coeff-Com:  0.394D+00 0.606D+00
 Coeff:      0.394D+00 0.606D+00
 Gap=     0.200 Goal=   None    Shift=    0.000
 RMSDP=1.87D-07 MaxDP=1.93D-06 DE=-8.27D-12 OVMax= 3.17D-06

 Cycle  11  Pass 1  IDiag  1:
 E= -93.3564508871338     Delta-E=        0.000000000013 Rises=F Damp=F
 DIIS: error= 1.25D-06 at cycle   3 NSaved=   3.
 NSaved= 3 IEnMin= 2 EnMin= -93.3564508871466     IErMin= 1 ErrMin= 6.24D-07
 ErrMax= 1.25D-06  0.00D+00 EMaxC= 1.00D-01 BMatC= 2.72D-11 BMatP= 1.26D-11
 IDIUse=1 WtCom= 1.00D+00 WtEn= 0.00D+00
 Coeff-Com:  0.543D-01 0.571D+00 0.375D+00
 Coeff:      0.543D-01 0.571D+00 0.375D+00
 Gap=     0.200 Goal=   None    Shift=    0.000
 RMSDP=1.30D-07 MaxDP=1.17D-06 DE= 1.29D-11 OVMax= 2.02D-06

 Cycle  12  Pass 1  IDiag  1:
 E= -93.3564508871587     Delta-E=       -0.000000000025 Rises=F Damp=F
 DIIS: error= 7.49D-08 at cycle   4 NSaved=   4.
 NSaved= 4 IEnMin= 4 EnMin= -93.3564508871587     IErMin= 4 ErrMin= 7.49D-08
 ErrMax= 7.49D-08  0.00D+00 EMaxC= 1.00D-01 BMatC= 3.05D-13 BMatP= 1.26D-11
 IDIUse=1 WtCom= 1.00D+00 WtEn= 0.00D+00
 Coeff-Com:  0.614D-02 0.267D+00 0.200D+00 0.527D+00
 Coeff:      0.614D-02 0.267D+00 0.200D+00 0.527D+00
 Gap=     0.200 Goal=   None    Shift=    0.000
 RMSDP=2.47D-08 MaxDP=1.92D-07 DE=-2.50D-11 OVMax= 3.03D-07

 Cycle  13  Pass 1  IDiag  1:
 E= -93.3564508871590     Delta-E=       -0.000000000000 Rises=F Damp=F
 DIIS: error= 1.26D-08 at cycle   5 NSaved=   5.
 NSaved= 5 IEnMin= 5 EnMin= -93.3564508871590     IErMin= 5 ErrMin= 1.26D-08
 ErrMax= 1.26D-08  0.00D+00 EMaxC= 1.00D-01 BMatC= 4.83D-15 BMatP= 3.05D-13
 IDIUse=1 WtCom= 1.00D+00 WtEn= 0.00D+00
 Coeff-Com: -0.153D-02 0.635D-01 0.449D-01 0.168D+00 0.725D+00
 Coeff:     -0.153D-02 0.635D-01 0.449D-01 0.168D+00 0.725D+00
 Gap=     0.200 Goal=   None    Shift=    0.000
 RMSDP=2.43D-09 MaxDP=1.90D-08 DE=-3.13D-13 OVMax= 4.32D-08

 SCF Done:  E(RTPSS-TPSS) =  -93.3564508872     A.U. after   13 cycles
            NFock= 13  Conv=0.24D-08     -V/T= 2.0057
 KE= 9.282957168398D+01 PE=-2.656326321537D+02 EE= 5.540125877696D+01
 Leave Link  502 at Wed Oct  7 13:05:39 2020, MaxMem=  2684354560 cpu:              15.0 elap:               1.7
 (Enter /udrive/faculty/rpeverati/g16/g16/l508.exe)
 QCSCF skips out because SCF is already converged.
 Leave Link  508 at Wed Oct  7 13:05:39 2020, MaxMem=  2684354560 cpu:               0.6 elap:               0.4
 (Enter /udrive/faculty/rpeverati/g16/g16/l601.exe)
 Copying SCF densities to generalized density rwf, IOpCl= 0 IROHF=0.

 **********************************************************************

            Population analysis using the SCF density.

 **********************************************************************

 Orbital symmetries:
       Occupied  (A') (A') (A') (A') (A') (A") (A')
       Virtual   (A') (A") (A') (A') (A") (A') (A') (A') (A') (A")
                 (A') (A') (A') (A") (A') (A") (A') (A") (A') (A')
                 (A') (A") (A')
 The electronic state is 1-A'.
 Alpha  occ. eigenvalues --  -14.18513 -10.05383  -0.91878  -0.48532  -0.40505
 Alpha  occ. eigenvalues --   -0.34360  -0.29046
 Alpha virt. eigenvalues --   -0.09087  -0.01997   0.04626   0.30191   0.50967
 Alpha virt. eigenvalues --    0.51479   0.55314   0.64739   0.68829   0.71812
 Alpha virt. eigenvalues --    0.75074   0.81311   1.23495   1.43197   1.45250
 Alpha virt. eigenvalues --    1.47123   1.74149   1.85401   1.94822   2.29236
 Alpha virt. eigenvalues --    2.48462   2.50558   2.80360
          Condensed to atoms (all electrons):
               1          2          3
     1  C    5.421149   0.405238   0.223156
     2  N    0.405238   6.768052   0.044400
     3  H    0.223156   0.044400   0.465212
 Mulliken charges:
               1
     1  C   -0.049543
     2  N   -0.217690
     3  H    0.267232
 Sum of Mulliken charges =  -0.00000
 Mulliken charges with hydrogens summed into heavy atoms:
               1
     1  C    0.217690
     2  N   -0.217690
 Electronic spatial extent (au):  <R**2>=             46.9053
 Charge=             -0.0000 electrons
 Dipole moment (field-independent basis, Debye):
    X=             -1.2266    Y=              0.1329    Z=              0.0000  Tot=              1.2338
 Quadrupole moment (field-independent basis, Debye-Ang):
   XX=             -9.4409   YY=            -14.0166   ZZ=            -11.7413
   XY=             -0.2972   XZ=              0.0000   YZ=              0.0000
 Traceless Quadrupole moment (field-independent basis, Debye-Ang):
   XX=              2.2920   YY=             -2.2837   ZZ=             -0.0083
   XY=             -0.2972   XZ=              0.0000   YZ=              0.0000
 Octapole moment (field-independent basis, Debye-Ang**2):
  XXX=             -2.0750  YYY=             -2.6926  ZZZ=              0.0000  XYY=             -0.1605
  XXY=             -0.4375  XXZ=              0.0000  XZZ=             -0.2112  YZZ=             -0.5459
  YYZ=              0.0000  XYZ=              0.0000
 Hexadecapole moment (field-independent basis, Debye-Ang**3):
 XXXX=            -11.9451 YYYY=            -40.5736 ZZZZ=            -10.7503 XXXY=             -0.0327
 XXXZ=              0.0000 YYYX=              0.4559 YYYZ=              0.0000 ZZZX=              0.0000
 ZZZY=              0.0000 XXYY=             -8.4801 XXZZ=             -4.1528 YYZZ=             -8.0640
 XXYZ=              0.0000 YYXZ=              0.0000 ZZXY=              0.1455
 N-N= 2.404535080560D+01 E-N=-2.656326321019D+02  KE= 9.282957168398D+01
 No NMR shielding tensors so no spin-rotation constants.
 Leave Link  601 at Wed Oct  7 13:05:40 2020, MaxMem=  2684354560 cpu:               3.2 elap:               0.6
 (Enter /udrive/faculty/rpeverati/g16/g16/l701.exe)
 ... and contract with generalized density number  0.
 Compute integral first derivatives.
 R6Disp: Adding Grimme-D3(BJ) dispersion energy 1st derivatives to the gradient.
 Leave Link  701 at Wed Oct  7 13:05:41 2020, MaxMem=  2684354560 cpu:               3.9 elap:               0.6
 (Enter /udrive/faculty/rpeverati/g16/g16/l702.exe)
 L702 exits ... SP integral derivatives will be done elsewhere.
 Leave Link  702 at Wed Oct  7 13:05:42 2020, MaxMem=  2684354560 cpu:               1.6 elap:               0.5
 (Enter /udrive/faculty/rpeverati/g16/g16/l703.exe)
 Integral derivatives from FoFJK, PRISM(SPDF).
 Compute integral first derivatives, UseDBF=F ICtDFT=           0.
 Calling FoFJK, ICntrl=      2527 FMM=F ISym2X=1 I1Cent= 0 IOpClX= 0 NMat=1 NMatS=1 NMatT=0.
 FoFJK:  IHMeth= 1 ICntrl=    2527 DoSepK=F KAlg= 0 I1Cent=           0 FoldK=F
 IRaf=         0 NMat=       1 IRICut=       1 DoRegI=T DoRafI=F ISym2E= 1 IDoP0=0 IntGTp=1.
 FoFCou: FMM=F IPFlag=           0 FMFlag=      100000 FMFlg1=         800
         NFxFlg=           0 DoJE=F BraDBF=F KetDBF=F FulRan=T
         wScrn=  0.000000 ICntrl=      2527 IOpCl=  0 I1Cent=           0 NGrid=           0
         NMat0=    1 NMatS0=      1 NMatT0=    0 NMatD0=    1 NMtDS0=    0 NMtDT0=    0
 Petite list used in FoFCou.
 Leave Link  703 at Wed Oct  7 13:05:43 2020, MaxMem=  2684354560 cpu:               5.4 elap:               0.8
 (Enter /udrive/faculty/rpeverati/g16/g16/l716.exe)
 Dipole        =-4.82597764D-01 5.22771399D-02 0.00000000D+00
 ***** Axes restored to original set *****
 -------------------------------------------------------------------
 Center     Atomic                   Forces (Hartrees/Bohr)
 Number     Number              X              Y              Z
 -------------------------------------------------------------------
      1        6          -0.001386214    0.022821231   -0.000000000
      2        7           0.005138178   -0.027032755   -0.000000000
      3        1          -0.003751964    0.004211524   -0.000000000
 -------------------------------------------------------------------
 Cartesian Forces:  Max     0.027032755 RMS     0.012072536
 Leave Link  716 at Wed Oct  7 13:05:43 2020, MaxMem=  2684354560 cpu:               1.2 elap:               0.4
 (Enter /udrive/faculty/rpeverati/g16/g16/l103.exe)

 GradGradGradGradGradGradGradGradGradGradGradGradGradGradGradGradGradGrad
 Berny optimization.
 Optmz: redundant internal coordinate code flag= 1
 FormGI is forming the generalized inverse of G from B-inverse, IUseBI=4.
 Internal  Forces:  Max     0.027032818 RMS     0.017020081
 Search for a saddle point.
 Step number   1 out of a maximum of   50
 All quantities printed in internal units (Hartrees-Bohrs-Radians)
 Swapping is turned off.
 Second derivative matrix not updated -- first step.
 The second derivative matrix:
                          R1        R2        A1
           R1           1.10901
           R2           0.00000   0.26007
           A1           0.00000   0.00000   0.16000
 ITU=  0
 Eigenvectors of the second derivative matrix:
                           1         2         3
     Eigenvalues --     0.16000   0.26007   1.10901
   1         R1         0.00000   0.00000   1.00000
   2         R2         0.00000  -1.00000  -0.00000
   3         A1        -1.00000  -0.00000   0.00000
 Eigenvalue     1 is   1.60D-01 should be less than     0.000000 Eigenvector:
                          A1        R2        R1
   1                   -1.00000   0.00000   0.00000
 RLam0= 1.61D-01.
 Iter=   1 RLamda= 0.00000000D+00 Sum=-6.78718892D-04.
 Iter=   2 RLamda=-6.78718892D-04 Sum=-6.78264387D-04.
 Iter=   3 RLamda=-6.78264387D-04 Sum=-6.78264691D-04.
 RFO step:  Lambda0=1.608278011D-01 Lambda=-6.78264387D-04.
 Linear search not attempted -- option 19 set.
 Iteration  1 RMS(Cart)=  0.01882235 RMS(Int)=  0.00019141
 Iteration  2 RMS(Cart)=  0.00023396 RMS(Int)=  0.00000001
 Iteration  3 RMS(Cart)=  0.00000001 RMS(Int)=  0.00000000
 ITry= 1 IFail=0 DXMaxC= 1.96D-02 DCOld= 1.00D+10 DXMaxT= 1.00D-01 DXLimC= 3.00D+00 Rises=F
 ClnCor:  largest displacement from symmetrization is 1.37D-15 for atom     3.
 Variable       Old X    -DE/DX   Delta X   Delta X   Delta X     New X
                                 (Linear)    (Quad)   (Total)
    R1        2.24566   0.02703   0.00000   0.02436   0.02436   2.27002
    R2        2.23415   0.00227   0.00000   0.00870   0.00870   2.24285
    A1        1.25682   0.01154   0.00000  -0.02587  -0.02587   1.23095
         Item               Value     Threshold  Converged?
 Maximum Force            0.027033     0.000450     NO 
 RMS     Force            0.017020     0.000300     NO 
 Maximum Displacement     0.019620     0.001800     NO 
 RMS     Displacement     0.018964     0.001200     NO 
 Predicted change in Energy= 1.262819D-05
 Lowest energy point so far.  Saving SCF results.
 Largest change from initial coordinates is atom    1       0.009 Angstoms.
 GradGradGradGradGradGradGradGradGradGradGradGradGradGradGradGradGradGrad

 Leave Link  103 at Wed Oct  7 13:05:44 2020, MaxMem=  2684354560 cpu:               1.8 elap:               0.4
 (Enter /udrive/faculty/rpeverati/g16/g16/l202.exe)
                          Input orientation:                          
 ---------------------------------------------------------------------
 Center     Atomic      Atomic             Coordinates (Angstroms)
 Number     Number       Type             X           Y           Z
 ---------------------------------------------------------------------
      1          6           0        0.084247    0.630642    0.000000
      2          7           0        0.071210   -0.570531    0.000000
      3          1           0       -1.038965    0.247177    0.000000
 ---------------------------------------------------------------------
                    Distance matrix (angstroms):
                    1          2          3
     1  C    0.000000
     2  N    1.201243   0.000000
     3  H    1.186866   1.378816   0.000000
 Stoichiometry    CHN
 Framework group  CS[SG(CHN)]
 Deg. of freedom     3
 Full point group                 CS      NOp   2
 RotChk:  IX=0 Diff= 1.53D-02
 Largest Abelian subgroup         CS      NOp   2
 Largest concise Abelian subgroup C1      NOp   1
                         Standard orientation:                         
 ---------------------------------------------------------------------
 Center     Atomic      Atomic             Coordinates (Angstroms)
 Number     Number       Type             X           Y           Z
 ---------------------------------------------------------------------
      1          6           0        0.079927    0.628881    0.000000
      2          7           0        0.079927   -0.572362    0.000000
      3          1           0       -1.039057    0.233248    0.000000
 ---------------------------------------------------------------------
 Rotational constants (GHZ):         419.1432671          53.7912149          47.6730423
 Leave Link  202 at Wed Oct  7 13:05:45 2020, MaxMem=  2684354560 cpu:               1.2 elap:               0.4
 (Enter /udrive/faculty/rpeverati/g16/g16/l301.exe)
 Standard basis: 6-31G(d) (5D, 7F)
 Ernie: Thresh=  0.10000D-02 Tol=  0.10000D-05 Strict=F.
 There are    24 symmetry adapted cartesian basis functions of A'  symmetry.
 There are     8 symmetry adapted cartesian basis functions of A"  symmetry.
 There are    22 symmetry adapted basis functions of A'  symmetry.
 There are     8 symmetry adapted basis functions of A"  symmetry.
    30 basis functions,    60 primitive gaussians,    32 cartesian basis functions
     7 alpha electrons        7 beta electrons
       nuclear repulsion energy        23.8637360005 Hartrees.
 IExCor= 2523 DFT=T Ex=TPSS Corr=TPSS ExCW=0 ScaHFX=  0.000000
 ScaDFX=  1.000000  1.000000  1.000000  1.000000 ScalE2=  1.000000  1.000000
 IRadAn=      5 IRanWt=     -1 IRanGd=            0 ICorTp=0 IEmpDi=141
 NAtoms=    3 NActive=    3 NUniq=    3 SFac= 1.00D+00 NAtFMM=   60 NAOKFM=F Big=F
 Integral buffers will be    131072 words long.
 Raffenetti 2 integral format.
 Two-electron integral symmetry is turned on.
 R6Disp:  Grimme-D3(BJ) Dispersion energy=       -0.0010165057 Hartrees.
 Nuclear repulsion after empirical dispersion term =       23.8627194947 Hartrees.
 Leave Link  301 at Wed Oct  7 13:05:45 2020, MaxMem=  2684354560 cpu:               1.8 elap:               0.5
 (Enter /udrive/faculty/rpeverati/g16/g16/l302.exe)
 NPDir=0 NMtPBC=     1 NCelOv=     1 NCel=       1 NClECP=     1 NCelD=      1
         NCelK=      1 NCelE2=     1 NClLst=     1 CellRange=     0.0.
 One-electron integrals computed using PRISM.
 One-electron integral symmetry used in STVInt
 NBasis=    30 RedAO= T EigKep=  8.24D-03  NBF=    22     8
 NBsUse=    30 1.00D-06 EigRej= -1.00D+00 NBFU=    22     8
 Precomputing XC quadrature grid using
 IXCGrd= 4 IRadAn=           5 IRanWt=          -1 IRanGd=           0 AccXCQ= 0.00D+00.
 Generated NRdTot=       0 NPtTot=           0 NUsed=           0 NTot=          32
 NSgBfM=    32    32    32    32    32 MxSgAt=     3 MxSgA2=     3.
 Leave Link  302 at Wed Oct  7 13:05:46 2020, MaxMem=  2684354560 cpu:               3.9 elap:               0.6
 (Enter /udrive/faculty/rpeverati/g16/g16/l303.exe)
 DipDrv:  MaxL=1.
 Leave Link  303 at Wed Oct  7 13:05:47 2020, MaxMem=  2684354560 cpu:               1.1 elap:               0.4
 (Enter /udrive/faculty/rpeverati/g16/g16/l401.exe)
 Initial guess from the checkpoint file:  "MN_49_hcnts_BH76_TPSSDBJ_631Gs.chk"
 SCF N**3 symmetry information disabled.
 B after Tr=     0.000000   -0.000000    0.000000
         Rot=    0.999998    0.000000    0.000000   -0.001984 Ang=  -0.23 deg.
 Guess basis will be translated and rotated to current coordinates.
 JPrj=2 DoOrth=T DoCkMO=T.
 Initial guess orbital symmetries:
       Occupied  (A') (A') (A') (A') (A') (A") (A')
       Virtual   (A') (A") (A') (A') (A") (A') (A') (A') (A') (A")
                 (A') (A') (A') (A") (A') (A") (A') (A") (A') (A')
                 (A') (A") (A')
 The electronic state of the initial guess is 1-A'.
 Leave Link  401 at Wed Oct  7 13:05:48 2020, MaxMem=  2684354560 cpu:               2.5 elap:               0.5
 (Enter /udrive/faculty/rpeverati/g16/g16/l502.exe)
 Keep J ints in memory in symmetry-blocked form, NReq=10468376.
 FoFCou: FMM=F IPFlag=           0 FMFlag=           0 FMFlg1=           0
         NFxFlg=           0 DoJE=F BraDBF=F KetDBF=F FulRan=T
         wScrn=  0.000000 ICntrl=       600 IOpCl=  0 I1Cent=           0 NGrid=           0
         NMat0=    1 NMatS0=    465 NMatT0=    0 NMatD0=    1 NMtDS0=    0 NMtDT0=    0
 Petite list used in FoFCou.
 Closed shell SCF:
 Using DIIS extrapolation, IDIIS=  1040.
 NGot=  2684354560 LenX=  2684292770 LenY=  2684291305
 Requested convergence on RMS density matrix=1.00D-08 within 120 cycles.
 Requested convergence on MAX density matrix=1.00D-06.
 Requested convergence on             energy=1.00D-06.
 No special actions if energy rises.

 Cycle   1  Pass 1  IDiag  1:
 E= -93.3563938614636    
 DIIS: error= 1.35D-03 at cycle   1 NSaved=   1.
 NSaved= 1 IEnMin= 1 EnMin= -93.3563938614636     IErMin= 1 ErrMin= 1.35D-03
 ErrMax= 1.35D-03  0.00D+00 EMaxC= 1.00D-01 BMatC= 1.07D-04 BMatP= 1.07D-04
 IDIUse=3 WtCom= 9.87D-01 WtEn= 1.35D-02
 Coeff-Com:  0.100D+01
 Coeff-En:   0.100D+01
 Coeff:      0.100D+01
 Gap=     0.199 Goal=   None    Shift=    0.000
 GapD=    0.199 DampG=1.000 DampE=1.000 DampFc=1.0000 IDamp=-1.
 RMSDP=8.31D-04 MaxDP=9.04D-03              OVMax= 1.26D-02

 Cycle   2  Pass 1  IDiag  1:
 E= -93.3565832565946     Delta-E=       -0.000189395131 Rises=F Damp=F
 DIIS: error= 6.58D-04 at cycle   2 NSaved=   2.
 NSaved= 2 IEnMin= 2 EnMin= -93.3565832565946     IErMin= 2 ErrMin= 6.58D-04
 ErrMax= 6.58D-04  0.00D+00 EMaxC= 1.00D-01 BMatC= 2.15D-05 BMatP= 1.07D-04
 IDIUse=3 WtCom= 9.93D-01 WtEn= 6.58D-03
 Coeff-Com:  0.251D+00 0.749D+00
 Coeff-En:   0.000D+00 0.100D+01
 Coeff:      0.249D+00 0.751D+00
 Gap=     0.199 Goal=   None    Shift=    0.000
 RMSDP=2.17D-04 MaxDP=1.84D-03 DE=-1.89D-04 OVMax= 2.99D-03

 Cycle   3  Pass 1  IDiag  1:
 E= -93.3565891127512     Delta-E=       -0.000005856157 Rises=F Damp=F
 DIIS: error= 9.93D-04 at cycle   3 NSaved=   3.
 NSaved= 3 IEnMin= 3 EnMin= -93.3565891127512     IErMin= 2 ErrMin= 6.58D-04
 ErrMax= 9.93D-04  0.00D+00 EMaxC= 1.00D-01 BMatC= 1.66D-05 BMatP= 2.15D-05
 IDIUse=3 WtCom= 9.90D-01 WtEn= 9.93D-03
 Coeff-Com:  0.704D-01 0.465D+00 0.465D+00
 Coeff-En:   0.000D+00 0.421D+00 0.579D+00
 Coeff:      0.697D-01 0.464D+00 0.466D+00
 Gap=     0.199 Goal=   None    Shift=    0.000
 RMSDP=1.71D-04 MaxDP=1.47D-03 DE=-5.86D-06 OVMax= 2.74D-03

 Cycle   4  Pass 1  IDiag  1:
 E= -93.3565944962027     Delta-E=       -0.000005383452 Rises=F Damp=F
 DIIS: error= 7.69D-04 at cycle   4 NSaved=   4.
 NSaved= 4 IEnMin= 4 EnMin= -93.3565944962027     IErMin= 2 ErrMin= 6.58D-04
 ErrMax= 7.69D-04  0.00D+00 EMaxC= 1.00D-01 BMatC= 1.13D-05 BMatP= 1.66D-05
 IDIUse=3 WtCom= 9.92D-01 WtEn= 7.69D-03
 Coeff-Com: -0.288D-02 0.186D+00 0.425D+00 0.392D+00
 Coeff-En:   0.000D+00 0.000D+00 0.428D+00 0.572D+00
 Coeff:     -0.286D-02 0.184D+00 0.425D+00 0.394D+00
 Gap=     0.199 Goal=   None    Shift=    0.000
 RMSDP=7.97D-05 MaxDP=7.69D-04 DE=-5.38D-06 OVMax= 1.17D-03

 Cycle   5  Pass 1  IDiag  1:
 E= -93.3566051948391     Delta-E=       -0.000010698636 Rises=F Damp=F
 DIIS: error= 2.91D-05 at cycle   5 NSaved=   5.
 NSaved= 5 IEnMin= 5 EnMin= -93.3566051948391     IErMin= 5 ErrMin= 2.91D-05
 ErrMax= 2.91D-05  0.00D+00 EMaxC= 1.00D-01 BMatC= 2.96D-08 BMatP= 1.13D-05
 IDIUse=1 WtCom= 1.00D+00 WtEn= 0.00D+00
 Coeff-Com: -0.431D-03 0.649D-01 0.167D+00 0.152D+00 0.617D+00
 Coeff:     -0.431D-03 0.649D-01 0.167D+00 0.152D+00 0.617D+00
 Gap=     0.199 Goal=   None    Shift=    0.000
 RMSDP=9.62D-06 MaxDP=8.38D-05 DE=-1.07D-05 OVMax= 1.25D-04

 Cycle   6  Pass 1  IDiag  1:
 E= -93.3566052356233     Delta-E=       -0.000000040784 Rises=F Damp=F
 DIIS: error= 7.00D-06 at cycle   6 NSaved=   6.
 NSaved= 6 IEnMin= 6 EnMin= -93.3566052356233     IErMin= 6 ErrMin= 7.00D-06
 ErrMax= 7.00D-06  0.00D+00 EMaxC= 1.00D-01 BMatC= 1.35D-09 BMatP= 2.96D-08
 IDIUse=1 WtCom= 1.00D+00 WtEn= 0.00D+00
 Coeff-Com: -0.154D-03 0.143D-01 0.408D-01 0.375D-01 0.243D+00 0.664D+00
 Coeff:     -0.154D-03 0.143D-01 0.408D-01 0.375D-01 0.243D+00 0.664D+00
 Gap=     0.199 Goal=   None    Shift=    0.000
 RMSDP=1.57D-06 MaxDP=1.18D-05 DE=-4.08D-08 OVMax= 2.11D-05

 Cycle   7  Pass 1  IDiag  1:
 E= -93.3566052372962     Delta-E=       -0.000000001673 Rises=F Damp=F
 DIIS: error= 1.08D-06 at cycle   7 NSaved=   7.
 NSaved= 7 IEnMin= 7 EnMin= -93.3566052372962     IErMin= 7 ErrMin= 1.08D-06
 ErrMax= 1.08D-06  0.00D+00 EMaxC= 1.00D-01 BMatC= 5.51D-11 BMatP= 1.35D-09
 IDIUse=1 WtCom= 1.00D+00 WtEn= 0.00D+00
 Coeff-Com: -0.508D-04 0.193D-02 0.657D-02 0.679D-02 0.623D-01 0.233D+00
 Coeff-Com:  0.689D+00
 Coeff:     -0.508D-04 0.193D-02 0.657D-02 0.679D-02 0.623D-01 0.233D+00
 Coeff:      0.689D+00
 Gap=     0.199 Goal=   None    Shift=    0.000
 RMSDP=2.80D-07 MaxDP=1.96D-06 DE=-1.67D-09 OVMax= 3.78D-06

 Cycle   8  Pass 1  IDiag  1:
 E= -93.3566052373600     Delta-E=       -0.000000000064 Rises=F Damp=F
 DIIS: error= 1.35D-07 at cycle   8 NSaved=   8.
 NSaved= 8 IEnMin= 8 EnMin= -93.3566052373600     IErMin= 8 ErrMin= 1.35D-07
 ErrMax= 1.35D-07  0.00D+00 EMaxC= 1.00D-01 BMatC= 4.75D-13 BMatP= 5.51D-11
 IDIUse=1 WtCom= 1.00D+00 WtEn= 0.00D+00
 Coeff-Com: -0.536D-05-0.367D-04 0.111D-03 0.352D-03 0.514D-02 0.218D-01
 Coeff-Com:  0.105D+00 0.868D+00
 Coeff:     -0.536D-05-0.367D-04 0.111D-03 0.352D-03 0.514D-02 0.218D-01
 Coeff:      0.105D+00 0.868D+00
 Gap=     0.199 Goal=   None    Shift=    0.000
 RMSDP=3.12D-08 MaxDP=2.05D-07 DE=-6.39D-11 OVMax= 3.04D-07

 Cycle   9  Pass 1  IDiag  1:
 E= -93.3566052373604     Delta-E=       -0.000000000000 Rises=F Damp=F
 DIIS: error= 1.22D-08 at cycle   9 NSaved=   9.
 NSaved= 9 IEnMin= 9 EnMin= -93.3566052373604     IErMin= 9 ErrMin= 1.22D-08
 ErrMax= 1.22D-08  0.00D+00 EMaxC= 1.00D-01 BMatC= 5.74D-15 BMatP= 4.75D-13
 IDIUse=1 WtCom= 1.00D+00 WtEn= 0.00D+00
 Coeff-Com: -0.762D-06-0.150D-04 0.462D-06 0.495D-04 0.900D-03 0.369D-02
 Coeff-Com:  0.203D-01 0.216D+00 0.760D+00
 Coeff:     -0.762D-06-0.150D-04 0.462D-06 0.495D-04 0.900D-03 0.369D-02
 Coeff:      0.203D-01 0.216D+00 0.760D+00
 Gap=     0.199 Goal=   None    Shift=    0.000
 RMSDP=3.93D-09 MaxDP=2.51D-08 DE=-3.41D-13 OVMax= 5.18D-08

 SCF Done:  E(RTPSS-TPSS) =  -93.3566052374     A.U. after    9 cycles
            NFock=  9  Conv=0.39D-08     -V/T= 2.0062
 KE= 9.278269327669D+01 PE=-2.652205613976D+02 EE= 5.521854338885D+01
 Leave Link  502 at Wed Oct  7 13:05:49 2020, MaxMem=  2684354560 cpu:              13.1 elap:               1.4
 (Enter /udrive/faculty/rpeverati/g16/g16/l508.exe)
 QCSCF skips out because SCF is already converged.
 Leave Link  508 at Wed Oct  7 13:05:50 2020, MaxMem=  2684354560 cpu:               0.5 elap:               0.4
 (Enter /udrive/faculty/rpeverati/g16/g16/l701.exe)
 ... and contract with generalized density number  0.
 Compute integral first derivatives.
 R6Disp: Adding Grimme-D3(BJ) dispersion energy 1st derivatives to the gradient.
 Leave Link  701 at Wed Oct  7 13:05:51 2020, MaxMem=  2684354560 cpu:               3.8 elap:               0.7
 (Enter /udrive/faculty/rpeverati/g16/g16/l702.exe)
 L702 exits ... SP integral derivatives will be done elsewhere.
 Leave Link  702 at Wed Oct  7 13:05:52 2020, MaxMem=  2684354560 cpu:               1.1 elap:               0.4
 (Enter /udrive/faculty/rpeverati/g16/g16/l703.exe)
 Integral derivatives from FoFJK, PRISM(SPDF).
 Compute integral first derivatives, UseDBF=F ICtDFT=           0.
 Calling FoFJK, ICntrl=      2527 FMM=F ISym2X=1 I1Cent= 0 IOpClX= 0 NMat=1 NMatS=1 NMatT=0.
 FoFJK:  IHMeth= 1 ICntrl=    2527 DoSepK=F KAlg= 0 I1Cent=           0 FoldK=F
 IRaf=         0 NMat=       1 IRICut=       1 DoRegI=T DoRafI=F ISym2E= 1 IDoP0=0 IntGTp=1.
 FoFCou: FMM=F IPFlag=           0 FMFlag=      100000 FMFlg1=         800
         NFxFlg=           0 DoJE=F BraDBF=F KetDBF=F FulRan=T
         wScrn=  0.000000 ICntrl=      2527 IOpCl=  0 I1Cent=           0 NGrid=           0
         NMat0=    1 NMatS0=      1 NMatT0=    0 NMatD0=    1 NMtDS0=    0 NMtDT0=    0
 Petite list used in FoFCou.
 Leave Link  703 at Wed Oct  7 13:05:53 2020, MaxMem=  2684354560 cpu:               5.9 elap:               0.9
 (Enter /udrive/faculty/rpeverati/g16/g16/l716.exe)
 Dipole        =-4.75205905D-01 3.91051140D-02 0.00000000D+00
 ***** Axes restored to original set *****
 -------------------------------------------------------------------
 Center     Atomic                   Forces (Hartrees/Bohr)
 Number     Number              X              Y              Z
 -------------------------------------------------------------------
      1        6           0.001826394    0.001199661   -0.000000000
      2        7           0.002655161   -0.002536412   -0.000000000
      3        1          -0.004481556    0.001336751   -0.000000000
 -------------------------------------------------------------------
 Cartesian Forces:  Max     0.004481556 RMS     0.002111593
 Leave Link  716 at Wed Oct  7 13:05:54 2020, MaxMem=  2684354560 cpu:               1.8 elap:               0.6
 (Enter /udrive/faculty/rpeverati/g16/g16/l103.exe)

 GradGradGradGradGradGradGradGradGradGradGradGradGradGradGradGradGradGrad
 Berny optimization.
 Optmz: redundant internal coordinate code flag= 1
 Red2BG:  D1=  4.68D-01 OD1=  2.07D-02 B2RMS=  0.00D+00 IAprox=0
 FormGI is forming the generalized inverse of G from B-inverse, IUseBI=4.
 Internal  Forces:  Max     0.006087106 RMS     0.004391259
 Search for a saddle point.
 Step number   2 out of a maximum of   50
 All quantities printed in internal units (Hartrees-Bohrs-Radians)
 Swapping is turned off.
 Update second derivatives using D2CorX and points    1    2
 The second derivative matrix:
                          R1        R2        A1
           R1           1.10000
           R2          -0.03160   0.21940
           A1           0.07722   0.10359  -0.10319
 ITU=  0  0
 Eigenvectors of the second derivative matrix:
                           1         2         3
     Eigenvalues --    -0.13915   0.24972   1.10565
   1         R1         0.06683  -0.00988   0.99772
   2         R2         0.28236  -0.95889  -0.02841
   3         A1        -0.95698  -0.28362   0.06130
 RLam0= 1.51D-04.
 Iter=   1 RLamda= 0.00000000D+00 Sum=-1.23841828D-04.
 Iter=   2 RLamda=-1.23841828D-04 Sum=-1.23783099D-04.
 Iter=   3 RLamda=-1.23783099D-04 Sum=-1.23783126D-04.
 RFO step:  Lambda0=1.507260986D-04 Lambda=-1.23783099D-04.
 Linear search not attempted -- option 19 set.
 Iteration  1 RMS(Cart)=  0.01967789 RMS(Int)=  0.00019323
 Iteration  2 RMS(Cart)=  0.00022258 RMS(Int)=  0.00000001
 Iteration  3 RMS(Cart)=  0.00000001 RMS(Int)=  0.00000000
 ITry= 1 IFail=0 DXMaxC= 1.90D-02 DCOld= 1.00D+10 DXMaxT= 1.00D-01 DXLimC= 3.00D+00 Rises=F
 ClnCor:  largest displacement from symmetrization is 4.58D-16 for atom     3.
 Variable       Old X    -DE/DX   Delta X   Delta X   Delta X     New X
                                 (Linear)    (Quad)   (Total)
    R1        2.27002   0.00251   0.00000   0.00491   0.00491   2.27493
    R2        2.24285   0.00381   0.00000   0.02995   0.02995   2.27281
    A1        1.23095   0.00609   0.00000  -0.02519  -0.02519   1.20576
         Item               Value     Threshold  Converged?
 Maximum Force            0.006087     0.000450     NO 
 RMS     Force            0.004391     0.000300     NO 
 Maximum Displacement     0.018961     0.001800     NO 
 RMS     Displacement     0.019804     0.001200     NO 
 Predicted change in Energy= 1.352369D-05
 Lowest energy point so far.  Saving SCF results.
 Largest change from initial coordinates is atom    3       0.032 Angstoms.
 GradGradGradGradGradGradGradGradGradGradGradGradGradGradGradGradGradGrad

 Leave Link  103 at Wed Oct  7 13:05:54 2020, MaxMem=  2684354560 cpu:               1.9 elap:               0.5
 (Enter /udrive/faculty/rpeverati/g16/g16/l202.exe)
                          Input orientation:                          
 ---------------------------------------------------------------------
 Center     Atomic      Atomic             Coordinates (Angstroms)
 Number     Number       Type             X           Y           Z
 ---------------------------------------------------------------------
      1          6           0        0.094281    0.636713    0.000000
      2          7           0        0.062382   -0.566706    0.000000
      3          1           0       -1.040172    0.237280    0.000000
 ---------------------------------------------------------------------
                    Distance matrix (angstroms):
                    1          2          3
     1  C    0.000000
     2  N    1.203841   0.000000
     3  H    1.202718   1.364558   0.000000
 Stoichiometry    CHN
 Framework group  CS[SG(CHN)]
 Deg. of freedom     3
 Full point group                 CS      NOp   2
 RotChk:  IX=0 Diff= 2.21D-02
 Largest Abelian subgroup         CS      NOp   2
 Largest concise Abelian subgroup C1      NOp   1
                         Standard orientation:                         
 ---------------------------------------------------------------------
 Center     Atomic      Atomic             Coordinates (Angstroms)
 Number     Number       Type             X           Y           Z
 ---------------------------------------------------------------------
      1          6           0        0.080248    0.632588    0.000000
      2          7           0        0.080248   -0.571252    0.000000
      3          1           0       -1.043223    0.203236    0.000000
 ---------------------------------------------------------------------
 Rotational constants (GHZ):         415.0447419          53.6571032          47.5144247
 Leave Link  202 at Wed Oct  7 13:05:55 2020, MaxMem=  2684354560 cpu:               1.9 elap:               0.6
 (Enter /udrive/faculty/rpeverati/g16/g16/l301.exe)
 Standard basis: 6-31G(d) (5D, 7F)
 Ernie: Thresh=  0.10000D-02 Tol=  0.10000D-05 Strict=F.
 There are    24 symmetry adapted cartesian basis functions of A'  symmetry.
 There are     8 symmetry adapted cartesian basis functions of A"  symmetry.
 There are    22 symmetry adapted basis functions of A'  symmetry.
 There are     8 symmetry adapted basis functions of A"  symmetry.
    30 basis functions,    60 primitive gaussians,    32 cartesian basis functions
     7 alpha electrons        7 beta electrons
       nuclear repulsion energy        23.8166258827 Hartrees.
 IExCor= 2523 DFT=T Ex=TPSS Corr=TPSS ExCW=0 ScaHFX=  0.000000
 ScaDFX=  1.000000  1.000000  1.000000  1.000000 ScalE2=  1.000000  1.000000
 IRadAn=      5 IRanWt=     -1 IRanGd=            0 ICorTp=0 IEmpDi=141
 NAtoms=    3 NActive=    3 NUniq=    3 SFac= 1.00D+00 NAtFMM=   60 NAOKFM=F Big=F
 Integral buffers will be    131072 words long.
 Raffenetti 2 integral format.
 Two-electron integral symmetry is turned on.
 R6Disp:  Grimme-D3(BJ) Dispersion energy=       -0.0010129020 Hartrees.
 Nuclear repulsion after empirical dispersion term =       23.8156129807 Hartrees.
 Leave Link  301 at Wed Oct  7 13:05:56 2020, MaxMem=  2684354560 cpu:               2.1 elap:               0.7
 (Enter /udrive/faculty/rpeverati/g16/g16/l302.exe)
 NPDir=0 NMtPBC=     1 NCelOv=     1 NCel=       1 NClECP=     1 NCelD=      1
         NCelK=      1 NCelE2=     1 NClLst=     1 CellRange=     0.0.
 One-electron integrals computed using PRISM.
 One-electron integral symmetry used in STVInt
 NBasis=    30 RedAO= T EigKep=  8.37D-03  NBF=    22     8
 NBsUse=    30 1.00D-06 EigRej= -1.00D+00 NBFU=    22     8
 Precomputing XC quadrature grid using
 IXCGrd= 4 IRadAn=           5 IRanWt=          -1 IRanGd=           0 AccXCQ= 0.00D+00.
 Generated NRdTot=       0 NPtTot=           0 NUsed=           0 NTot=          32
 NSgBfM=    32    32    32    32    32 MxSgAt=     3 MxSgA2=     3.
 Leave Link  302 at Wed Oct  7 13:05:57 2020, MaxMem=  2684354560 cpu:               4.0 elap:               0.8
 (Enter /udrive/faculty/rpeverati/g16/g16/l303.exe)
 DipDrv:  MaxL=1.
 Leave Link  303 at Wed Oct  7 13:05:58 2020, MaxMem=  2684354560 cpu:               1.7 elap:               0.5
 (Enter /udrive/faculty/rpeverati/g16/g16/l401.exe)
 Initial guess from the checkpoint file:  "MN_49_hcnts_BH76_TPSSDBJ_631Gs.chk"
 SCF N**3 symmetry information disabled.
 B after Tr=    -0.000000   -0.000000   -0.000000
         Rot=    0.999996   -0.000000    0.000000   -0.002939 Ang=  -0.34 deg.
 Guess basis will be translated and rotated to current coordinates.
 JPrj=2 DoOrth=T DoCkMO=T.
 Initial guess orbital symmetries:
       Occupied  (A') (A') (A') (A') (A') (A") (A')
       Virtual   (A') (A") (A') (A') (A") (A') (A') (A') (A') (A")
                 (A') (A') (A') (A") (A') (A") (A') (A") (A') (A')
                 (A') (A") (A')
 The electronic state of the initial guess is 1-A'.
 Leave Link  401 at Wed Oct  7 13:05:59 2020, MaxMem=  2684354560 cpu:               2.7 elap:               0.6
 (Enter /udrive/faculty/rpeverati/g16/g16/l502.exe)
 Keep J ints in memory in symmetry-blocked form, NReq=10468376.
 FoFCou: FMM=F IPFlag=           0 FMFlag=           0 FMFlg1=           0
         NFxFlg=           0 DoJE=F BraDBF=F KetDBF=F FulRan=T
         wScrn=  0.000000 ICntrl=       600 IOpCl=  0 I1Cent=           0 NGrid=           0
         NMat0=    1 NMatS0=    465 NMatT0=    0 NMatD0=    1 NMtDS0=    0 NMtDT0=    0
 Petite list used in FoFCou.
 Closed shell SCF:
 Using DIIS extrapolation, IDIIS=  1040.
 NGot=  2684354560 LenX=  2684292770 LenY=  2684291305
 Requested convergence on RMS density matrix=1.00D-08 within 120 cycles.
 Requested convergence on MAX density matrix=1.00D-06.
 Requested convergence on             energy=1.00D-06.
 No special actions if energy rises.

 Cycle   1  Pass 1  IDiag  1:
 E= -93.3564094868602    
 DIIS: error= 1.34D-03 at cycle   1 NSaved=   1.
 NSaved= 1 IEnMin= 1 EnMin= -93.3564094868602     IErMin= 1 ErrMin= 1.34D-03
 ErrMax= 1.34D-03  0.00D+00 EMaxC= 1.00D-01 BMatC= 8.49D-05 BMatP= 8.49D-05
 IDIUse=3 WtCom= 9.87D-01 WtEn= 1.34D-02
 Coeff-Com:  0.100D+01
 Coeff-En:   0.100D+01
 Coeff:      0.100D+01
 Gap=     0.201 Goal=   None    Shift=    0.000
 GapD=    0.201 DampG=1.000 DampE=1.000 DampFc=1.0000 IDamp=-1.
 RMSDP=7.46D-04 MaxDP=7.92D-03              OVMax= 1.11D-02

 Cycle   2  Pass 1  IDiag  1:
 E= -93.3565416138180     Delta-E=       -0.000132126958 Rises=F Damp=F
 DIIS: error= 2.02D-03 at cycle   2 NSaved=   2.
 NSaved= 2 IEnMin= 2 EnMin= -93.3565416138180     IErMin= 1 ErrMin= 1.34D-03
 ErrMax= 2.02D-03  0.00D+00 EMaxC= 1.00D-01 BMatC= 7.74D-05 BMatP= 8.49D-05
 IDIUse=3 WtCom= 9.80D-01 WtEn= 2.02D-02
 Coeff-Com:  0.484D+00 0.516D+00
 Coeff-En:   0.000D+00 0.100D+01
 Coeff:      0.474D+00 0.526D+00
 Gap=     0.202 Goal=   None    Shift=    0.000
 RMSDP=3.80D-04 MaxDP=3.88D-03 DE=-1.32D-04 OVMax= 6.98D-03

 Cycle   3  Pass 1  IDiag  1:
 E= -93.3565270320977     Delta-E=        0.000014581720 Rises=F Damp=F
 DIIS: error= 2.33D-03 at cycle   3 NSaved=   3.
 NSaved= 3 IEnMin= 2 EnMin= -93.3565416138180     IErMin= 1 ErrMin= 1.34D-03
 ErrMax= 2.33D-03  0.00D+00 EMaxC= 1.00D-01 BMatC= 9.10D-05 BMatP= 7.74D-05
 IDIUse=3 WtCom= 1.72D-01 WtEn= 8.28D-01
 Coeff-Com:  0.850D-01 0.493D+00 0.422D+00
 Coeff-En:   0.000D+00 0.533D+00 0.467D+00
 Coeff:      0.146D-01 0.526D+00 0.460D+00
 Gap=     0.201 Goal=   None    Shift=    0.000
 RMSDP=2.74D-04 MaxDP=2.29D-03 DE= 1.46D-05 OVMax= 3.84D-03

 Cycle   4  Pass 1  IDiag  1:
 E= -93.3566110164073     Delta-E=       -0.000083984310 Rises=F Damp=F
 DIIS: error= 1.96D-04 at cycle   4 NSaved=   4.
 NSaved= 4 IEnMin= 4 EnMin= -93.3566110164073     IErMin= 4 ErrMin= 1.96D-04
 ErrMax= 1.96D-04  0.00D+00 EMaxC= 1.00D-01 BMatC= 1.94D-06 BMatP= 7.74D-05
 IDIUse=3 WtCom= 9.98D-01 WtEn= 1.96D-03
 Coeff-Com:  0.160D-02 0.193D+00 0.213D+00 0.593D+00
 Coeff-En:   0.000D+00 0.000D+00 0.000D+00 0.100D+01
 Coeff:      0.160D-02 0.192D+00 0.212D+00 0.594D+00
 Gap=     0.201 Goal=   None    Shift=    0.000
 RMSDP=6.68D-05 MaxDP=4.26D-04 DE=-8.40D-05 OVMax= 1.08D-03

 Cycle   5  Pass 1  IDiag  1:
 E= -93.3566134424404     Delta-E=       -0.000002426033 Rises=F Damp=F
 DIIS: error= 3.47D-05 at cycle   5 NSaved=   5.
 NSaved= 5 IEnMin= 5 EnMin= -93.3566134424404     IErMin= 5 ErrMin= 3.47D-05
 ErrMax= 3.47D-05  0.00D+00 EMaxC= 1.00D-01 BMatC= 3.36D-08 BMatP= 1.94D-06
 IDIUse=1 WtCom= 1.00D+00 WtEn= 0.00D+00
 Coeff-Com: -0.132D-02 0.714D-01 0.844D-01 0.252D+00 0.593D+00
 Coeff:     -0.132D-02 0.714D-01 0.844D-01 0.252D+00 0.593D+00
 Gap=     0.201 Goal=   None    Shift=    0.000
 RMSDP=7.09D-06 MaxDP=5.05D-05 DE=-2.43D-06 OVMax= 1.07D-04

 Cycle   6  Pass 1  IDiag  1:
 E= -93.3566134806296     Delta-E=       -0.000000038189 Rises=F Damp=F
 DIIS: error= 5.18D-06 at cycle   6 NSaved=   6.
 NSaved= 6 IEnMin= 6 EnMin= -93.3566134806296     IErMin= 6 ErrMin= 5.18D-06
 ErrMax= 5.18D-06  0.00D+00 EMaxC= 1.00D-01 BMatC= 1.11D-09 BMatP= 3.36D-08
 IDIUse=1 WtCom= 1.00D+00 WtEn= 0.00D+00
 Coeff-Com: -0.254D-03 0.136D-01 0.179D-01 0.546D-01 0.200D+00 0.714D+00
 Coeff:     -0.254D-03 0.136D-01 0.179D-01 0.546D-01 0.200D+00 0.714D+00
 Gap=     0.201 Goal=   None    Shift=    0.000
 RMSDP=1.50D-06 MaxDP=1.11D-05 DE=-3.82D-08 OVMax= 1.77D-05

 Cycle   7  Pass 1  IDiag  1:
 E= -93.3566134818785     Delta-E=       -0.000000001249 Rises=F Damp=F
 DIIS: error= 1.06D-06 at cycle   7 NSaved=   7.
 NSaved= 7 IEnMin= 7 EnMin= -93.3566134818785     IErMin= 7 ErrMin= 1.06D-06
 ErrMax= 1.06D-06  0.00D+00 EMaxC= 1.00D-01 BMatC= 4.96D-11 BMatP= 1.11D-09
 IDIUse=1 WtCom= 1.00D+00 WtEn= 0.00D+00
 Coeff-Com: -0.949D-04 0.264D-02 0.367D-02 0.121D-01 0.511D-01 0.268D+00
 Coeff-Com:  0.662D+00
 Coeff:     -0.949D-04 0.264D-02 0.367D-02 0.121D-01 0.511D-01 0.268D+00
 Coeff:      0.662D+00
 Gap=     0.201 Goal=   None    Shift=    0.000
 RMSDP=3.22D-07 MaxDP=2.87D-06 DE=-1.25D-09 OVMax= 4.48D-06

 Cycle   8  Pass 1  IDiag  1:
 E= -93.3566134819448     Delta-E=       -0.000000000066 Rises=F Damp=F
 DIIS: error= 1.02D-07 at cycle   8 NSaved=   8.
 NSaved= 8 IEnMin= 8 EnMin= -93.3566134819448     IErMin= 8 ErrMin= 1.02D-07
 ErrMax= 1.02D-07  0.00D+00 EMaxC= 1.00D-01 BMatC= 5.39D-13 BMatP= 4.96D-11
 IDIUse=1 WtCom= 1.00D+00 WtEn= 0.00D+00
 Coeff-Com: -0.341D-05-0.674D-04-0.863D-04 0.728D-04 0.598D-03 0.195D-01
 Coeff-Com:  0.120D+00 0.860D+00
 Coeff:     -0.341D-05-0.674D-04-0.863D-04 0.728D-04 0.598D-03 0.195D-01
 Coeff:      0.120D+00 0.860D+00
 Gap=     0.201 Goal=   None    Shift=    0.000
 RMSDP=2.77D-08 MaxDP=2.04D-07 DE=-6.63D-11 OVMax= 3.48D-07

 Cycle   9  Pass 1  IDiag  1:
 E= -93.3566134819453     Delta-E=       -0.000000000000 Rises=F Damp=F
 DIIS: error= 7.31D-09 at cycle   9 NSaved=   9.
 NSaved= 9 IEnMin= 9 EnMin= -93.3566134819453     IErMin= 9 ErrMin= 7.31D-09
 ErrMax= 7.31D-09  0.00D+00 EMaxC= 1.00D-01 BMatC= 1.70D-15 BMatP= 5.39D-13
 IDIUse=1 WtCom= 1.00D+00 WtEn= 0.00D+00
 Coeff-Com:  0.283D-08-0.139D-04-0.157D-04-0.157D-04 0.139D-04 0.203D-02
 Coeff-Com:  0.144D-01 0.112D+00 0.871D+00
 Coeff:      0.283D-08-0.139D-04-0.157D-04-0.157D-04 0.139D-04 0.203D-02
 Coeff:      0.144D-01 0.112D+00 0.871D+00
 Gap=     0.201 Goal=   None    Shift=    0.000
 RMSDP=2.35D-09 MaxDP=1.83D-08 DE=-4.97D-13 OVMax= 2.53D-08

 SCF Done:  E(RTPSS-TPSS) =  -93.3566134819     A.U. after    9 cycles
            NFock=  9  Conv=0.23D-08     -V/T= 2.0063
 KE= 9.276920954444D+01 PE=-2.651127641663D+02 EE= 5.517132815922D+01
 Leave Link  502 at Wed Oct  7 13:06:01 2020, MaxMem=  2684354560 cpu:              14.0 elap:               1.6
 (Enter /udrive/faculty/rpeverati/g16/g16/l508.exe)
 QCSCF skips out because SCF is already converged.
 Leave Link  508 at Wed Oct  7 13:06:02 2020, MaxMem=  2684354560 cpu:               0.2 elap:               0.4
 (Enter /udrive/faculty/rpeverati/g16/g16/l701.exe)
 ... and contract with generalized density number  0.
 Compute integral first derivatives.
 R6Disp: Adding Grimme-D3(BJ) dispersion energy 1st derivatives to the gradient.
 Leave Link  701 at Wed Oct  7 13:06:02 2020, MaxMem=  2684354560 cpu:               3.3 elap:               0.5
 (Enter /udrive/faculty/rpeverati/g16/g16/l702.exe)
 L702 exits ... SP integral derivatives will be done elsewhere.
 Leave Link  702 at Wed Oct  7 13:06:03 2020, MaxMem=  2684354560 cpu:               1.1 elap:               0.4
 (Enter /udrive/faculty/rpeverati/g16/g16/l703.exe)
 Integral derivatives from FoFJK, PRISM(SPDF).
 Compute integral first derivatives, UseDBF=F ICtDFT=           0.
 Calling FoFJK, ICntrl=      2527 FMM=F ISym2X=1 I1Cent= 0 IOpClX= 0 NMat=1 NMatS=1 NMatT=0.
 FoFJK:  IHMeth= 1 ICntrl=    2527 DoSepK=F KAlg= 0 I1Cent=           0 FoldK=F
 IRaf=         0 NMat=       1 IRICut=       1 DoRegI=T DoRafI=F ISym2E= 1 IDoP0=0 IntGTp=1.
 FoFCou: FMM=F IPFlag=           0 FMFlag=      100000 FMFlg1=         800
         NFxFlg=           0 DoJE=F BraDBF=F KetDBF=F FulRan=T
         wScrn=  0.000000 ICntrl=      2527 IOpCl=  0 I1Cent=           0 NGrid=           0
         NMat0=    1 NMatS0=      1 NMatT0=    0 NMatD0=    1 NMtDS0=    0 NMtDT0=    0
 Petite list used in FoFCou.
 Leave Link  703 at Wed Oct  7 13:06:04 2020, MaxMem=  2684354560 cpu:               5.6 elap:               0.8
 (Enter /udrive/faculty/rpeverati/g16/g16/l716.exe)
 Dipole        =-4.78063978D-01 2.44967082D-02 0.00000000D+00
 ***** Axes restored to original set *****
 -------------------------------------------------------------------
 Center     Atomic                   Forces (Hartrees/Bohr)
 Number     Number              X              Y              Z
 -------------------------------------------------------------------
      1        6           0.000891925   -0.000638725   -0.000000000
      2        7          -0.000621873    0.001434814   -0.000000000
      3        1          -0.000270052   -0.000796089   -0.000000000
 -------------------------------------------------------------------
 Cartesian Forces:  Max     0.001434814 RMS     0.000695669
 Leave Link  716 at Wed Oct  7 13:06:05 2020, MaxMem=  2684354560 cpu:               1.6 elap:               0.5
 (Enter /udrive/faculty/rpeverati/g16/g16/l103.exe)

 GradGradGradGradGradGradGradGradGradGradGradGradGradGradGradGradGradGrad
 Berny optimization.
 Optmz: redundant internal coordinate code flag= 1
 Red2BG:  D1=  4.58D-01 OD1=  2.05D-02 B2RMS=  0.00D+00 IAprox=0
 FormGI is forming the generalized inverse of G from B-inverse, IUseBI=4.
 Internal  Forces:  Max     0.001501767 RMS     0.001229364
 Search for a saddle point.
 Step number   3 out of a maximum of   50
 All quantities printed in internal units (Hartrees-Bohrs-Radians)
 Swapping is turned off.
 Update second derivatives using D2CorX and points    1    2    3
 The second derivative matrix:
                          R1        R2        A1
           R1           1.10998
           R2          -0.00769   0.21496
           A1           0.05131   0.12351  -0.14439
 ITU=  0  0  0
 Eigenvectors of the second derivative matrix:
                           1         2         3
     Eigenvalues --    -0.18477   0.25324   1.11208
   1         R1         0.03958   0.00912   0.99917
   2         R2         0.29567  -0.95529  -0.00299
   3         A1        -0.95447  -0.29555   0.04051
 RLam0= 1.27D-05.
 Iter=   1 RLamda= 0.00000000D+00 Sum=-1.98296940D-06.
 Iter=   2 RLamda=-1.98296940D-06 Sum=-1.98296576D-06.
 RFO step:  Lambda0=1.267952294D-05 Lambda=-1.98296940D-06.
 Linear search not attempted -- option 19 set.
 Iteration  1 RMS(Cart)=  0.00605998 RMS(Int)=  0.00001511
 Iteration  2 RMS(Cart)=  0.00001428 RMS(Int)=  0.00000000
 Iteration  3 RMS(Cart)=  0.00000000 RMS(Int)=  0.00000000
 ITry= 1 IFail=0 DXMaxC= 6.41D-03 DCOld= 1.00D+10 DXMaxT= 1.00D-01 DXLimC= 3.00D+00 Rises=F
 ClnCor:  largest displacement from symmetrization is 2.29D-16 for atom     3.
 Variable       Old X    -DE/DX   Delta X   Delta X   Delta X     New X
                                 (Linear)    (Quad)   (Total)
    R1        2.27493  -0.00142   0.00000  -0.00166  -0.00166   2.27327
    R2        2.27281   0.00052   0.00000  -0.00220  -0.00220   2.27061
    A1        1.20576  -0.00150   0.00000   0.00793   0.00793   1.21369
         Item               Value     Threshold  Converged?
 Maximum Force            0.001502     0.000450     NO 
 RMS     Force            0.001229     0.000300     NO 
 Maximum Displacement     0.006414     0.001800     NO 
 RMS     Displacement     0.006051     0.001200     NO 
 Predicted change in Energy= 5.348712D-06
 Lowest energy point so far.  Saving SCF results.
 Largest change from initial coordinates is atom    3       0.049 Angstoms.
 GradGradGradGradGradGradGradGradGradGradGradGradGradGradGradGradGradGrad

 Leave Link  103 at Wed Oct  7 13:06:05 2020, MaxMem=  2684354560 cpu:               1.4 elap:               0.5
 (Enter /udrive/faculty/rpeverati/g16/g16/l202.exe)
                          Input orientation:                          
 ---------------------------------------------------------------------
 Center     Atomic      Atomic             Coordinates (Angstroms)
 Number     Number       Type             X           Y           Z
 ---------------------------------------------------------------------
      1          6           0        0.092809    0.634856    0.000000
      2          7           0        0.065776   -0.567803    0.000000
      3          1           0       -1.042093    0.240235    0.000000
 ---------------------------------------------------------------------
                    Distance matrix (angstroms):
                    1          2          3
     1  C    0.000000
     2  N    1.202963   0.000000
     3  H    1.201553   1.371240   0.000000
 Stoichiometry    CHN
 Framework group  CS[SG(CHN)]
 Deg. of freedom     3
 Full point group                 CS      NOp   2
 RotChk:  IX=0 Diff= 5.70D-03
 Largest Abelian subgroup         CS      NOp   2
 Largest concise Abelian subgroup C1      NOp   1
                         Standard orientation:                         
 ---------------------------------------------------------------------
 Center     Atomic      Atomic             Coordinates (Angstroms)
 Number     Number       Type             X           Y           Z
 ---------------------------------------------------------------------
      1          6           0        0.080411    0.631483    0.000000
      2          7           0        0.080411   -0.571480    0.000000
      3          1           0       -1.045337    0.211458    0.000000
 ---------------------------------------------------------------------
 Rotational constants (GHZ):         413.5664259          53.7095553          47.5360809
 Leave Link  202 at Wed Oct  7 13:06:06 2020, MaxMem=  2684354560 cpu:               1.4 elap:               0.6
 (Enter /udrive/faculty/rpeverati/g16/g16/l301.exe)
 Standard basis: 6-31G(d) (5D, 7F)
 Ernie: Thresh=  0.10000D-02 Tol=  0.10000D-05 Strict=F.
 There are    24 symmetry adapted cartesian basis functions of A'  symmetry.
 There are     8 symmetry adapted cartesian basis functions of A"  symmetry.
 There are    22 symmetry adapted basis functions of A'  symmetry.
 There are     8 symmetry adapted basis functions of A"  symmetry.
    30 basis functions,    60 primitive gaussians,    32 cartesian basis functions
     7 alpha electrons        7 beta electrons
       nuclear repulsion energy        23.8194280235 Hartrees.
 IExCor= 2523 DFT=T Ex=TPSS Corr=TPSS ExCW=0 ScaHFX=  0.000000
 ScaDFX=  1.000000  1.000000  1.000000  1.000000 ScalE2=  1.000000  1.000000
 IRadAn=      5 IRanWt=     -1 IRanGd=            0 ICorTp=0 IEmpDi=141
 NAtoms=    3 NActive=    3 NUniq=    3 SFac= 1.00D+00 NAtFMM=   60 NAOKFM=F Big=F
 Integral buffers will be    131072 words long.
 Raffenetti 2 integral format.
 Two-electron integral symmetry is turned on.
 R6Disp:  Grimme-D3(BJ) Dispersion energy=       -0.0010147322 Hartrees.
 Nuclear repulsion after empirical dispersion term =       23.8184132913 Hartrees.
 Leave Link  301 at Wed Oct  7 13:06:07 2020, MaxMem=  2684354560 cpu:               2.0 elap:               0.6
 (Enter /udrive/faculty/rpeverati/g16/g16/l302.exe)
 NPDir=0 NMtPBC=     1 NCelOv=     1 NCel=       1 NClECP=     1 NCelD=      1
         NCelK=      1 NCelE2=     1 NClLst=     1 CellRange=     0.0.
 One-electron integrals computed using PRISM.
 One-electron integral symmetry used in STVInt
 NBasis=    30 RedAO= T EigKep=  8.34D-03  NBF=    22     8
 NBsUse=    30 1.00D-06 EigRej= -1.00D+00 NBFU=    22     8
 Precomputing XC quadrature grid using
 IXCGrd= 4 IRadAn=           5 IRanWt=          -1 IRanGd=           0 AccXCQ= 0.00D+00.
 Generated NRdTot=       0 NPtTot=           0 NUsed=           0 NTot=          32
 NSgBfM=    32    32    32    32    32 MxSgAt=     3 MxSgA2=     3.
 Leave Link  302 at Wed Oct  7 13:06:08 2020, MaxMem=  2684354560 cpu:               4.0 elap:               0.8
 (Enter /udrive/faculty/rpeverati/g16/g16/l303.exe)
 DipDrv:  MaxL=1.
 Leave Link  303 at Wed Oct  7 13:06:09 2020, MaxMem=  2684354560 cpu:               1.6 elap:               0.5
 (Enter /udrive/faculty/rpeverati/g16/g16/l401.exe)
 Initial guess from the checkpoint file:  "MN_49_hcnts_BH76_TPSSDBJ_631Gs.chk"
 SCF N**3 symmetry information disabled.
 B after Tr=     0.000000    0.000000    0.000000
         Rot=    1.000000    0.000000    0.000000    0.000744 Ang=   0.09 deg.
 Guess basis will be translated and rotated to current coordinates.
 JPrj=2 DoOrth=T DoCkMO=T.
 Initial guess orbital symmetries:
       Occupied  (A') (A') (A') (A') (A') (A") (A')
       Virtual   (A') (A") (A') (A') (A") (A') (A') (A') (A') (A")
                 (A') (A') (A') (A") (A') (A") (A') (A") (A') (A')
                 (A') (A") (A')
 The electronic state of the initial guess is 1-A'.
 Leave Link  401 at Wed Oct  7 13:06:10 2020, MaxMem=  2684354560 cpu:               2.8 elap:               0.7
 (Enter /udrive/faculty/rpeverati/g16/g16/l502.exe)
 Keep J ints in memory in symmetry-blocked form, NReq=10468376.
 FoFCou: FMM=F IPFlag=           0 FMFlag=           0 FMFlg1=           0
         NFxFlg=           0 DoJE=F BraDBF=F KetDBF=F FulRan=T
         wScrn=  0.000000 ICntrl=       600 IOpCl=  0 I1Cent=           0 NGrid=           0
         NMat0=    1 NMatS0=    465 NMatT0=    0 NMatD0=    1 NMtDS0=    0 NMtDT0=    0
 Petite list used in FoFCou.
 Closed shell SCF:
 Using DIIS extrapolation, IDIIS=  1040.
 NGot=  2684354560 LenX=  2684292770 LenY=  2684291305
 Requested convergence on RMS density matrix=1.00D-08 within 120 cycles.
 Requested convergence on MAX density matrix=1.00D-06.
 Requested convergence on             energy=1.00D-06.
 No special actions if energy rises.

 Cycle   1  Pass 1  IDiag  1:
 E= -93.3565920337620    
 DIIS: error= 3.79D-04 at cycle   1 NSaved=   1.
 NSaved= 1 IEnMin= 1 EnMin= -93.3565920337620     IErMin= 1 ErrMin= 3.79D-04
 ErrMax= 3.79D-04  0.00D+00 EMaxC= 1.00D-01 BMatC= 6.53D-06 BMatP= 6.53D-06
 IDIUse=3 WtCom= 9.96D-01 WtEn= 3.79D-03
 Coeff-Com:  0.100D+01
 Coeff-En:   0.100D+01
 Coeff:      0.100D+01
 Gap=     0.201 Goal=   None    Shift=    0.000
 RMSDP=2.11D-04 MaxDP=2.23D-03              OVMax= 3.21D-03

 Cycle   2  Pass 1  IDiag  1:
 E= -93.3566041617516     Delta-E=       -0.000012127990 Rises=F Damp=F
 DIIS: error= 4.56D-04 at cycle   2 NSaved=   2.
 NSaved= 2 IEnMin= 2 EnMin= -93.3566041617516     IErMin= 1 ErrMin= 3.79D-04
 ErrMax= 4.56D-04  0.00D+00 EMaxC= 1.00D-01 BMatC= 3.94D-06 BMatP= 6.53D-06
 IDIUse=3 WtCom= 9.95D-01 WtEn= 4.56D-03
 Coeff-Com:  0.405D+00 0.595D+00
 Coeff-En:   0.000D+00 0.100D+01
 Coeff:      0.403D+00 0.597D+00
 Gap=     0.200 Goal=   None    Shift=    0.000
 RMSDP=9.80D-05 MaxDP=1.03D-03 DE=-1.21D-05 OVMax= 1.79D-03

 Cycle   3  Pass 1  IDiag  1:
 E= -93.3566006727806     Delta-E=        0.000003488971 Rises=F Damp=F
 DIIS: error= 6.68D-04 at cycle   3 NSaved=   3.
 NSaved= 3 IEnMin= 2 EnMin= -93.3566041617516     IErMin= 1 ErrMin= 3.79D-04
 ErrMax= 6.68D-04  0.00D+00 EMaxC= 1.00D-01 BMatC= 7.50D-06 BMatP= 3.94D-06
 IDIUse=3 WtCom= 2.79D-01 WtEn= 7.21D-01
 Coeff-Com:  0.332D-01 0.568D+00 0.399D+00
 Coeff-En:   0.000D+00 0.616D+00 0.384D+00
 Coeff:      0.927D-02 0.603D+00 0.388D+00
 Gap=     0.200 Goal=   None    Shift=    0.000
 RMSDP=6.68D-05 MaxDP=5.76D-04 DE= 3.49D-06 OVMax= 9.91D-04

 Cycle   4  Pass 1  IDiag  1:
 E= -93.3566076803244     Delta-E=       -0.000007007544 Rises=F Damp=F
 DIIS: error= 3.28D-05 at cycle   4 NSaved=   4.
 NSaved= 4 IEnMin= 4 EnMin= -93.3566076803244     IErMin= 4 ErrMin= 3.28D-05
 ErrMax= 3.28D-05  0.00D+00 EMaxC= 1.00D-01 BMatC= 5.56D-08 BMatP= 3.94D-06
 IDIUse=1 WtCom= 1.00D+00 WtEn= 0.00D+00
 Coeff-Com: -0.133D-02 0.215D+00 0.126D+00 0.661D+00
 Coeff:     -0.133D-02 0.215D+00 0.126D+00 0.661D+00
 Gap=     0.200 Goal=   None    Shift=    0.000
 RMSDP=1.14D-05 MaxDP=8.24D-05 DE=-7.01D-06 OVMax= 1.83D-04

 Cycle   5  Pass 1  IDiag  1:
 E= -93.3566077480314     Delta-E=       -0.000000067707 Rises=F Damp=F
 DIIS: error= 5.57D-06 at cycle   5 NSaved=   5.
 NSaved= 5 IEnMin= 5 EnMin= -93.3566077480314     IErMin= 5 ErrMin= 5.57D-06
 ErrMax= 5.57D-06  0.00D+00 EMaxC= 1.00D-01 BMatC= 7.91D-10 BMatP= 5.56D-08
 IDIUse=1 WtCom= 1.00D+00 WtEn= 0.00D+00
 Coeff-Com: -0.154D-02 0.728D-01 0.436D-01 0.247D+00 0.639D+00
 Coeff:     -0.154D-02 0.728D-01 0.436D-01 0.247D+00 0.639D+00
 Gap=     0.200 Goal=   None    Shift=    0.000
 RMSDP=1.25D-06 MaxDP=9.29D-06 DE=-6.77D-08 OVMax= 1.83D-05

 Cycle   6  Pass 1  IDiag  1:
 E= -93.3566077489220     Delta-E=       -0.000000000891 Rises=F Damp=F
 DIIS: error= 1.36D-06 at cycle   6 NSaved=   6.
 NSaved= 6 IEnMin= 6 EnMin= -93.3566077489220     IErMin= 6 ErrMin= 1.36D-06
 ErrMax= 1.36D-06  0.00D+00 EMaxC= 1.00D-01 BMatC= 6.24D-11 BMatP= 7.91D-10
 IDIUse=1 WtCom= 1.00D+00 WtEn= 0.00D+00
 Coeff-Com: -0.234D-03 0.128D-01 0.817D-02 0.499D-01 0.256D+00 0.673D+00
 Coeff:     -0.234D-03 0.128D-01 0.817D-02 0.499D-01 0.256D+00 0.673D+00
 Gap=     0.200 Goal=   None    Shift=    0.000
 RMSDP=3.35D-07 MaxDP=2.56D-06 DE=-8.91D-10 OVMax= 4.46D-06

 Cycle   7  Pass 1  IDiag  1:
 E= -93.3566077489954     Delta-E=       -0.000000000073 Rises=F Damp=F
 DIIS: error= 2.03D-07 at cycle   7 NSaved=   7.
 NSaved= 7 IEnMin= 7 EnMin= -93.3566077489954     IErMin= 7 ErrMin= 2.03D-07
 ErrMax= 2.03D-07  0.00D+00 EMaxC= 1.00D-01 BMatC= 1.48D-12 BMatP= 6.24D-11
 IDIUse=1 WtCom= 1.00D+00 WtEn= 0.00D+00
 Coeff-Com: -0.691D-04 0.243D-02 0.146D-02 0.106D-01 0.658D-01 0.223D+00
 Coeff-Com:  0.697D+00
 Coeff:     -0.691D-04 0.243D-02 0.146D-02 0.106D-01 0.658D-01 0.223D+00
 Coeff:      0.697D+00
 Gap=     0.200 Goal=   None    Shift=    0.000
 RMSDP=5.54D-08 MaxDP=4.64D-07 DE=-7.34D-11 OVMax= 6.52D-07

 Cycle   8  Pass 1  IDiag  1:
 E= -93.3566077489971     Delta-E=       -0.000000000002 Rises=F Damp=F
 DIIS: error= 3.60D-08 at cycle   8 NSaved=   8.
 NSaved= 8 IEnMin= 8 EnMin= -93.3566077489971     IErMin= 8 ErrMin= 3.60D-08
 ErrMax= 3.60D-08  0.00D+00 EMaxC= 1.00D-01 BMatC= 4.93D-14 BMatP= 1.48D-12
 IDIUse=1 WtCom= 1.00D+00 WtEn= 0.00D+00
 Coeff-Com: -0.213D-05-0.122D-03-0.127D-03-0.615D-04 0.249D-02 0.230D-01
 Coeff-Com:  0.210D+00 0.764D+00
 Coeff:     -0.213D-05-0.122D-03-0.127D-03-0.615D-04 0.249D-02 0.230D-01
 Coeff:      0.210D+00 0.764D+00
 Gap=     0.200 Goal=   None    Shift=    0.000
 RMSDP=8.03D-09 MaxDP=4.69D-08 DE=-1.65D-12 OVMax= 9.47D-08

 SCF Done:  E(RTPSS-TPSS) =  -93.3566077490     A.U. after    8 cycles
            NFock=  8  Conv=0.80D-08     -V/T= 2.0063
 KE= 9.277011275118D+01 PE=-2.651223995783D+02 EE= 5.517726578678D+01
 Leave Link  502 at Wed Oct  7 13:06:11 2020, MaxMem=  2684354560 cpu:              13.5 elap:               1.5
 (Enter /udrive/faculty/rpeverati/g16/g16/l508.exe)
 QCSCF skips out because SCF is already converged.
 Leave Link  508 at Wed Oct  7 13:06:12 2020, MaxMem=  2684354560 cpu:               0.3 elap:               0.4
 (Enter /udrive/faculty/rpeverati/g16/g16/l701.exe)
 ... and contract with generalized density number  0.
 Compute integral first derivatives.
 R6Disp: Adding Grimme-D3(BJ) dispersion energy 1st derivatives to the gradient.
 Leave Link  701 at Wed Oct  7 13:06:13 2020, MaxMem=  2684354560 cpu:               3.6 elap:               0.7
 (Enter /udrive/faculty/rpeverati/g16/g16/l702.exe)
 L702 exits ... SP integral derivatives will be done elsewhere.
 Leave Link  702 at Wed Oct  7 13:06:14 2020, MaxMem=  2684354560 cpu:               1.8 elap:               0.5
 (Enter /udrive/faculty/rpeverati/g16/g16/l703.exe)
 Integral derivatives from FoFJK, PRISM(SPDF).
 Compute integral first derivatives, UseDBF=F ICtDFT=           0.
 Calling FoFJK, ICntrl=      2527 FMM=F ISym2X=1 I1Cent= 0 IOpClX= 0 NMat=1 NMatS=1 NMatT=0.
 FoFJK:  IHMeth= 1 ICntrl=    2527 DoSepK=F KAlg= 0 I1Cent=           0 FoldK=F
 IRaf=         0 NMat=       1 IRICut=       1 DoRegI=T DoRafI=F ISym2E= 1 IDoP0=0 IntGTp=1.
 FoFCou: FMM=F IPFlag=           0 FMFlag=      100000 FMFlg1=         800
         NFxFlg=           0 DoJE=F BraDBF=F KetDBF=F FulRan=T
         wScrn=  0.000000 ICntrl=      2527 IOpCl=  0 I1Cent=           0 NGrid=           0
         NMat0=    1 NMatS0=      1 NMatT0=    0 NMatD0=    1 NMtDS0=    0 NMtDT0=    0
 Petite list used in FoFCou.
 Leave Link  703 at Wed Oct  7 13:06:15 2020, MaxMem=  2684354560 cpu:               5.5 elap:               0.8
 (Enter /udrive/faculty/rpeverati/g16/g16/l716.exe)
 Dipole        =-4.79296151D-01 2.89634693D-02 0.00000000D+00
 ***** Axes restored to original set *****
 -------------------------------------------------------------------
 Center     Atomic                   Forces (Hartrees/Bohr)
 Number     Number              X              Y              Z
 -------------------------------------------------------------------
      1        6          -0.000086260   -0.000023737   -0.000000000
      2        7          -0.000057110    0.000036866   -0.000000000
      3        1           0.000143369   -0.000013129   -0.000000000
 -------------------------------------------------------------------
 Cartesian Forces:  Max     0.000143369 RMS     0.000060875
 Leave Link  716 at Wed Oct  7 13:06:16 2020, MaxMem=  2684354560 cpu:               1.0 elap:               0.4
 (Enter /udrive/faculty/rpeverati/g16/g16/l103.exe)

 GradGradGradGradGradGradGradGradGradGradGradGradGradGradGradGradGradGrad
 Berny optimization.
 Optmz: redundant internal coordinate code flag= 1
 Red2BG:  D1=  4.60D-01 OD1=  5.03D-03 B2RMS=  0.00D+00 IAprox=0
 FormGI is forming the generalized inverse of G from B-inverse, IUseBI=4.
 Internal  Forces:  Max     0.000133376 RMS     0.000110037
 Search for a saddle point.
 Step number   4 out of a maximum of   50
 All quantities printed in internal units (Hartrees-Bohrs-Radians)
 Swapping is turned off.
 Update second derivatives using D2CorX and points    1    2    3    4
 The second derivative matrix:
                          R1        R2        A1
           R1           1.09245
           R2          -0.00741   0.22000
           A1           0.05216   0.14156  -0.12239
 ITU=  0  0  0  0
 Eigenvectors of the second derivative matrix:
                           1         2         3
     Eigenvalues --    -0.17543   0.27080   1.09469
   1         R1         0.04066   0.01291   0.99909
   2         R2         0.33744  -0.94135  -0.00157
   3         A1        -0.94047  -0.33720   0.04263
 RLam0= 3.61D-08.
 Iter=   1 RLamda= 0.00000000D+00 Sum=-1.06143357D-07.
 Iter=   2 RLamda=-1.06143357D-07 Sum=-1.06143316D-07.
 RFO step:  Lambda0=3.613878824D-08 Lambda=-1.06143357D-07.
 Linear search not attempted -- option 19 set.
 Iteration  1 RMS(Cart)=  0.00030994 RMS(Int)=  0.00000003
 Iteration  2 RMS(Cart)=  0.00000002 RMS(Int)=  0.00000000
 ITry= 1 IFail=0 DXMaxC= 3.74D-04 DCOld= 1.00D+10 DXMaxT= 1.00D-01 DXLimC= 3.00D+00 Rises=F
[...]
 XXXX=            -11.9918 YYYY=            -41.3642 ZZZZ=            -10.8437 XXXY=             -0.0456
 XXXZ=              0.0000 YYYX=              0.3509 YYYZ=              0.0000 ZZZX=              0.0000
 ZZZY=              0.0000 XXYY=             -8.6144 XXZZ=             -4.1762 YYZZ=             -8.1998
 XXYZ=              0.0000 YYXZ=              0.0000 ZZXY=              0.1155
 N-N= 2.381841329132D+01 E-N=-2.651223981429D+02  KE= 9.277011286023D+01
  Exact polarizability:  13.171   0.331  17.822   0.000  -0.000   8.672
 Approx polarizability:  22.394   1.686  43.034  -0.000   0.000  13.316
 No NMR shielding tensors so no spin-rotation constants.
 Leave Link  601 at Wed Oct  7 13:06:35 2020, MaxMem=  2684354560 cpu:               3.2 elap:               0.6
 (Enter /udrive/faculty/rpeverati/g16/g16/l701.exe)
 ... and contract with generalized density number  0.
 Compute integral second derivatives.
 R6Disp: Adding Grimme-D3(BJ) dispersion energy 2nd derivatives to the Hessian.
 Leave Link  701 at Wed Oct  7 13:06:36 2020, MaxMem=  2684354560 cpu:               4.1 elap:               0.6
 (Enter /udrive/faculty/rpeverati/g16/g16/l702.exe)
 L702 exits ... SP integral derivatives will be done elsewhere.
 Leave Link  702 at Wed Oct  7 13:06:36 2020, MaxMem=  2684354560 cpu:               1.2 elap:               0.4
 (Enter /udrive/faculty/rpeverati/g16/g16/l703.exe)
 Integral derivatives from FoFJK, PRISM(SPDF).
 Compute integral second derivatives, UseDBF=F ICtDFT=           0.
 Calling FoFJK, ICntrl=    100527 FMM=F ISym2X=1 I1Cent= 0 IOpClX= 0 NMat=1 NMatS=1 NMatT=0.
 FoFJK:  IHMeth= 1 ICntrl=  100527 DoSepK=F KAlg= 0 I1Cent=           0 FoldK=F
 IRaf=         0 NMat=       1 IRICut=       1 DoRegI=T DoRafI=F ISym2E= 1 IDoP0=0 IntGTp=1.
 FoFCou: FMM=F IPFlag=           0 FMFlag=      100000 FMFlg1=         800
         NFxFlg=           0 DoJE=F BraDBF=F KetDBF=F FulRan=T
         wScrn=  0.000000 ICntrl=    100527 IOpCl=  0 I1Cent=           0 NGrid=           0
         NMat0=    1 NMatS0=      1 NMatT0=    0 NMatD0=    1 NMtDS0=    0 NMtDT0=    0
 Petite list used in FoFCou.
 Leave Link  703 at Wed Oct  7 13:06:38 2020, MaxMem=  2684354560 cpu:              15.2 elap:               1.8
 (Enter /udrive/faculty/rpeverati/g16/g16/l716.exe)
 Dipole        =-4.79296138D-01 2.89637066D-02 0.00000000D+00
 Polarizability= 1.31709577D+01 3.30974682D-01 1.78216545D+01
                 7.42605856D-15-2.05150121D-14 8.67243341D+00
 Full mass-weighted force constant matrix:
 Low frequencies ----1115.8900   -0.0007    0.0013    0.0013    7.2765   17.6915
 Low frequencies ---   41.9123 1989.9194 2556.6264
 ******    1 imaginary frequencies (negative Signs) ****** 
 Diagonal vibrational polarizability:
        0.4370177       1.3501269       0.0000000
 Harmonic frequencies (cm**-1), IR intensities (KM/Mole), Raman scattering
 activities (A**4/AMU), depolarization ratios for plane and unpolarized
 incident light, reduced masses (AMU), force constants (mDyne/A),
 and normal coordinates:
                      1                      2                      3
                     A'                     A'                     A'
 Frequencies --  -1115.8898              1989.9194              2556.6264
 Red. masses --      1.1638                11.9034                 1.0583
 Frc consts  --      0.8538                27.7710                 4.0757
 IR Inten    --     61.7757                10.3436                92.7251
  Atom  AN      X      Y      Z        X      Y      Z        X      Y      Z
     1   6    -0.07  -0.06  -0.00    -0.03   0.72   0.00    -0.06  -0.01  -0.00
     2   7     0.07  -0.02  -0.00     0.01  -0.63   0.00    -0.02   0.00  -0.00
     3   1    -0.16   0.98   0.00     0.12   0.26   0.00     0.99   0.12   0.00

 -------------------
 - Thermochemistry -
 -------------------
 Temperature   298.150 Kelvin.  Pressure   1.00000 Atm.
 Atom     1 has atomic number  6 and mass  12.00000
 Atom     2 has atomic number  7 and mass  14.00307
 Atom     3 has atomic number  1 and mass   1.00783
 Molecular mass:    27.01090 amu.
 Principal axes and moments of inertia in atomic units:
                           1         2         3
     Eigenvalues --     4.36385  33.60186  37.96571
           X           -0.03040   0.99954   0.00000
           Y            0.99954   0.03040   0.00000
           Z            0.00000   0.00000   1.00000
 This molecule is an asymmetric top.
 Rotational symmetry number  1.
 Rotational temperatures (Kelvin)     19.84806     2.57765     2.28137
 Rotational constants (GHZ):         413.56643    53.70956    47.53608
    1 imaginary frequencies ignored.
 Zero-point vibrational energy      27194.4 (Joules/Mol)
                                    6.49961 (Kcal/Mol)
 Vibrational temperatures:   2863.05  3678.42
          (Kelvin)
 
 Zero-point correction=                           0.010358 (Hartree/Particle)
 Thermal correction to Energy=                    0.013191
 Thermal correction to Enthalpy=                  0.014135
 Thermal correction to Gibbs Free Energy=        -0.010662
 Sum of electronic and zero-point Energies=            -93.346250
 Sum of electronic and thermal Energies=               -93.343417
 Sum of electronic and thermal Enthalpies=             -93.342473
 Sum of electronic and thermal Free Energies=          -93.367270
 
                     E (Thermal)             CV                S
                      KCal/Mol        Cal/Mol-Kelvin    Cal/Mol-Kelvin
 Total                    8.277              5.975             52.190
 Electronic               0.000              0.000              0.000
 Translational            0.889              2.981             35.816
 Rotational               0.889              2.981             16.372
 Vibrational              6.500              0.014              0.002
                       Q            Log10(Q)             Ln(Q)
 Total Bot       0.802050D+05          4.904202         11.292341
 Total V=0       0.466070D+10          9.668452         22.262432
 Vib (Bot)       0.172100D-04         -4.764219        -10.970019
 Vib (V=0)       0.100007D+01          0.000031          0.000072
 Electronic      0.100000D+01          0.000000          0.000000
 Translational   0.551776D+07          6.741762         15.523482
 Rotational      0.844613D+03          2.926658          6.738879
 
                                                          TS search on BH76.
                                                             IR Spectrum
 
     2                            1                                                                                                  
     5                            9                                                                                                  
     5                            9                                                                                                  
     7                            0                                                                                                  
 
     X                            X                                                                                                  
     X                            X                                                                                                  
     X                                                                                                                               
     X                                                                                                                               
     X                                                                                                                               
     X                                                                                                                               
     X                                                                                                                               
     X                                                                                                                               
     X                                                                                                                               
     X                                                                                                                               
     X                                                                                                                               
     X                                                                                                                               
     X                                                                                                                               
     X                                                                                                                               
     X                                                                                                                               
     X                                                                                                                               
     X                                                                                                                               
     X                                                                                                                               
     X                                                                                                                               
     X                                                                                                                               
 
 ***** Axes restored to original set *****
 -------------------------------------------------------------------
 Center     Atomic                   Forces (Hartrees/Bohr)
 Number     Number              X              Y              Z
 -------------------------------------------------------------------
      1        6          -0.000086258   -0.000023724   -0.000000000
      2        7          -0.000057110    0.000036849   -0.000000000
      3        1           0.000143368   -0.000013125   -0.000000000
 -------------------------------------------------------------------
 Cartesian Forces:  Max     0.000143368 RMS     0.000060873
 Force constants in Cartesian coordinates: 
                1             2             3             4             5 
      1  0.107882D+00
      2 -0.717322D-02  0.924474D+00
      3  0.000000D+00  0.000000D+00  0.471019D-04
      4  0.754788D-01  0.348187D-01  0.000000D+00 -0.251381D-01
      5 -0.928529D-02 -0.974925D+00  0.000000D+00  0.955382D-02  0.988477D+00
      6  0.000000D+00  0.000000D+00  0.000000D+00  0.000000D+00  0.000000D+00
      7 -0.183360D+00 -0.276455D-01  0.000000D+00 -0.503408D-01 -0.268530D-03
      8  0.164585D-01  0.504510D-01  0.000000D+00 -0.443726D-01 -0.135521D-01
      9  0.000000D+00  0.000000D+00 -0.465750D-04  0.000000D+00  0.000000D+00
                6             7             8             9 
      6  0.177366D-04
      7  0.000000D+00  0.233701D+00
      8  0.000000D+00  0.279140D-01 -0.368989D-01
      9 -0.172097D-04  0.000000D+00  0.000000D+00  0.637847D-04
 FormGI is forming the generalized inverse of G from B-inverse, IUseBI=4.
 Force constants in internal coordinates: 
                1             2             3 
      1  0.988390D+00
      2 -0.609846D-02  0.221834D+00
      3  0.301269D-01  0.140960D+00 -0.129468D+00
 Leave Link  716 at Wed Oct  7 13:06:39 2020, MaxMem=  2684354560 cpu:               2.5 elap:               0.7
 (Enter /udrive/faculty/rpeverati/g16/g16/l103.exe)

 GradGradGradGradGradGradGradGradGradGradGradGradGradGradGradGradGradGrad
 Berny optimization.
 Optmz: redundant internal coordinate code flag= 1
 Red2BG:  D1=  4.60D-01 OD1=  6.66D-16 B2RMS=  0.00D+00 IAprox=1
 Red2BG is reusing G-inverse.
 Internal  Forces:  Max     0.000133372 RMS     0.000110034
 Search for a local minimum.
 Step number   1 out of a maximum of    2
 All quantities printed in internal units (Hartrees-Bohrs-Radians)
 Second derivative matrix not updated -- analytic derivatives used.
 The second derivative matrix:
                          R1        R2        A1
           R1           0.98839
           R2          -0.00610   0.22183
           A1           0.03013   0.14096  -0.12947
 ITU=  0
 Eigenvectors of the second derivative matrix:
                           1         2         3
     Eigenvalues --    -0.17983   0.27138   0.98921
   1         R1         0.02605   0.00590   0.99964
   2         R2         0.33138  -0.94349  -0.00307
   3         A1        -0.94314  -0.33134   0.02653
 Eigenvalue     1 is  -1.80D-01 should be greater than     0.000000 Eigenvector:
                          A1        R2        R1
   1                   -0.94314   0.33138   0.02605
 Angle between quadratic step and forces=  13.42 degrees.
 Linear search not attempted -- first point.
 Iteration  1 RMS(Cart)=  0.00061180 RMS(Int)=  0.00000011
 Iteration  2 RMS(Cart)=  0.00000007 RMS(Int)=  0.00000000
 ITry= 1 IFail=0 DXMaxC= 6.57D-04 DCOld= 1.00D+10 DXMaxT= 3.00D-01 DXLimC= 3.00D+00 Rises=F
 ClnCor:  largest displacement from symmetrization is 4.74D-16 for atom     3.
 Variable       Old X    -DE/DX   Delta X   Delta X   Delta X     New X
                                 (Linear)    (Quad)   (Total)
    R1        2.27327  -0.00004   0.00000  -0.00002  -0.00002   2.27325
    R2        2.27061  -0.00013   0.00000  -0.00043  -0.00043   2.27017
    A1        1.21369  -0.00013   0.00000  -0.00063  -0.00063   1.21305
         Item               Value     Threshold  Converged?
 Maximum Force            0.000133     0.000450     YES
 RMS     Force            0.000110     0.000300     YES
 Maximum Displacement     0.000657     0.001800     YES
 RMS     Displacement     0.000612     0.001200     YES
 Predicted change in Energy=-1.079069D-07
 Optimization completed.
    -- Stationary point found.
                           ----------------------------
                           !   Optimized Parameters   !
                           ! (Angstroms and Degrees)  !
 --------------------------                            --------------------------
 ! Name  Definition              Value          Derivative Info.                !
 --------------------------------------------------------------------------------
 ! R1    R(1,2)                  1.203          -DE/DX =    0.0                 !
 ! R2    R(1,3)                  1.2016         -DE/DX =   -0.0001              !
 ! A1    A(2,1,3)               69.5391         -DE/DX =   -0.0001              !
 --------------------------------------------------------------------------------
 GradGradGradGradGradGradGradGradGradGradGradGradGradGradGradGradGradGrad

 Leave Link  103 at Wed Oct  7 13:06:40 2020, MaxMem=  2684354560 cpu:               3.0 elap:               0.7
 (Enter /udrive/faculty/rpeverati/g16/g16/l9999.exe)

 ----------------------------------------------------------------------

 Electric dipole moment (input orientation):
 (Debye = 10**-18 statcoulomb cm , SI units = C m)
                  (au)            (Debye)         (10**-30 SI)
   Tot        0.480170D+00      0.122047D+01      0.407105D+01
   x         -0.478524D+00     -0.121629D+01     -0.405710D+01
   y          0.397271D-01      0.100976D+00      0.336820D+00
   z          0.000000D+00      0.000000D+00      0.000000D+00

 Dipole polarizability, Alpha (input orientation).
 (esu units = cm**3 , SI units = C**2 m**2 J**-1)
 Alpha(0;0):
               (au)            (10**-24 esu)      (10**-40 SI)
   iso        0.132217D+02      0.195925D+01      0.217996D+01
   aniso      0.794453D+01      0.117726D+01      0.130988D+01
   xx         0.131882D+02      0.195429D+01      0.217444D+01
   yx         0.435124D+00      0.644787D-01      0.717422D-01
   yy         0.178044D+02      0.263834D+01      0.293555D+01
   zx         0.000000D+00      0.000000D+00      0.000000D+00
   zy         0.000000D+00      0.000000D+00      0.000000D+00
   zz         0.867243D+01      0.128512D+01      0.142989D+01

 ----------------------------------------------------------------------

 Dipole orientation:
     6          0.10011817          1.20595250         -0.07552450
     7         -0.08761924         -1.05539928         -0.21264736
     1          0.02395131          0.28850049          2.00007929

 Electric dipole moment (dipole orientation):
 (Debye = 10**-18 statcoulomb cm , SI units = C m)
                  (au)            (Debye)         (10**-30 SI)
   Tot        0.480170D+00      0.122047D+01      0.407105D+01
   x          0.000000D+00      0.000000D+00      0.000000D+00
   y          0.000000D+00      0.000000D+00      0.000000D+00
   z          0.480170D+00      0.122047D+01      0.407105D+01

 Dipole polarizability, Alpha (dipole orientation).
 (esu units = cm**3 , SI units = C**2 m**2 J**-1)
 Alpha(0;0):
               (au)            (10**-24 esu)      (10**-40 SI)
   iso        0.132217D+02      0.195925D+01      0.217996D+01
   aniso      0.794453D+01      0.117726D+01      0.130988D+01
   xx         0.873522D+01      0.129443D+01      0.144024D+01
   yx         0.756260D+00      0.112066D+00      0.124690D+00
   yy         0.177818D+02      0.263499D+01      0.293182D+01
   zx        -0.401669D-02     -0.595213D-03     -0.662263D-03
   zy        -0.483822D-01     -0.716951D-02     -0.797715D-02
   zz         0.131480D+02      0.194834D+01      0.216782D+01

 ----------------------------------------------------------------------

 Test job not archived.
 1\1\GINC-NODE06\Freq\RTPSSTPSS\6-31G(d)\C1H1N1\RPEVERATI\07-Oct-2020\0
 \\#P Freq TPSSTPSS/6-31G* 5D 7F Integral=UltraFineGrid SCF=(NoSymm,XQC
 ,MaxCyc=120) EmpiricalDispersion=GD3BJ IOp(1/33=1) Geom=Check Guess=Re
 ad\\TS search on BH76.\\0,1\C,0.0928090793,0.6348559899,0.\N,0.0657762
 346,-0.5678033013,0.\H,-1.042093235,0.2402346967,0.\\Version=ES64L-G16
 RevA.03\State=1-A'\HF=-93.3566077\RMSD=1.862e-09\RMSF=6.087e-05\ZeroPo
 int=0.0103578\Thermal=0.013191\Dipole=-0.4785242,0.0397271,0.\DipoleDe
 riv=-0.1988887,0.0399127,0.,0.2058559,-0.0773357,0.,0.,0.,-0.1338918,-
 0.0990566,0.0550783,0.,-0.2284567,-0.1752904,0.,0.,0.,-0.0914085,0.297
 9452,-0.094991,0.,0.0226009,0.2526261,0.,0.,0.,0.2253004\Polar=13.1881
 777,0.4351239,17.8044345,0.,0.,8.6724334\Quadrupole=1.7306917,-1.72677
 67,-0.003915,-0.2593043,0.,0.\PG=CS [SG(C1H1N1)]\NImag=1\\0.10788153,-
 0.00717322,0.92447404,0.,0.,0.00004710,0.07547882,0.03481874,0.,-0.025
 13805,-0.00928529,-0.97492500,0.,0.00955382,0.98847708,0.,0.,-0.000000
 53,0.,0.,0.00001774,-0.18336035,-0.02764551,0.,-0.05034077,-0.00026853
 ,0.,0.23370112,0.01645851,0.05045097,0.,-0.04437256,-0.01355208,0.,0.0
 2791404,-0.03689888,0.,0.,-0.00004657,0.,0.,-0.00001721,0.,0.,0.000063
 78\\0.00008626,0.00002372,0.,0.00005711,-0.00003685,0.,-0.00014337,0.0
 0001313,0.\\\@


 THE ENLIGHTENED ONE, BECAUSE HE SAW MANKIND DROWNING  
 IN THE GREAT SEA OF BIRTH, DEATH, AND SORROW, LONGED TO SAVE 
 THEM, FOR THIS HE WAS MOVED TO PITY.                         
 BECAUSE HE SAW MEN OF THE WORLD STRAYING IN FALSE PATHS, AND 
 NONE TO GUIDE THEM, FOR THIS HE WAS MOVED TO PITY.           
                     ..................                       
 BECAUSE HE SAW THE MEN OF THE WORLD PLOUGHING THEIR FIELDS,  
 SOWING THE SEED, TRAFFICKING, HUCKSTERING, BUYING, SELLING,  
 AND AT THE END WINNOWING NOTHING BUT BITTERNESS,             
 FOR THIS HE WAS MOVED TO PITY......                   
                   BUDAH'S PITY - UPSAKA SILA SUTRA           
 Job cpu time:       0 days  0 hours  1 minutes 41.0 seconds.
 Elapsed time:       0 days  0 hours  0 minutes 16.7 seconds.
 File lengths (MBytes):  RWF=      5 Int=      0 D2E=      0 Chk=      1 Scr=      1
 Normal termination of Gaussian 16 at Wed Oct  7 13:06:41 2020.
