 Entering Gaussian System, Link 0=g16
 Input=MN_76_PH2_BH76_TPSSDBJ_631Gs.in
 Output=MN_76_PH2_BH76_TPSSDBJ_631Gs.log
 Initial command:
 /udrive/faculty/rpeverati/g16/g16/l1.exe "/udrive/scratch-directories/gaussian09/rpeverati/Gau-37667.inp" -scrdir="/udrive/scratch-directories/gaussian09/rpeverati/"
 Entering Link 1 = /udrive/faculty/rpeverati/g16/g16/l1.exe PID=     37679.
  
 Copyright (c) 1988,1990,1992,1993,1995,1998,2003,2009,2016,
            Gaussian, Inc.  All Rights Reserved.
  
 This is part of the Gaussian(R) 16 program.  It is based on
 the Gaussian(R) 09 system (copyright 2009, Gaussian, Inc.),
 the Gaussian(R) 03 system (copyright 2003, Gaussian, Inc.),
 the Gaussian(R) 98 system (copyright 1998, Gaussian, Inc.),
 the Gaussian(R) 94 system (copyright 1995, Gaussian, Inc.),
 the Gaussian 92(TM) system (copyright 1992, Gaussian, Inc.),
 the Gaussian 90(TM) system (copyright 1990, Gaussian, Inc.),
 the Gaussian 88(TM) system (copyright 1988, Gaussian, Inc.),
 the Gaussian 86(TM) system (copyright 1986, Carnegie Mellon
 University), and the Gaussian 82(TM) system (copyright 1983,
 Carnegie Mellon University). Gaussian is a federally registered
 trademark of Gaussian, Inc.
  
 This software contains proprietary and confidential information,
 including trade secrets, belonging to Gaussian, Inc.
  
 This software is provided under written license and may be
 used, copied, transmitted, or stored only in accord with that
 written license.
  
 The following legend is applicable only to US Government
 contracts under FAR:
  
                    RESTRICTED RIGHTS LEGEND
  
 Use, reproduction and disclosure by the US Government is
 subject to restrictions as set forth in subparagraphs (a)
 and (c) of the Commercial Computer Software - Restricted
 Rights clause in FAR 52.227-19.
  
 Gaussian, Inc.
 340 Quinnipiac St., Bldg. 40, Wallingford CT 06492
  
  
 ---------------------------------------------------------------
 Warning -- This program may not be used in any manner that
 competes with the business of Gaussian, Inc. or will provide
 assistance to any competitor of Gaussian, Inc.  The licensee
 of this program is prohibited from giving any competitor of
 Gaussian, Inc. access to this program.  By using this program,
 the user acknowledges that Gaussian, Inc. is engaged in the
 business of creating and licensing software in the field of
 computational chemistry and represents and warrants to the
 licensee that it is not a competitor of Gaussian, Inc. and that
 it will not use this program in any manner prohibited above.
 ---------------------------------------------------------------
  

 Cite this work as:
 Gaussian 16, Revision A.03,
 M. J. Frisch, G. W. Trucks, H. B. Schlegel, G. E. Scuseria, 
 M. A. Robb, J. R. Cheeseman, G. Scalmani, V. Barone, 
 G. A. Petersson, H. Nakatsuji, X. Li, M. Caricato, A. V. Marenich, 
 J. Bloino, B. G. Janesko, R. Gomperts, B. Mennucci, H. P. Hratchian, 
 J. V. Ortiz, A. F. Izmaylov, J. L. Sonnenberg, D. Williams-Young, 
 F. Ding, F. Lipparini, F. Egidi, J. Goings, B. Peng, A. Petrone, 
 T. Henderson, D. Ranasinghe, V. G. Zakrzewski, J. Gao, N. Rega, 
 G. Zheng, W. Liang, M. Hada, M. Ehara, K. Toyota, R. Fukuda, 
 J. Hasegawa, M. Ishida, T. Nakajima, Y. Honda, O. Kitao, H. Nakai, 
 T. Vreven, K. Throssell, J. A. Montgomery, Jr., J. E. Peralta, 
 F. Ogliaro, M. J. Bearpark, J. J. Heyd, E. N. Brothers, K. N. Kudin, 
 V. N. Staroverov, T. A. Keith, R. Kobayashi, J. Normand, 
 K. Raghavachari, A. P. Rendell, J. C. Burant, S. S. Iyengar, 
 J. Tomasi, M. Cossi, J. M. Millam, M. Klene, C. Adamo, R. Cammi, 
 J. W. Ochterski, R. L. Martin, K. Morokuma, O. Farkas, 
 J. B. Foresman, and D. J. Fox, Gaussian, Inc., Wallingford CT, 2016.
 
 ******************************************
 Gaussian 16:  ES64L-G16RevA.03 25-Dec-2016
                 7-Oct-2020 
 ******************************************
 %NoSave
 %nproc=12
 Will use up to   12 processors via shared memory.
 %mem=20GB
 %chk=MN_76_PH2_BH76_TPSSDBJ_631Gs
 ----------------------------------------------------------------------
 #P Opt(MaxCyc=100) TPSSTPSS/6-31G* 5D 7F Integral=UltraFineGrid SCF=(N
 oSymm,XQC,MaxCyc=120) EmpiricalDispersion=GD3BJ IOp(1/33=1)
 ----------------------------------------------------------------------
 1/6=100,18=20,19=15,26=4,33=1,38=1/1,3;
 2/9=110,12=2,17=6,18=5,40=1/2;
 3/5=1,6=6,7=1,8=11,11=2,25=1,30=1,71=1,74=2523,75=-5,124=41/1,2,3;
 4/9=2/1;
 5/5=2,7=120,8=3,13=1,38=5/2,8;
 6/7=2,8=2,9=2,10=2,28=1/1;
 7//1,2,3,16;
 1/6=100,18=20,19=15,26=4,33=1/3(2);
 2/9=110/2;
 99//99;
 2/9=110/2;
 3/5=1,6=6,7=1,8=11,11=2,25=1,30=1,71=1,74=2523,75=-5,124=41/1,2,3;
 4/5=5,9=2,16=3,69=1/1;
 5/5=2,7=120,8=3,13=1,38=5/2,8;
 7//1,2,3,16;
 1/6=100,18=20,19=15,26=4,33=1/3(-5);
 2/9=110/2;
 6/7=2,8=2,9=2,10=2,19=2,28=1/1;
 99/9=1/99;
 Leave Link    1 at Wed Oct  7 13:07:00 2020, MaxMem=  2684354560 cpu:               7.4 elap:               0.7
 (Enter /udrive/faculty/rpeverati/g16/g16/l101.exe)
 ONIOM data not found on unit 2.
 ------------------
 TS search on BH76.
 ------------------
 TstMul:  ICh=     0
 TstMul:  Mul=     2
 TstMul:  ICh=     0
 TstMul:  Mul=     2
 Symbolic Z-matrix:
 Charge =  0 Multiplicity = 2
 P                     0.        0.        0.11566 
 H                     0.        1.02013  -0.86743 
 H                     0.       -1.02013  -0.86743 
 
 RdStrC is calling ZToCFu for IStruc=1 NZ=     3.
 PrtBox:  NBox=     1 Levels=  1 BoxLen=    8.00 SMaxX=        3.86
          Shift=            0.000000            1.927770            1.639200
 Box      1 Number                   0 centers from      1 to      3:
 After GenITR:
 ITRead=  0  0  0
 MicOpt= -1 -1 -1
 ITRead=  0  0  0
 MicOpt= -1 -1 -1
 NAtoms=      3 NQM=        3 NQMF=       0 NMMI=      0 NMMIF=      0
                NMic=       0 NMicF=      0.
                    Isotopes and Nuclear Properties:
 (Nuclear quadrupole moments (NQMom) in fm**2, nuclear magnetic moments (NMagM)
  in nuclear magnetons)

  Atom         1           2           3
 IAtWgt=          31           1           1
 AtmWgt=  30.9737634   1.0078250   1.0078250
 NucSpn=           1           1           1
 AtZEff=   0.0000000   0.0000000   0.0000000
 NQMom=    0.0000000   0.0000000   0.0000000
 NMagM=    1.1316000   2.7928460   2.7928460
 AtZNuc=  15.0000000   1.0000000   1.0000000
 No MM parameters found.
 Leave Link  101 at Wed Oct  7 13:07:01 2020, MaxMem=  2684354560 cpu:               3.9 elap:               0.7
 (Enter /udrive/faculty/rpeverati/g16/g16/l103.exe)

 GradGradGradGradGradGradGradGradGradGradGradGradGradGradGradGradGradGrad
 Berny optimization.
 Optmz: redundant internal coordinate code flag= 1
 Initialization pass.
                           ----------------------------
                           !    Initial Parameters    !
                           ! (Angstroms and Degrees)  !
 --------------------------                            --------------------------
 ! Name  Definition              Value          Derivative Info.                !
 --------------------------------------------------------------------------------
 ! R1    R(1,2)                  1.4167         estimate D2E/DX2                !
 ! R2    R(1,3)                  1.4167         estimate D2E/DX2                !
 ! A1    A(2,1,3)               92.119          estimate D2E/DX2                !
 --------------------------------------------------------------------------------
 Maximum allowed force set to 1.00D+20.
 Trust Radius=3.00D-01 FncErr=1.00D-07 GrdErr=1.00D-06 EigMax=2.50D+02 EigMin=1.00D-04
 Number of steps in this run=    100 maximum allowed number of steps=    100.
 GradGradGradGradGradGradGradGradGradGradGradGradGradGradGradGradGradGrad

 Leave Link  103 at Wed Oct  7 13:07:02 2020, MaxMem=  2684354560 cpu:               0.8 elap:               0.3
 (Enter /udrive/faculty/rpeverati/g16/g16/l202.exe)
                          Input orientation:                          
 ---------------------------------------------------------------------
 Center     Atomic      Atomic             Coordinates (Angstroms)
 Number     Number       Type             X           Y           Z
 ---------------------------------------------------------------------
      1         15           0        0.000000    0.000000    0.115657
      2          1           0        0.000000    1.020132   -0.867427
      3          1           0        0.000000   -1.020132   -0.867427
 ---------------------------------------------------------------------
                    Distance matrix (angstroms):
                    1          2          3
     1  P    0.000000
     2  H    1.416730   0.000000
     3  H    1.416730   2.040264   0.000000
 Stoichiometry    H2P(2)
 Framework group  C2V[C2(P),SGV(H2)]
 Deg. of freedom     2
 Full point group                 C2V     NOp   4
 Largest Abelian subgroup         C2V     NOp   4
 Largest concise Abelian subgroup C2      NOp   2
                         Standard orientation:                         
 ---------------------------------------------------------------------
 Center     Atomic      Atomic             Coordinates (Angstroms)
 Number     Number       Type             X           Y           Z
 ---------------------------------------------------------------------
      1         15           0        0.000000   -0.000000    0.115657
      2          1           0        0.000000    1.020132   -0.867427
      3          1           0       -0.000000   -1.020132   -0.867427
 ---------------------------------------------------------------------
 Rotational constants (GHZ):         276.3129231         240.9291565         128.7053821
 Leave Link  202 at Wed Oct  7 13:07:03 2020, MaxMem=  2684354560 cpu:               1.5 elap:               0.6
 (Enter /udrive/faculty/rpeverati/g16/g16/l301.exe)
 Standard basis: 6-31G(d) (5D, 7F)
 Ernie: Thresh=  0.10000D-02 Tol=  0.10000D-05 Strict=F.
 There are    12 symmetry adapted cartesian basis functions of A1  symmetry.
 There are     1 symmetry adapted cartesian basis functions of A2  symmetry.
 There are     4 symmetry adapted cartesian basis functions of B1  symmetry.
 There are     6 symmetry adapted cartesian basis functions of B2  symmetry.
 There are    11 symmetry adapted basis functions of A1  symmetry.
 There are     1 symmetry adapted basis functions of A2  symmetry.
 There are     4 symmetry adapted basis functions of B1  symmetry.
 There are     6 symmetry adapted basis functions of B2  symmetry.
    22 basis functions,    60 primitive gaussians,    23 cartesian basis functions
     9 alpha electrons        8 beta electrons
       nuclear repulsion energy        11.4649718428 Hartrees.
 IExCor= 2523 DFT=T Ex=TPSS Corr=TPSS ExCW=0 ScaHFX=  0.000000
 ScaDFX=  1.000000  1.000000  1.000000  1.000000 ScalE2=  1.000000  1.000000
 IRadAn=      5 IRanWt=     -1 IRanGd=            0 ICorTp=0 IEmpDi=141
 NAtoms=    3 NActive=    3 NUniq=    2 SFac= 2.25D+00 NAtFMM=   60 NAOKFM=F Big=F
 Integral buffers will be    131072 words long.
 Raffenetti 2 integral format.
 Two-electron integral symmetry is turned on.
 R6Disp:  Grimme-D3(BJ) Dispersion energy=       -0.0010850157 Hartrees.
 Nuclear repulsion after empirical dispersion term =       11.4638868271 Hartrees.
 Leave Link  301 at Wed Oct  7 13:07:04 2020, MaxMem=  2684354560 cpu:               1.8 elap:               0.6
 (Enter /udrive/faculty/rpeverati/g16/g16/l302.exe)
 NPDir=0 NMtPBC=     1 NCelOv=     1 NCel=       1 NClECP=     1 NCelD=      1
         NCelK=      1 NCelE2=     1 NClLst=     1 CellRange=     0.0.
 One-electron integrals computed using PRISM.
 One-electron integral symmetry used in STVInt
 NBasis=    22 RedAO= T EigKep=  3.32D-02  NBF=    11     1     4     6
 NBsUse=    22 1.00D-06 EigRej= -1.00D+00 NBFU=    11     1     4     6
 Precomputing XC quadrature grid using
 IXCGrd= 4 IRadAn=           5 IRanWt=          -1 IRanGd=           0 AccXCQ= 0.00D+00.
 Generated NRdTot=       0 NPtTot=           0 NUsed=           0 NTot=          32
 NSgBfM=    23    23    23    23    23 MxSgAt=     3 MxSgA2=     3.
 Leave Link  302 at Wed Oct  7 13:07:04 2020, MaxMem=  2684354560 cpu:               2.6 elap:               0.7
 (Enter /udrive/faculty/rpeverati/g16/g16/l303.exe)
 DipDrv:  MaxL=1.
 Leave Link  303 at Wed Oct  7 13:07:05 2020, MaxMem=  2684354560 cpu:               1.1 elap:               0.6
 (Enter /udrive/faculty/rpeverati/g16/g16/l401.exe)
 SCF N**3 symmetry information disabled.
 ExpMin= 9.98D-02 ExpMax= 1.94D+04 ExpMxC= 2.91D+03 IAcc=3 IRadAn=         5 AccDes= 0.00D+00
 Harris functional with IExCor= 1009 and IRadAn=       5 diagonalized for initial guess.
 HarFok:  IExCor= 1009 AccDes= 0.00D+00 IRadAn=         5 IDoV= 1 UseB2=F ITyADJ=14
 ICtDFT=  3500011 ScaDFX=  1.000000  1.000000  1.000000  1.000000
 FoFCou: FMM=F IPFlag=           0 FMFlag=      100000 FMFlg1=           0
         NFxFlg=           0 DoJE=T BraDBF=F KetDBF=T FulRan=T
         wScrn=  0.000000 ICntrl=       500 IOpCl=  0 I1Cent=   200000004 NGrid=           0
         NMat0=    1 NMatS0=      1 NMatT0=    0 NMatD0=    1 NMtDS0=    0 NMtDT0=    0
 Petite list used in FoFCou.
 Harris En= -342.279600321192    
 JPrj=0 DoOrth=F DoCkMO=F.
 Initial guess orbital symmetries:
 Alpha Orbitals:
       Occupied  (A1) (A1) (B2) (A1) (B1) (A1) (B2) (A1) (B1)
       Virtual   (B2) (A1) (A1) (B2) (A1) (B1) (A1) (A2) (B1) (B2)
                 (A1) (A1) (B2)
 Beta  Orbitals:
       Occupied  (A1) (A1) (B2) (A1) (B1) (A1) (B2) (A1)
       Virtual   (B1) (B2) (A1) (A1) (B2) (A1) (B1) (A1) (A2) (B1)
                 (B2) (A1) (A1) (B2)
 The electronic state of the initial guess is 2-B1.
 Initial guess <Sx>= 0.0000 <Sy>= 0.0000 <Sz>= 0.5000 <S**2>= 0.7500 S= 0.5000
 Leave Link  401 at Wed Oct  7 13:07:06 2020, MaxMem=  2684354560 cpu:               3.7 elap:               0.6
 (Enter /udrive/faculty/rpeverati/g16/g16/l502.exe)
 Keep J ints in memory in symmetry-blocked form, NReq=10385707.
 FoFCou: FMM=F IPFlag=           0 FMFlag=           0 FMFlg1=           0
         NFxFlg=           0 DoJE=F BraDBF=F KetDBF=F FulRan=T
         wScrn=  0.000000 ICntrl=       600 IOpCl=  0 I1Cent=           0 NGrid=           0
         NMat0=    1 NMatS0=    253 NMatT0=    0 NMatD0=    1 NMtDS0=    0 NMtDT0=    0
 Petite list used in FoFCou.
 UHF open shell SCF:
 Using DIIS extrapolation, IDIIS=  1040.
 NGot=  2684354560 LenX=  2684342189 LenY=  2684341219
 Requested convergence on RMS density matrix=1.00D-08 within 120 cycles.
 Requested convergence on MAX density matrix=1.00D-06.
 Requested convergence on             energy=1.00D-06.
 No special actions if energy rises.
 Integral accuracy reduced to 1.0D-05 until final iterations.

 Cycle   1  Pass 0  IDiag  1:
 E= -342.503132825128    
 DIIS: error= 8.94D-03 at cycle   1 NSaved=   1.
 NSaved= 1 IEnMin= 1 EnMin= -342.503132825128     IErMin= 1 ErrMin= 8.94D-03
 ErrMax= 8.94D-03  0.00D+00 EMaxC= 1.00D-01 BMatC= 1.33D-02 BMatP= 1.33D-02
 IDIUse=3 WtCom= 9.11D-01 WtEn= 8.94D-02
 Coeff-Com:  0.100D+01
 Coeff-En:   0.100D+01
 Coeff:      0.100D+01
 Gap=     0.230 Goal=   None    Shift=    0.000
 Gap=     0.114 Goal=   None    Shift=    0.000
 GapD=    0.114 DampG=1.000 DampE=1.000 DampFc=1.0000 IDamp=-1.
 RMSDP=4.47D-03 MaxDP=3.75D-02              OVMax= 4.43D-02

 Cycle   2  Pass 0  IDiag  1:
 E= -342.506600632656     Delta-E=       -0.003467807528 Rises=F Damp=F
 DIIS: error= 4.57D-03 at cycle   2 NSaved=   2.
 NSaved= 2 IEnMin= 2 EnMin= -342.506600632656     IErMin= 2 ErrMin= 4.57D-03
 ErrMax= 4.57D-03  0.00D+00 EMaxC= 1.00D-01 BMatC= 1.61D-03 BMatP= 1.33D-02
 IDIUse=3 WtCom= 9.54D-01 WtEn= 4.57D-02
 Coeff-Com:  0.201D+00 0.799D+00
 Coeff-En:   0.000D+00 0.100D+01
 Coeff:      0.192D+00 0.808D+00
 Gap=     0.229 Goal=   None    Shift=    0.000
 Gap=     0.118 Goal=   None    Shift=    0.000
 RMSDP=2.40D-03 MaxDP=1.53D-02 DE=-3.47D-03 OVMax= 2.45D-02

 Cycle   3  Pass 0  IDiag  1:
 E= -342.507153306378     Delta-E=       -0.000552673722 Rises=F Damp=F
 DIIS: error= 2.11D-03 at cycle   3 NSaved=   3.
 NSaved= 3 IEnMin= 3 EnMin= -342.507153306378     IErMin= 3 ErrMin= 2.11D-03
 ErrMax= 2.11D-03  0.00D+00 EMaxC= 1.00D-01 BMatC= 4.16D-04 BMatP= 1.61D-03
 IDIUse=3 WtCom= 9.79D-01 WtEn= 2.11D-02
 Coeff-Com: -0.194D-02 0.325D+00 0.677D+00
 Coeff-En:   0.000D+00 0.105D+00 0.895D+00
 Coeff:     -0.189D-02 0.321D+00 0.681D+00
 Gap=     0.231 Goal=   None    Shift=    0.000
 Gap=     0.120 Goal=   None    Shift=    0.000
 RMSDP=1.05D-03 MaxDP=7.75D-03 DE=-5.53D-04 OVMax= 8.47D-03

 Cycle   4  Pass 0  IDiag  1:
 E= -342.507339901845     Delta-E=       -0.000186595467 Rises=F Damp=F
 DIIS: error= 3.76D-04 at cycle   4 NSaved=   4.
 NSaved= 4 IEnMin= 4 EnMin= -342.507339901845     IErMin= 4 ErrMin= 3.76D-04
 ErrMax= 3.76D-04  0.00D+00 EMaxC= 1.00D-01 BMatC= 1.03D-05 BMatP= 4.16D-04
 IDIUse=3 WtCom= 9.96D-01 WtEn= 3.76D-03
 Coeff-Com: -0.745D-02 0.163D-01 0.137D+00 0.854D+00
 Coeff-En:   0.000D+00 0.000D+00 0.000D+00 0.100D+01
 Coeff:     -0.742D-02 0.162D-01 0.137D+00 0.855D+00
 Gap=     0.231 Goal=   None    Shift=    0.000
 Gap=     0.121 Goal=   None    Shift=    0.000
 RMSDP=1.65D-04 MaxDP=2.06D-03 DE=-1.87D-04 OVMax= 1.16D-03

 Cycle   5  Pass 0  IDiag  1:
 E= -342.507344297578     Delta-E=       -0.000004395733 Rises=F Damp=F
 DIIS: error= 1.06D-04 at cycle   5 NSaved=   5.
 NSaved= 5 IEnMin= 5 EnMin= -342.507344297578     IErMin= 5 ErrMin= 1.06D-04
 ErrMax= 1.06D-04  0.00D+00 EMaxC= 1.00D-01 BMatC= 9.67D-07 BMatP= 1.03D-05
 IDIUse=3 WtCom= 9.99D-01 WtEn= 1.06D-03
 Coeff-Com: -0.327D-02-0.271D-01-0.182D-01 0.230D+00 0.819D+00
 Coeff-En:   0.000D+00 0.000D+00 0.000D+00 0.000D+00 0.100D+01
 Coeff:     -0.327D-02-0.271D-01-0.182D-01 0.230D+00 0.819D+00
 Gap=     0.231 Goal=   None    Shift=    0.000
 Gap=     0.121 Goal=   None    Shift=    0.000
 RMSDP=3.90D-05 MaxDP=5.05D-04 DE=-4.40D-06 OVMax= 3.06D-04

 Cycle   6  Pass 0  IDiag  1:
 E= -342.507344728266     Delta-E=       -0.000000430688 Rises=F Damp=F
 DIIS: error= 2.60D-05 at cycle   6 NSaved=   6.
 NSaved= 6 IEnMin= 6 EnMin= -342.507344728266     IErMin= 6 ErrMin= 2.60D-05
 ErrMax= 2.60D-05  0.00D+00 EMaxC= 1.00D-01 BMatC= 1.84D-08 BMatP= 9.67D-07
 IDIUse=1 WtCom= 1.00D+00 WtEn= 0.00D+00
 Coeff-Com:  0.702D-03 0.163D-02-0.279D-02-0.488D-01-0.851D-01 0.113D+01
 Coeff:      0.702D-03 0.163D-02-0.279D-02-0.488D-01-0.851D-01 0.113D+01
 Gap=     0.231 Goal=   None    Shift=    0.000
 Gap=     0.121 Goal=   None    Shift=    0.000
 RMSDP=8.29D-06 MaxDP=8.06D-05 DE=-4.31D-07 OVMax= 9.32D-05

 Initial convergence to 1.0D-05 achieved.  Increase integral accuracy.
 Cycle   7  Pass 1  IDiag  1:
 E= -342.507357668861     Delta-E=       -0.000012940595 Rises=F Damp=F
 DIIS: error= 5.54D-06 at cycle   1 NSaved=   1.
 NSaved= 1 IEnMin= 1 EnMin= -342.507357668861     IErMin= 1 ErrMin= 5.54D-06
 ErrMax= 5.54D-06  0.00D+00 EMaxC= 1.00D-01 BMatC= 2.63D-09 BMatP= 2.63D-09
 IDIUse=1 WtCom= 1.00D+00 WtEn= 0.00D+00
 Coeff-Com:  0.100D+01
 Coeff:      0.100D+01
 Gap=     0.231 Goal=   None    Shift=    0.000
 Gap=     0.121 Goal=   None    Shift=    0.000
 RMSDP=8.29D-06 MaxDP=8.06D-05 DE=-1.29D-05 OVMax= 2.38D-05

 Cycle   8  Pass 1  IDiag  1:
 E= -342.507357670122     Delta-E=       -0.000000001261 Rises=F Damp=F
 DIIS: error= 4.12D-06 at cycle   2 NSaved=   2.
 NSaved= 2 IEnMin= 2 EnMin= -342.507357670122     IErMin= 2 ErrMin= 4.12D-06
 ErrMax= 4.12D-06  0.00D+00 EMaxC= 1.00D-01 BMatC= 7.61D-10 BMatP= 2.63D-09
 IDIUse=1 WtCom= 1.00D+00 WtEn= 0.00D+00
 Coeff-Com:  0.284D+00 0.716D+00
 Coeff:      0.284D+00 0.716D+00
 Gap=     0.231 Goal=   None    Shift=    0.000
 Gap=     0.121 Goal=   None    Shift=    0.000
 RMSDP=1.39D-06 MaxDP=1.38D-05 DE=-1.26D-09 OVMax= 1.25D-05

 Cycle   9  Pass 1  IDiag  1:
 E= -342.507357670409     Delta-E=       -0.000000000286 Rises=F Damp=F
 DIIS: error= 1.66D-06 at cycle   3 NSaved=   3.
 NSaved= 3 IEnMin= 3 EnMin= -342.507357670409     IErMin= 3 ErrMin= 1.66D-06
 ErrMax= 1.66D-06  0.00D+00 EMaxC= 1.00D-01 BMatC= 1.03D-10 BMatP= 7.61D-10
 IDIUse=1 WtCom= 1.00D+00 WtEn= 0.00D+00
 Coeff-Com: -0.803D-01 0.177D+00 0.903D+00
 Coeff:     -0.803D-01 0.177D+00 0.903D+00
 Gap=     0.231 Goal=   None    Shift=    0.000
 Gap=     0.121 Goal=   None    Shift=    0.000
 RMSDP=6.44D-07 MaxDP=6.07D-06 DE=-2.86D-10 OVMax= 6.53D-06

 Cycle  10  Pass 1  IDiag  1:
 E= -342.507357670467     Delta-E=       -0.000000000058 Rises=F Damp=F
 DIIS: error= 4.39D-07 at cycle   4 NSaved=   4.
 NSaved= 4 IEnMin= 4 EnMin= -342.507357670467     IErMin= 4 ErrMin= 4.39D-07
 ErrMax= 4.39D-07  0.00D+00 EMaxC= 1.00D-01 BMatC= 9.15D-12 BMatP= 1.03D-10
 IDIUse=1 WtCom= 1.00D+00 WtEn= 0.00D+00
 Coeff-Com: -0.352D-01-0.390D-01 0.152D+00 0.922D+00
 Coeff:     -0.352D-01-0.390D-01 0.152D+00 0.922D+00
 Gap=     0.231 Goal=   None    Shift=    0.000
 Gap=     0.121 Goal=   None    Shift=    0.000
 RMSDP=1.84D-07 MaxDP=1.56D-06 DE=-5.80D-11 OVMax= 2.29D-06

 Cycle  11  Pass 1  IDiag  1:
 E= -342.507357670472     Delta-E=       -0.000000000006 Rises=F Damp=F
 DIIS: error= 1.29D-07 at cycle   5 NSaved=   5.
 NSaved= 5 IEnMin= 5 EnMin= -342.507357670472     IErMin= 5 ErrMin= 1.29D-07
 ErrMax= 1.29D-07  0.00D+00 EMaxC= 1.00D-01 BMatC= 1.02D-12 BMatP= 9.15D-12
 IDIUse=1 WtCom= 1.00D+00 WtEn= 0.00D+00
 Coeff-Com:  0.167D-02-0.335D-01-0.927D-01 0.227D+00 0.898D+00
 Coeff:      0.167D-02-0.335D-01-0.927D-01 0.227D+00 0.898D+00
 Gap=     0.231 Goal=   None    Shift=    0.000
 Gap=     0.121 Goal=   None    Shift=    0.000
 RMSDP=5.88D-08 MaxDP=4.67D-07 DE=-5.74D-12 OVMax= 7.20D-07

 Cycle  12  Pass 1  IDiag  1:
 E= -342.507357670473     Delta-E=       -0.000000000001 Rises=F Damp=F
 DIIS: error= 7.74D-09 at cycle   6 NSaved=   6.
 NSaved= 6 IEnMin= 6 EnMin= -342.507357670473     IErMin= 6 ErrMin= 7.74D-09
 ErrMax= 7.74D-09  0.00D+00 EMaxC= 1.00D-01 BMatC= 6.12D-15 BMatP= 1.02D-12
 IDIUse=1 WtCom= 1.00D+00 WtEn= 0.00D+00
 Coeff-Com:  0.743D-03 0.314D-02-0.113D-02-0.291D-01-0.489D-01 0.108D+01
 Coeff:      0.743D-03 0.314D-02-0.113D-02-0.291D-01-0.489D-01 0.108D+01
 Gap=     0.231 Goal=   None    Shift=    0.000
 Gap=     0.121 Goal=   None    Shift=    0.000
 RMSDP=5.61D-09 MaxDP=5.03D-08 DE=-6.82D-13 OVMax= 4.73D-08

 SCF Done:  E(UTPSS-TPSS) =  -342.507357670     A.U. after   12 cycles
            NFock= 12  Conv=0.56D-08     -V/T= 2.0021
 <Sx>= 0.0000 <Sy>= 0.0000 <Sz>= 0.5000 <S**2>= 0.7549 S= 0.5024
 <L.S>= 0.000000000000E+00
 KE= 3.418006431407D+02 PE=-8.374996813464D+02 EE= 1.417277937081D+02
 Annihilation of the first spin contaminant:
 S**2 before annihilation     0.7549,   after     0.7500
 Leave Link  502 at Wed Oct  7 13:07:08 2020, MaxMem=  2684354560 cpu:              12.0 elap:               1.5
 (Enter /udrive/faculty/rpeverati/g16/g16/l508.exe)
 QCSCF skips out because SCF is already converged.
 Leave Link  508 at Wed Oct  7 13:07:09 2020, MaxMem=  2684354560 cpu:               0.4 elap:               0.5
 (Enter /udrive/faculty/rpeverati/g16/g16/l601.exe)
 Copying SCF densities to generalized density rwf, IOpCl= 1 IROHF=0.

 **********************************************************************

            Population analysis using the SCF density.

 **********************************************************************

 Orbital symmetries:
 Alpha Orbitals:
       Occupied  (A1) (A1) (B1) (B2) (A1) (A1) (B2) (A1) (B1)
       Virtual   (B2) (A1) (A1) (B2) (B1) (A1) (A2) (B1) (A1) (B2)
                 (A1) (A1) (B2)
 Beta  Orbitals:
       Occupied  (A1) (A1) (B2) (A1) (B1) (A1) (B2) (A1)
       Virtual   (B1) (B2) (A1) (A1) (B2) (A1) (B1) (A1) (B2) (A2)
                 (B1) (A1) (A1) (B2)
 The electronic state is 2-B1.
 Alpha  occ. eigenvalues --  -76.59992  -6.37806  -4.56014  -4.55515  -4.55141
 Alpha  occ. eigenvalues --   -0.59404  -0.36168  -0.27985  -0.22391
 Alpha virt. eigenvalues --    0.00744   0.06035   0.22459   0.26674   0.28357
 Alpha virt. eigenvalues --    0.29211   0.60406   0.61195   0.62206   0.65358
 Alpha virt. eigenvalues --    0.70457   0.96609   1.14358
  Beta  occ. eigenvalues --  -76.59602  -6.37415  -4.55269  -4.54913  -4.54869
  Beta  occ. eigenvalues --   -0.56690  -0.35652  -0.26505
  Beta virt. eigenvalues --   -0.14430   0.01623   0.08789   0.24724   0.27585
  Beta virt. eigenvalues --    0.30210   0.32351   0.63983   0.65874   0.66631
  Beta virt. eigenvalues --    0.67312   0.76023   0.99629   1.17072
          Condensed to atoms (all electrons):
               1          2          3
     1  P   14.471011   0.270093   0.270093
     2  H    0.270093   0.741364  -0.017055
     3  H    0.270093  -0.017055   0.741364
          Atomic-Atomic Spin Densities.
               1          2          3
     1  P    1.113434  -0.019482  -0.019482
     2  H   -0.019482  -0.021767   0.004013
     3  H   -0.019482   0.004013  -0.021767
 Mulliken charges and spin densities:
               1          2
     1  P   -0.011197   1.074471
     2  H    0.005599  -0.037235
     3  H    0.005599  -0.037235
 Sum of Mulliken charges =   0.00000   1.00000
 Mulliken charges and spin densities with hydrogens summed into heavy atoms:
               1          2
     1  P    0.000000   1.000000
 Electronic spatial extent (au):  <R**2>=             46.3334
 Charge=             -0.0000 electrons
 Dipole moment (field-independent basis, Debye):
    X=              0.0000    Y=              0.0000    Z=             -0.9383  Tot=              0.9383
 Quadrupole moment (field-independent basis, Debye-Ang):
   XX=            -14.8434   YY=            -13.8695   ZZ=            -15.4181
   XY=             -0.0000   XZ=             -0.0000   YZ=             -0.0000
 Traceless Quadrupole moment (field-independent basis, Debye-Ang):
   XX=             -0.1331   YY=              0.8408   ZZ=             -0.7078
   XY=             -0.0000   XZ=             -0.0000   YZ=             -0.0000
 Octapole moment (field-independent basis, Debye-Ang**2):
  XXX=              0.0000  YYY=             -0.0000  ZZZ=             -1.6085  XYY=              0.0000
  XXY=             -0.0000  XXZ=             -0.6390  XZZ=              0.0000  YZZ=             -0.0000
  YYZ=             -0.1572  XYZ=             -0.0000
 Hexadecapole moment (field-independent basis, Debye-Ang**3):
 XXXX=            -21.3895 YYYY=            -29.1584 ZZZZ=            -32.0445 XXXY=             -0.0000
 XXXZ=             -0.0000 YYYX=             -0.0000 YYYZ=             -0.0000 ZZZX=             -0.0000
 ZZZY=              0.0000 XXYY=             -8.5262 XXZZ=             -8.9931 YYZZ=             -9.8901
 XXYZ=              0.0000 YYXZ=             -0.0000 ZZXY=             -0.0000
 N-N= 1.146388682714D+01 E-N=-8.374996817496D+02  KE= 3.418006431407D+02
                          Isotropic Fermi Contact Couplings
        Atom                 a.u.       MegaHertz       Gauss      10(-4) cm-1
     1  P(31)              0.15830     286.69115     102.29853      95.62987
     2  H(1)              -0.00959     -42.87495     -15.29885     -14.30155
     3  H(1)              -0.00959     -42.87495     -15.29885     -14.30155
 --------------------------------------------------------
       Center         ----  Spin Dipole Couplings  ----
                      3XX-RR        3YY-RR        3ZZ-RR
 --------------------------------------------------------
     1   Atom        2.738714     -1.314095     -1.424619
     2   Atom        0.002790      0.002240     -0.005030
     3   Atom        0.002790      0.002240     -0.005030
 --------------------------------------------------------
                        XY            XZ            YZ
 --------------------------------------------------------
     1   Atom       -0.000000     -0.000000      0.000000
     2   Atom       -0.000000      0.000000     -0.030860
     3   Atom       -0.000000     -0.000000      0.030860
 --------------------------------------------------------


 ---------------------------------------------------------------------------------
              Anisotropic Spin Dipole Couplings in Principal Axis System
 ---------------------------------------------------------------------------------

       Atom             a.u.   MegaHertz   Gauss  10(-4) cm-1        Axes

              Baa    -1.4246  -307.980  -109.895  -102.731  0.0000  0.0000  1.0000
     1 P(31)  Bbb    -1.3141  -284.086  -101.369   -94.761  0.0000  1.0000  0.0000
              Bcc     2.7387   592.066   211.264   197.492  1.0000  0.0000  0.0000
 
              Baa    -0.0325   -17.324    -6.181    -5.779 -0.0000  0.6645  0.7473
     2 H(1)   Bbb     0.0028     1.489     0.531     0.497  1.0000  0.0000  0.0000
              Bcc     0.0297    15.835     5.650     5.282 -0.0000  0.7473 -0.6645
 
              Baa    -0.0325   -17.324    -6.181    -5.779  0.0000 -0.6645  0.7473
     3 H(1)   Bbb     0.0028     1.489     0.531     0.497  1.0000  0.0000  0.0000
              Bcc     0.0297    15.835     5.650     5.282 -0.0000  0.7473  0.6645
 

 ---------------------------------------------------------------------------------

 No NMR shielding tensors so no spin-rotation constants.
 Leave Link  601 at Wed Oct  7 13:07:10 2020, MaxMem=  2684354560 cpu:               3.9 elap:               0.8
 (Enter /udrive/faculty/rpeverati/g16/g16/l701.exe)
 ... and contract with generalized density number  0.
 Compute integral first derivatives.
 R6Disp: Adding Grimme-D3(BJ) dispersion energy 1st derivatives to the gradient.
 Leave Link  701 at Wed Oct  7 13:07:11 2020, MaxMem=  2684354560 cpu:               4.9 elap:               0.8
 (Enter /udrive/faculty/rpeverati/g16/g16/l702.exe)
 L702 exits ... SP integral derivatives will be done elsewhere.
 Leave Link  702 at Wed Oct  7 13:07:11 2020, MaxMem=  2684354560 cpu:               1.1 elap:               0.4
 (Enter /udrive/faculty/rpeverati/g16/g16/l703.exe)
 Integral derivatives from FoFJK, PRISM(SPDF).
 Compute integral first derivatives, UseDBF=F ICtDFT=           0.
 Calling FoFJK, ICntrl=      2527 FMM=F ISym2X=1 I1Cent= 0 IOpClX= 0 NMat=1 NMatS=1 NMatT=0.
 FoFJK:  IHMeth= 1 ICntrl=    2527 DoSepK=F KAlg= 0 I1Cent=           0 FoldK=F
 IRaf=         0 NMat=       1 IRICut=       1 DoRegI=T DoRafI=F ISym2E= 1 IDoP0=0 IntGTp=1.
 FoFCou: FMM=F IPFlag=           0 FMFlag=      100000 FMFlg1=         800
         NFxFlg=           0 DoJE=F BraDBF=F KetDBF=F FulRan=T
         wScrn=  0.000000 ICntrl=      2527 IOpCl=  0 I1Cent=           0 NGrid=           0
         NMat0=    1 NMatS0=      1 NMatT0=    0 NMatD0=    1 NMtDS0=    0 NMtDT0=    0
 Petite list used in FoFCou.
 Leave Link  703 at Wed Oct  7 13:07:13 2020, MaxMem=  2684354560 cpu:               5.0 elap:               0.8
 (Enter /udrive/faculty/rpeverati/g16/g16/l716.exe)
 Dipole        = 2.18898934D-18 0.00000000D+00-3.69139842D-01
 ***** Axes restored to original set *****
 -------------------------------------------------------------------
 Center     Atomic                   Forces (Hartrees/Bohr)
 Number     Number              X              Y              Z
 -------------------------------------------------------------------
      1       15          -0.000000000   -0.000000000    0.007810941
      2        1           0.000000000    0.003250482   -0.003905471
      3        1           0.000000000   -0.003250482   -0.003905471
 -------------------------------------------------------------------
 Cartesian Forces:  Max     0.007810941 RMS     0.003537850
 Leave Link  716 at Wed Oct  7 13:07:13 2020, MaxMem=  2684354560 cpu:               1.3 elap:               0.4
 (Enter /udrive/faculty/rpeverati/g16/g16/l103.exe)

 GradGradGradGradGradGradGradGradGradGradGradGradGradGradGradGradGradGrad
 Berny optimization.
 Optmz: redundant internal coordinate code flag= 1
 FormGI is forming the generalized inverse of G from B-inverse, IUseBI=4.
 Internal  Forces:  Max     0.005050593 RMS     0.004212591
 Search for a local minimum.
 Step number   1 out of a maximum of  100
 All quantities printed in internal units (Hartrees-Bohrs-Radians)
 RMS Force = .42126D-02 SwitMx=.10000D-02 MixMth= 1
 Mixed Optimization -- RFO/linear search
 Second derivative matrix not updated -- first step.
 The second derivative matrix:
                          R1        R2        A1
           R1           0.21124
           R2           0.00000   0.21124
           A1           0.00000   0.00000   0.16000
 ITU=  0
 Eigenvectors of the second derivative matrix:
                           1         2         3
     Eigenvalues --     0.16000   0.21124   0.21124
   1         R1        -0.00000   0.97330  -0.22954
   2         R2         0.00000   0.22954   0.97330
   3         A1         1.00000  -0.00000  -0.00000
 Iter=   1 RLamda= 0.00000000D+00 Sum=-2.55388812D-04.
 Iter=   2 RLamda=-2.55388812D-04 Sum=-2.55075065D-04.
 Iter=   3 RLamda=-2.55075065D-04 Sum=-2.55075450D-04.
 RFO step:  Lambda=-2.55075065D-04 EMin= 1.60000000D-01
 Linear search not attempted -- first point.
 Iteration  1 RMS(Cart)=  0.01391082 RMS(Int)=  0.00005196
 Iteration  2 RMS(Cart)=  0.00008382 RMS(Int)=  0.00000000
 Iteration  3 RMS(Cart)=  0.00000000 RMS(Int)=  0.00000000
 ITry= 1 IFail=0 DXMaxC= 1.71D-02 DCOld= 1.00D+10 DXMaxT= 3.00D-01 DXLimC= 3.00D+00 Rises=F
 ClnCor:  largest displacement from symmetrization is 2.05D-15 for atom     3.
 Variable       Old X    -DE/DX   Delta X   Delta X   Delta X     New X
                                 (Linear)    (Quad)   (Total)
    R1        2.67723   0.00505   0.00000   0.02388   0.02388   2.70111
    R2        2.67723   0.00505   0.00000   0.02388   0.02388   2.70111
    A1        1.60778  -0.00149   0.00000  -0.00930  -0.00930   1.59848
         Item               Value     Threshold  Converged?
 Maximum Force            0.005051     0.000450     NO 
 RMS     Force            0.004213     0.000300     NO 
 Maximum Displacement     0.017062     0.001800     NO 
 RMS     Displacement     0.013902     0.001200     NO 
 Predicted change in Energy=-1.276942D-04
 Lowest energy point so far.  Saving SCF results.
 Largest change from initial coordinates is atom    1       0.006 Angstoms.
 GradGradGradGradGradGradGradGradGradGradGradGradGradGradGradGradGradGrad

 Leave Link  103 at Wed Oct  7 13:07:14 2020, MaxMem=  2684354560 cpu:               2.1 elap:               0.5
 (Enter /udrive/faculty/rpeverati/g16/g16/l202.exe)
                          Input orientation:                          
 ---------------------------------------------------------------------
 Center     Atomic      Atomic             Coordinates (Angstroms)
 Number     Number       Type             X           Y           Z
 ---------------------------------------------------------------------
      1         15           0        0.000000    0.000000    0.124686
      2          1           0        0.000000    1.024608   -0.871942
      3          1           0       -0.000000   -1.024608   -0.871942
 ---------------------------------------------------------------------
                    Distance matrix (angstroms):
                    1          2          3
     1  P    0.000000
     2  H    1.429367   0.000000
     3  H    1.429367   2.049217   0.000000
 Stoichiometry    H2P(2)
 Framework group  C2V[C2(P),SGV(H2)]
 Deg. of freedom     2
 Full point group                 C2V     NOp   4
 RotChk:  IX=0 Diff= 5.30D-16
 Largest Abelian subgroup         C2V     NOp   4
 Largest concise Abelian subgroup C2      NOp   2
                         Standard orientation:                         
 ---------------------------------------------------------------------
 Center     Atomic      Atomic             Coordinates (Angstroms)
 Number     Number       Type             X           Y           Z
 ---------------------------------------------------------------------
      1         15           0        0.000000    0.000000    0.117250
      2          1           0       -0.000000    1.024608   -0.879377
      3          1           0       -0.000000   -1.024608   -0.879377
 ---------------------------------------------------------------------
 Rotational constants (GHZ):         268.8541009         238.8285323         126.4767123
 Leave Link  202 at Wed Oct  7 13:07:15 2020, MaxMem=  2684354560 cpu:               1.1 elap:               0.3
 (Enter /udrive/faculty/rpeverati/g16/g16/l301.exe)
 Standard basis: 6-31G(d) (5D, 7F)
 Ernie: Thresh=  0.10000D-02 Tol=  0.10000D-05 Strict=F.
 There are    12 symmetry adapted cartesian basis functions of A1  symmetry.
 There are     1 symmetry adapted cartesian basis functions of A2  symmetry.
 There are     4 symmetry adapted cartesian basis functions of B1  symmetry.
 There are     6 symmetry adapted cartesian basis functions of B2  symmetry.
 There are    11 symmetry adapted basis functions of A1  symmetry.
 There are     1 symmetry adapted basis functions of A2  symmetry.
 There are     4 symmetry adapted basis functions of B1  symmetry.
 There are     6 symmetry adapted basis functions of B2  symmetry.
    22 basis functions,    60 primitive gaussians,    23 cartesian basis functions
     9 alpha electrons        8 beta electrons
       nuclear repulsion energy        11.3647716164 Hartrees.
 IExCor= 2523 DFT=T Ex=TPSS Corr=TPSS ExCW=0 ScaHFX=  0.000000
 ScaDFX=  1.000000  1.000000  1.000000  1.000000 ScalE2=  1.000000  1.000000
 IRadAn=      5 IRanWt=     -1 IRanGd=            0 ICorTp=0 IEmpDi=141
 NAtoms=    3 NActive=    3 NUniq=    2 SFac= 2.25D+00 NAtFMM=   60 NAOKFM=F Big=F
 Integral buffers will be    131072 words long.
 Raffenetti 2 integral format.
 Two-electron integral symmetry is turned on.
 R6Disp:  Grimme-D3(BJ) Dispersion energy=       -0.0010848741 Hartrees.
 Nuclear repulsion after empirical dispersion term =       11.3636867423 Hartrees.
 Leave Link  301 at Wed Oct  7 13:07:15 2020, MaxMem=  2684354560 cpu:               1.5 elap:               0.4
 (Enter /udrive/faculty/rpeverati/g16/g16/l302.exe)
 NPDir=0 NMtPBC=     1 NCelOv=     1 NCel=       1 NClECP=     1 NCelD=      1
         NCelK=      1 NCelE2=     1 NClLst=     1 CellRange=     0.0.
 One-electron integrals computed using PRISM.
 One-electron integral symmetry used in STVInt
 NBasis=    22 RedAO= T EigKep=  3.38D-02  NBF=    11     1     4     6
 NBsUse=    22 1.00D-06 EigRej= -1.00D+00 NBFU=    11     1     4     6
 Precomputing XC quadrature grid using
 IXCGrd= 4 IRadAn=           5 IRanWt=          -1 IRanGd=           0 AccXCQ= 0.00D+00.
 Generated NRdTot=       0 NPtTot=           0 NUsed=           0 NTot=          32
 NSgBfM=    23    23    23    23    23 MxSgAt=     3 MxSgA2=     3.
 Leave Link  302 at Wed Oct  7 13:07:16 2020, MaxMem=  2684354560 cpu:               2.8 elap:               0.5
 (Enter /udrive/faculty/rpeverati/g16/g16/l303.exe)
 DipDrv:  MaxL=1.
 Leave Link  303 at Wed Oct  7 13:07:17 2020, MaxMem=  2684354560 cpu:               1.2 elap:               0.5
 (Enter /udrive/faculty/rpeverati/g16/g16/l401.exe)
 Initial guess from the checkpoint file:  "MN_76_PH2_BH76_TPSSDBJ_631Gs.chk"
 SCF N**3 symmetry information disabled.
 B after Tr=    -0.000000    0.000000   -0.000000
         Rot=    1.000000   -0.000000    0.000000   -0.000000 Ang=   0.00 deg.
 Guess basis will be translated and rotated to current coordinates.
 JPrj=2 DoOrth=T DoCkMO=T.
 Initial guess orbital symmetries:
 Alpha Orbitals:
       Occupied  (A1) (A1) (B1) (B2) (A1) (A1) (B2) (A1) (B1)
       Virtual   (B2) (A1) (A1) (B2) (B1) (A1) (A2) (B1) (A1) (B2)
                 (A1) (A1) (B2)
 Beta  Orbitals:
       Occupied  (A1) (A1) (B2) (A1) (B1) (A1) (B2) (A1)
       Virtual   (B1) (B2) (A1) (A1) (B2) (A1) (B1) (A1) (B2) (A2)
                 (B1) (A1) (A1) (B2)
 The electronic state of the initial guess is 2-B1.
 Initial guess <Sx>= 0.0000 <Sy>= 0.0000 <Sz>= 0.5000 <S**2>= 0.7549 S= 0.5024
 Leave Link  401 at Wed Oct  7 13:07:18 2020, MaxMem=  2684354560 cpu:               1.5 elap:               0.5
 (Enter /udrive/faculty/rpeverati/g16/g16/l502.exe)
 Keep J ints in memory in symmetry-blocked form, NReq=10385707.
 FoFCou: FMM=F IPFlag=           0 FMFlag=           0 FMFlg1=           0
         NFxFlg=           0 DoJE=F BraDBF=F KetDBF=F FulRan=T
         wScrn=  0.000000 ICntrl=       600 IOpCl=  0 I1Cent=           0 NGrid=           0
         NMat0=    1 NMatS0=    253 NMatT0=    0 NMatD0=    1 NMtDS0=    0 NMtDT0=    0
 Petite list used in FoFCou.
 UHF open shell SCF:
 Using DIIS extrapolation, IDIIS=  1040.
 NGot=  2684354560 LenX=  2684342189 LenY=  2684341219
 Requested convergence on RMS density matrix=1.00D-08 within 120 cycles.
 Requested convergence on MAX density matrix=1.00D-06.
 Requested convergence on             energy=1.00D-06.
 No special actions if energy rises.

 Cycle   1  Pass 1  IDiag  1:
 E= -342.507449395944    
 DIIS: error= 9.52D-04 at cycle   1 NSaved=   1.
 NSaved= 1 IEnMin= 1 EnMin= -342.507449395944     IErMin= 1 ErrMin= 9.52D-04
 ErrMax= 9.52D-04  0.00D+00 EMaxC= 1.00D-01 BMatC= 6.93D-05 BMatP= 6.93D-05
 IDIUse=3 WtCom= 9.90D-01 WtEn= 9.52D-03
 Coeff-Com:  0.100D+01
 Coeff-En:   0.100D+01
 Coeff:      0.100D+01
 Gap=     0.229 Goal=   None    Shift=    0.000
 Gap=     0.122 Goal=   None    Shift=    0.000
 RMSDP=4.22D-04 MaxDP=2.14D-03              OVMax= 3.50D-03

 Cycle   2  Pass 1  IDiag  1:
 E= -342.507482135942     Delta-E=       -0.000032739998 Rises=F Damp=F
 DIIS: error= 2.51D-04 at cycle   2 NSaved=   2.
 NSaved= 2 IEnMin= 2 EnMin= -342.507482135942     IErMin= 2 ErrMin= 2.51D-04
 ErrMax= 2.51D-04  0.00D+00 EMaxC= 1.00D-01 BMatC= 5.18D-06 BMatP= 6.93D-05
 IDIUse=3 WtCom= 9.97D-01 WtEn= 2.51D-03
 Coeff-Com:  0.159D+00 0.841D+00
 Coeff-En:   0.000D+00 0.100D+01
 Coeff:      0.159D+00 0.841D+00
 Gap=     0.229 Goal=   None    Shift=    0.000
 Gap=     0.122 Goal=   None    Shift=    0.000
 RMSDP=1.18D-04 MaxDP=1.29D-03 DE=-3.27D-05 OVMax= 7.37D-04

 Cycle   3  Pass 1  IDiag  1:
 E= -342.507484100758     Delta-E=       -0.000001964816 Rises=F Damp=F
 DIIS: error= 7.89D-05 at cycle   3 NSaved=   3.
 NSaved= 3 IEnMin= 3 EnMin= -342.507484100758     IErMin= 3 ErrMin= 7.89D-05
 ErrMax= 7.89D-05  0.00D+00 EMaxC= 1.00D-01 BMatC= 6.27D-07 BMatP= 5.18D-06
 IDIUse=1 WtCom= 1.00D+00 WtEn= 0.00D+00
 Coeff-Com:  0.116D-01 0.264D+00 0.724D+00
 Coeff:      0.116D-01 0.264D+00 0.724D+00
 Gap=     0.229 Goal=   None    Shift=    0.000
 Gap=     0.122 Goal=   None    Shift=    0.000
 RMSDP=2.91D-05 MaxDP=3.10D-04 DE=-1.96D-06 OVMax= 1.85D-04

 Cycle   4  Pass 1  IDiag  1:
 E= -342.507484335774     Delta-E=       -0.000000235016 Rises=F Damp=F
 DIIS: error= 9.01D-06 at cycle   4 NSaved=   4.
 NSaved= 4 IEnMin= 4 EnMin= -342.507484335774     IErMin= 4 ErrMin= 9.01D-06
 ErrMax= 9.01D-06  0.00D+00 EMaxC= 1.00D-01 BMatC= 4.19D-09 BMatP= 6.27D-07
 IDIUse=1 WtCom= 1.00D+00 WtEn= 0.00D+00
 Coeff-Com: -0.525D-03 0.430D-01 0.140D+00 0.818D+00
 Coeff:     -0.525D-03 0.430D-01 0.140D+00 0.818D+00
 Gap=     0.229 Goal=   None    Shift=    0.000
 Gap=     0.122 Goal=   None    Shift=    0.000
 RMSDP=3.92D-06 MaxDP=2.99D-05 DE=-2.35D-07 OVMax= 4.13D-05

 Cycle   5  Pass 1  IDiag  1:
 E= -342.507484337076     Delta-E=       -0.000000001302 Rises=F Damp=F
 DIIS: error= 3.92D-06 at cycle   5 NSaved=   5.
 NSaved= 5 IEnMin= 5 EnMin= -342.507484337076     IErMin= 5 ErrMin= 3.92D-06
 ErrMax= 3.92D-06  0.00D+00 EMaxC= 1.00D-01 BMatC= 1.22D-09 BMatP= 4.19D-09
 IDIUse=1 WtCom= 1.00D+00 WtEn= 0.00D+00
 Coeff-Com: -0.428D-03 0.570D-02 0.225D-01 0.381D+00 0.592D+00
 Coeff:     -0.428D-03 0.570D-02 0.225D-01 0.381D+00 0.592D+00
 Gap=     0.229 Goal=   None    Shift=    0.000
 Gap=     0.122 Goal=   None    Shift=    0.000
 RMSDP=1.63D-06 MaxDP=1.24D-05 DE=-1.30D-09 OVMax= 1.38D-05

 Cycle   6  Pass 1  IDiag  1:
 E= -342.507484337629     Delta-E=       -0.000000000553 Rises=F Damp=F
 DIIS: error= 4.14D-07 at cycle   6 NSaved=   6.
 NSaved= 6 IEnMin= 6 EnMin= -342.507484337629     IErMin= 6 ErrMin= 4.14D-07
 ErrMax= 4.14D-07  0.00D+00 EMaxC= 1.00D-01 BMatC= 5.33D-12 BMatP= 1.22D-09
 IDIUse=1 WtCom= 1.00D+00 WtEn= 0.00D+00
 Coeff-Com:  0.683D-05-0.736D-03-0.181D-02-0.235D-02 0.917D-02 0.996D+00
 Coeff:      0.683D-05-0.736D-03-0.181D-02-0.235D-02 0.917D-02 0.996D+00
 Gap=     0.229 Goal=   None    Shift=    0.000
 Gap=     0.122 Goal=   None    Shift=    0.000
 RMSDP=1.47D-07 MaxDP=1.33D-06 DE=-5.53D-10 OVMax= 1.35D-06

 Cycle   7  Pass 1  IDiag  1:
 E= -342.507484337633     Delta-E=       -0.000000000004 Rises=F Damp=F
 DIIS: error= 1.43D-07 at cycle   7 NSaved=   7.
 NSaved= 7 IEnMin= 7 EnMin= -342.507484337633     IErMin= 7 ErrMin= 1.43D-07
 ErrMax= 1.43D-07  0.00D+00 EMaxC= 1.00D-01 BMatC= 6.10D-13 BMatP= 5.33D-12
 IDIUse=1 WtCom= 1.00D+00 WtEn= 0.00D+00
 Coeff-Com:  0.179D-04-0.294D-03-0.129D-02-0.241D-01-0.351D-01-0.243D+00
 Coeff-Com:  0.130D+01
 Coeff:      0.179D-04-0.294D-03-0.129D-02-0.241D-01-0.351D-01-0.243D+00
 Coeff:      0.130D+01
 Gap=     0.229 Goal=   None    Shift=    0.000
 Gap=     0.122 Goal=   None    Shift=    0.000
 RMSDP=7.05D-08 MaxDP=5.77D-07 DE=-4.09D-12 OVMax= 6.99D-07

 Cycle   8  Pass 1  IDiag  1:
 E= -342.507484337633     Delta-E=       -0.000000000000 Rises=F Damp=F
 DIIS: error= 1.96D-08 at cycle   8 NSaved=   8.
 NSaved= 8 IEnMin= 8 EnMin= -342.507484337633     IErMin= 8 ErrMin= 1.96D-08
 ErrMax= 1.96D-08  0.00D+00 EMaxC= 1.00D-01 BMatC= 1.20D-14 BMatP= 6.10D-13
 IDIUse=1 WtCom= 1.00D+00 WtEn= 0.00D+00
 Coeff-Com: -0.200D-05 0.968D-04 0.308D-03 0.431D-02 0.520D-02 0.105D-02
 Coeff-Com: -0.204D+00 0.119D+01
 Coeff:     -0.200D-05 0.968D-04 0.308D-03 0.431D-02 0.520D-02 0.105D-02
 Coeff:     -0.204D+00 0.119D+01
 Gap=     0.229 Goal=   None    Shift=    0.000
 Gap=     0.122 Goal=   None    Shift=    0.000
 RMSDP=9.01D-09 MaxDP=6.73D-08 DE=-4.55D-13 OVMax= 8.32D-08

 SCF Done:  E(UTPSS-TPSS) =  -342.507484338     A.U. after    8 cycles
            NFock=  8  Conv=0.90D-08     -V/T= 2.0021
 <Sx>= 0.0000 <Sy>= 0.0000 <Sz>= 0.5000 <S**2>= 0.7549 S= 0.5024
 <L.S>= 0.000000000000E+00
 KE= 3.417739282292D+02 PE=-8.372694824890D+02 EE= 1.416243831799D+02
 Annihilation of the first spin contaminant:
 S**2 before annihilation     0.7549,   after     0.7500
 Leave Link  502 at Wed Oct  7 13:07:19 2020, MaxMem=  2684354560 cpu:              11.2 elap:               1.3
 (Enter /udrive/faculty/rpeverati/g16/g16/l508.exe)
 QCSCF skips out because SCF is already converged.
 Leave Link  508 at Wed Oct  7 13:07:20 2020, MaxMem=  2684354560 cpu:               0.3 elap:               0.4
 (Enter /udrive/faculty/rpeverati/g16/g16/l701.exe)
 ... and contract with generalized density number  0.
 Compute integral first derivatives.
 R6Disp: Adding Grimme-D3(BJ) dispersion energy 1st derivatives to the gradient.
 Leave Link  701 at Wed Oct  7 13:07:21 2020, MaxMem=  2684354560 cpu:               2.8 elap:               0.6
 (Enter /udrive/faculty/rpeverati/g16/g16/l702.exe)
 L702 exits ... SP integral derivatives will be done elsewhere.
 Leave Link  702 at Wed Oct  7 13:07:21 2020, MaxMem=  2684354560 cpu:               1.2 elap:               0.4
 (Enter /udrive/faculty/rpeverati/g16/g16/l703.exe)
 Integral derivatives from FoFJK, PRISM(SPDF).
 Compute integral first derivatives, UseDBF=F ICtDFT=           0.
 Calling FoFJK, ICntrl=      2527 FMM=F ISym2X=1 I1Cent= 0 IOpClX= 0 NMat=1 NMatS=1 NMatT=0.
 FoFJK:  IHMeth= 1 ICntrl=    2527 DoSepK=F KAlg= 0 I1Cent=           0 FoldK=F
 IRaf=         0 NMat=       1 IRICut=       1 DoRegI=T DoRafI=F ISym2E= 1 IDoP0=0 IntGTp=1.
 FoFCou: FMM=F IPFlag=           0 FMFlag=      100000 FMFlg1=         800
         NFxFlg=           0 DoJE=F BraDBF=F KetDBF=F FulRan=T
         wScrn=  0.000000 ICntrl=      2527 IOpCl=  0 I1Cent=           0 NGrid=           0
         NMat0=    1 NMatS0=      1 NMatT0=    0 NMatD0=    1 NMtDS0=    0 NMtDT0=    0
 Petite list used in FoFCou.
 Leave Link  703 at Wed Oct  7 13:07:22 2020, MaxMem=  2684354560 cpu:               5.4 elap:               0.8
 (Enter /udrive/faculty/rpeverati/g16/g16/l716.exe)
 Dipole        = 2.62931518D-18 0.00000000D+00-3.54673987D-01
 ***** Axes restored to original set *****
 -------------------------------------------------------------------
 Center     Atomic                   Forces (Hartrees/Bohr)
 Number     Number              X              Y              Z
 -------------------------------------------------------------------
      1       15          -0.000000000    0.000000000    0.000082946
      2        1           0.000000000   -0.000079221   -0.000041473
      3        1           0.000000000    0.000079221   -0.000041473
 -------------------------------------------------------------------
 Cartesian Forces:  Max     0.000082946 RMS     0.000050412
 Leave Link  716 at Wed Oct  7 13:07:23 2020, MaxMem=  2684354560 cpu:               0.9 elap:               0.4
 (Enter /udrive/faculty/rpeverati/g16/g16/l103.exe)

 GradGradGradGradGradGradGradGradGradGradGradGradGradGradGradGradGradGrad
 Berny optimization.
 Optmz: redundant internal coordinate code flag= 1
 Using GEDIIS/GDIIS optimizer.
 Red2BG:  D1=  3.83D-01 OD1=  1.02D-02 B2RMS=  0.00D+00 IAprox=0
 FormGI is forming the generalized inverse of G from B-inverse, IUseBI=4.
 Internal  Forces:  Max     0.000229503 RMS     0.000134443
 Search for a local minimum.
 Step number   2 out of a maximum of  100
 All quantities printed in internal units (Hartrees-Bohrs-Radians)
 RMS Force = .13444D-03 SwitMx=.10000D-02 MixMth= 2
 Mixed Optimization -- En-DIIS/RFO-DIIS
 Update second derivatives using D2CorX and points    1    2
 DE= -1.27D-04 DEPred=-1.28D-04 R= 9.92D-01
 TightC=F SS=  1.41D+00  RLast= 3.50D-02 DXNew= 5.0454D-01 1.0509D-01
 Trust test= 9.92D-01 RLast= 3.50D-02 DXMaxT set to 3.00D-01
 The second derivative matrix:
                          R1        R2        A1
           R1           0.21279
           R2           0.00154   0.21279
           A1           0.00428   0.00428   0.15756
 ITU=  1  0
 Use linear search instead of GDIIS.
 Eigenvectors of the second derivative matrix:
                           1         2         3
     Eigenvalues --     0.15692   0.21124   0.21497
   1         R1        -0.07416  -0.70711   0.70321
   2         R2        -0.07416   0.70711   0.70321
   3         A1         0.99449   0.00000   0.10487
 Iter=   1 RLamda= 0.00000000D+00 Sum=-3.36322345D-07.
 Iter=   2 RLamda=-3.36322345D-07 Sum=-3.36321644D-07.
 RFO step:  Lambda=-3.36322345D-07 EMin= 1.56923110D-01
 Quartic linear search produced a step of  0.00326.
 Iteration  1 RMS(Cart)=  0.00133301 RMS(Int)=  0.00000058
 Iteration  2 RMS(Cart)=  0.00000046 RMS(Int)=  0.00000000
 ITry= 1 IFail=0 DXMaxC= 1.44D-03 DCOld= 1.00D+10 DXMaxT= 3.00D-01 DXLimC= 3.00D+00 Rises=F
 ClnCor:  largest displacement from symmetrization is 8.48D-15 for atom     3.
 Variable       Old X    -DE/DX   Delta X   Delta X   Delta X     New X
                                 (Linear)    (Quad)   (Total)
    R1        2.70111  -0.00003   0.00008  -0.00018  -0.00010   2.70101
    R2        2.70111  -0.00003   0.00008  -0.00018  -0.00010   2.70101
    A1        1.59848  -0.00023  -0.00003  -0.00142  -0.00145   1.59703
         Item               Value     Threshold  Converged?
 Maximum Force            0.000230     0.000450     YES
 RMS     Force            0.000134     0.000300     YES
 Maximum Displacement     0.001439     0.001800     YES
 RMS     Displacement     0.001333     0.001200     NO 
 Predicted change in Energy=-1.693312D-07
 Lowest energy point so far.  Saving SCF results.
 Largest change from initial coordinates is atom    2       0.013 Angstoms.
 GradGradGradGradGradGradGradGradGradGradGradGradGradGradGradGradGradGrad

 Leave Link  103 at Wed Oct  7 13:07:24 2020, MaxMem=  2684354560 cpu:               1.7 elap:               0.5
 (Enter /udrive/faculty/rpeverati/g16/g16/l202.exe)
                          Input orientation:                          
 ---------------------------------------------------------------------
 Center     Atomic      Atomic             Coordinates (Angstroms)
 Number     Number       Type             X           Y           Z
 ---------------------------------------------------------------------
      1         15           0        0.000000   -0.000000    0.125158
      2          1           0        0.000000    1.023847   -0.872178
      3          1           0       -0.000000   -1.023847   -0.872178
 ---------------------------------------------------------------------
                    Distance matrix (angstroms):
                    1          2          3
     1  P    0.000000
     2  H    1.429315   0.000000
     3  H    1.429315   2.047694   0.000000
 Stoichiometry    H2P(2)
 Framework group  C2V[C2(P),SGV(H2)]
 Deg. of freedom     2
 Full point group                 C2V     NOp   4
 RotChk:  IX=0 Diff= 2.42D-16
 Largest Abelian subgroup         C2V     NOp   4
 Largest concise Abelian subgroup C2      NOp   2
                         Standard orientation:                         
 ---------------------------------------------------------------------
 Center     Atomic      Atomic             Coordinates (Angstroms)
 Number     Number       Type             X           Y           Z
 ---------------------------------------------------------------------
      1         15           0       -0.000000    0.000000    0.117334
      2          1           0        0.000000    1.023847   -0.880002
      3          1           0       -0.000000   -1.023847   -0.880002
 ---------------------------------------------------------------------
 Rotational constants (GHZ):         268.4728751         239.1839143         126.4917450
 Leave Link  202 at Wed Oct  7 13:07:25 2020, MaxMem=  2684354560 cpu:               1.0 elap:               0.3
 (Enter /udrive/faculty/rpeverati/g16/g16/l301.exe)
 Standard basis: 6-31G(d) (5D, 7F)
 Ernie: Thresh=  0.10000D-02 Tol=  0.10000D-05 Strict=F.
 There are    12 symmetry adapted cartesian basis functions of A1  symmetry.
 There are     1 symmetry adapted cartesian basis functions of A2  symmetry.
 There are     4 symmetry adapted cartesian basis functions of B1  symmetry.
 There are     6 symmetry adapted cartesian basis functions of B2  symmetry.
 There are    11 symmetry adapted basis functions of A1  symmetry.
 There are     1 symmetry adapted basis functions of A2  symmetry.
 There are     4 symmetry adapted basis functions of B1  symmetry.
 There are     6 symmetry adapted basis functions of B2  symmetry.
    22 basis functions,    60 primitive gaussians,    23 cartesian basis functions
     9 alpha electrons        8 beta electrons
       nuclear repulsion energy        11.3653698281 Hartrees.
 IExCor= 2523 DFT=T Ex=TPSS Corr=TPSS ExCW=0 ScaHFX=  0.000000
 ScaDFX=  1.000000  1.000000  1.000000  1.000000 ScalE2=  1.000000  1.000000
 IRadAn=      5 IRanWt=     -1 IRanGd=            0 ICorTp=0 IEmpDi=141
 NAtoms=    3 NActive=    3 NUniq=    2 SFac= 2.25D+00 NAtFMM=   60 NAOKFM=F Big=F
 Integral buffers will be    131072 words long.
 Raffenetti 2 integral format.
 Two-electron integral symmetry is turned on.
 R6Disp:  Grimme-D3(BJ) Dispersion energy=       -0.0010848973 Hartrees.
 Nuclear repulsion after empirical dispersion term =       11.3642849308 Hartrees.
 Leave Link  301 at Wed Oct  7 13:07:25 2020, MaxMem=  2684354560 cpu:               0.9 elap:               0.4
 (Enter /udrive/faculty/rpeverati/g16/g16/l302.exe)
 NPDir=0 NMtPBC=     1 NCelOv=     1 NCel=       1 NClECP=     1 NCelD=      1
         NCelK=      1 NCelE2=     1 NClLst=     1 CellRange=     0.0.
 One-electron integrals computed using PRISM.
 One-electron integral symmetry used in STVInt
 NBasis=    22 RedAO= T EigKep=  3.38D-02  NBF=    11     1     4     6
 NBsUse=    22 1.00D-06 EigRej= -1.00D+00 NBFU=    11     1     4     6
 Precomputing XC quadrature grid using
 IXCGrd= 4 IRadAn=           5 IRanWt=          -1 IRanGd=           0 AccXCQ= 0.00D+00.
 Generated NRdTot=       0 NPtTot=           0 NUsed=           0 NTot=          32
 NSgBfM=    23    23    23    23    23 MxSgAt=     3 MxSgA2=     3.
 Leave Link  302 at Wed Oct  7 13:07:26 2020, MaxMem=  2684354560 cpu:               3.3 elap:               0.6
 (Enter /udrive/faculty/rpeverati/g16/g16/l303.exe)
 DipDrv:  MaxL=1.
 Leave Link  303 at Wed Oct  7 13:07:26 2020, MaxMem=  2684354560 cpu:               1.1 elap:               0.4
 (Enter /udrive/faculty/rpeverati/g16/g16/l401.exe)
 Initial guess from the checkpoint file:  "MN_76_PH2_BH76_TPSSDBJ_631Gs.chk"
 SCF N**3 symmetry information disabled.
 B after Tr=     0.000000   -0.000000    0.000000
         Rot=    1.000000   -0.000000   -0.000000    0.000000 Ang=   0.00 deg.
 Guess basis will be translated and rotated to current coordinates.
 JPrj=2 DoOrth=T DoCkMO=T.
 Initial guess orbital symmetries:
 Alpha Orbitals:
       Occupied  (A1) (A1) (B1) (B2) (A1) (A1) (B2) (A1) (B1)
       Virtual   (B2) (A1) (A1) (B2) (B1) (A1) (A2) (B1) (A1) (B2)
                 (A1) (A1) (B2)
 Beta  Orbitals:
       Occupied  (A1) (A1) (B2) (A1) (B1) (A1) (B2) (A1)
       Virtual   (B1) (B2) (A1) (A1) (B2) (A1) (B1) (A1) (B2) (A2)
                 (B1) (A1) (A1) (B2)
 The electronic state of the initial guess is 2-B1.
 Initial guess <Sx>= 0.0000 <Sy>= 0.0000 <Sz>= 0.5000 <S**2>= 0.7549 S= 0.5024
 Leave Link  401 at Wed Oct  7 13:07:27 2020, MaxMem=  2684354560 cpu:               1.6 elap:               0.5
 (Enter /udrive/faculty/rpeverati/g16/g16/l502.exe)
 Keep J ints in memory in symmetry-blocked form, NReq=10385707.
 FoFCou: FMM=F IPFlag=           0 FMFlag=           0 FMFlg1=           0
         NFxFlg=           0 DoJE=F BraDBF=F KetDBF=F FulRan=T
         wScrn=  0.000000 ICntrl=       600 IOpCl=  0 I1Cent=           0 NGrid=           0
         NMat0=    1 NMatS0=    253 NMatT0=    0 NMatD0=    1 NMtDS0=    0 NMtDT0=    0
 Petite list used in FoFCou.
 UHF open shell SCF:
 Using DIIS extrapolation, IDIIS=  1040.
 NGot=  2684354560 LenX=  2684342189 LenY=  2684341219
 Requested convergence on RMS density matrix=1.00D-08 within 120 cycles.
 Requested convergence on MAX density matrix=1.00D-06.
 Requested convergence on             energy=1.00D-06.
 No special actions if energy rises.

 Cycle   1  Pass 1  IDiag  1:
 E= -342.507484429055    
 DIIS: error= 4.66D-05 at cycle   1 NSaved=   1.
 NSaved= 1 IEnMin= 1 EnMin= -342.507484429055     IErMin= 1 ErrMin= 4.66D-05
 ErrMax= 4.66D-05  0.00D+00 EMaxC= 1.00D-01 BMatC= 9.99D-08 BMatP= 9.99D-08
 IDIUse=1 WtCom= 1.00D+00 WtEn= 0.00D+00
 Coeff-Com:  0.100D+01
 Coeff:      0.100D+01
 Gap=     0.229 Goal=   None    Shift=    0.000
 Gap=     0.122 Goal=   None    Shift=    0.000
 RMSDP=1.85D-05 MaxDP=1.24D-04              OVMax= 1.12D-04

 Cycle   2  Pass 1  IDiag  1:
 E= -342.507484482769     Delta-E=       -0.000000053714 Rises=F Damp=F
 DIIS: error= 6.01D-06 at cycle   2 NSaved=   2.
 NSaved= 2 IEnMin= 2 EnMin= -342.507484482769     IErMin= 2 ErrMin= 6.01D-06
 ErrMax= 6.01D-06  0.00D+00 EMaxC= 1.00D-01 BMatC= 1.76D-09 BMatP= 9.99D-08
 IDIUse=1 WtCom= 1.00D+00 WtEn= 0.00D+00
 Coeff-Com:  0.313D-01 0.969D+00
 Coeff:      0.313D-01 0.969D+00
 Gap=     0.229 Goal=   None    Shift=    0.000
 Gap=     0.122 Goal=   None    Shift=    0.000
 RMSDP=2.23D-06 MaxDP=1.44D-05 DE=-5.37D-08 OVMax= 1.86D-05

 Cycle   3  Pass 1  IDiag  1:
 E= -342.507484483291     Delta-E=       -0.000000000521 Rises=F Damp=F
 DIIS: error= 2.74D-06 at cycle   3 NSaved=   3.
 NSaved= 3 IEnMin= 3 EnMin= -342.507484483291     IErMin= 3 ErrMin= 2.74D-06
 ErrMax= 2.74D-06  0.00D+00 EMaxC= 1.00D-01 BMatC= 5.00D-10 BMatP= 1.76D-09
 IDIUse=1 WtCom= 1.00D+00 WtEn= 0.00D+00
 Coeff-Com: -0.802D-02 0.339D+00 0.669D+00
 Coeff:     -0.802D-02 0.339D+00 0.669D+00
 Gap=     0.229 Goal=   None    Shift=    0.000
 Gap=     0.122 Goal=   None    Shift=    0.000
 RMSDP=9.05D-07 MaxDP=4.52D-06 DE=-5.21D-10 OVMax= 7.14D-06

 Cycle   4  Pass 1  IDiag  1:
 E= -342.507484483495     Delta-E=       -0.000000000204 Rises=F Damp=F
 DIIS: error= 2.99D-07 at cycle   4 NSaved=   4.
 NSaved= 4 IEnMin= 4 EnMin= -342.507484483495     IErMin= 4 ErrMin= 2.99D-07
 ErrMax= 2.99D-07  0.00D+00 EMaxC= 1.00D-01 BMatC= 5.97D-12 BMatP= 5.00D-10
 IDIUse=1 WtCom= 1.00D+00 WtEn= 0.00D+00
 Coeff-Com: -0.263D-02 0.104D+00 0.220D+00 0.680D+00
 Coeff:     -0.263D-02 0.104D+00 0.220D+00 0.680D+00
 Gap=     0.229 Goal=   None    Shift=    0.000
 Gap=     0.122 Goal=   None    Shift=    0.000
 RMSDP=1.31D-07 MaxDP=9.91D-07 DE=-2.04D-10 OVMax= 1.22D-06

 Cycle   5  Pass 1  IDiag  1:
 E= -342.507484483497     Delta-E=       -0.000000000002 Rises=F Damp=F
 DIIS: error= 8.64D-08 at cycle   5 NSaved=   5.
 NSaved= 5 IEnMin= 5 EnMin= -342.507484483497     IErMin= 5 ErrMin= 8.64D-08
 ErrMax= 8.64D-08  0.00D+00 EMaxC= 1.00D-01 BMatC= 6.21D-13 BMatP= 5.97D-12
 IDIUse=1 WtCom= 1.00D+00 WtEn= 0.00D+00
 Coeff-Com: -0.146D-03 0.555D-03 0.688D-02 0.245D+00 0.747D+00
 Coeff:     -0.146D-03 0.555D-03 0.688D-02 0.245D+00 0.747D+00
 Gap=     0.229 Goal=   None    Shift=    0.000
 Gap=     0.122 Goal=   None    Shift=    0.000
 RMSDP=3.87D-08 MaxDP=3.50D-07 DE=-2.39D-12 OVMax= 2.63D-07

 Cycle   6  Pass 1  IDiag  1:
 E= -342.507484483497     Delta-E=       -0.000000000000 Rises=F Damp=F
 DIIS: error= 5.37D-09 at cycle   6 NSaved=   6.
 NSaved= 6 IEnMin= 6 EnMin= -342.507484483497     IErMin= 6 ErrMin= 5.37D-09
 ErrMax= 5.37D-09  0.00D+00 EMaxC= 1.00D-01 BMatC= 2.74D-15 BMatP= 6.21D-13
 IDIUse=1 WtCom= 1.00D+00 WtEn= 0.00D+00
 Coeff-Com:  0.617D-04-0.285D-02-0.607D-02 0.377D-02 0.684D-01 0.937D+00
 Coeff:      0.617D-04-0.285D-02-0.607D-02 0.377D-02 0.684D-01 0.937D+00
 Gap=     0.229 Goal=   None    Shift=    0.000
 Gap=     0.122 Goal=   None    Shift=    0.000
 RMSDP=2.68D-09 MaxDP=3.23D-08 DE=-2.27D-13 OVMax= 2.11D-08

 SCF Done:  E(UTPSS-TPSS) =  -342.507484483     A.U. after    6 cycles
            NFock=  6  Conv=0.27D-08     -V/T= 2.0021
 <Sx>= 0.0000 <Sy>= 0.0000 <Sz>= 0.5000 <S**2>= 0.7549 S= 0.5024
 <L.S>= 0.000000000000E+00
 KE= 3.417740938286D+02 PE=-8.372708609614D+02 EE= 1.416249977185D+02
 Annihilation of the first spin contaminant:
 S**2 before annihilation     0.7549,   after     0.7500
 Leave Link  502 at Wed Oct  7 13:07:29 2020, MaxMem=  2684354560 cpu:              11.2 elap:               1.4
 (Enter /udrive/faculty/rpeverati/g16/g16/l508.exe)
 QCSCF skips out because SCF is already converged.
 Leave Link  508 at Wed Oct  7 13:07:30 2020, MaxMem=  2684354560 cpu:               0.5 elap:               0.5
 (Enter /udrive/faculty/rpeverati/g16/g16/l701.exe)
 ... and contract with generalized density number  0.
 Compute integral first derivatives.
 R6Disp: Adding Grimme-D3(BJ) dispersion energy 1st derivatives to the gradient.
 Leave Link  701 at Wed Oct  7 13:07:30 2020, MaxMem=  2684354560 cpu:               2.6 elap:               0.6
 (Enter /udrive/faculty/rpeverati/g16/g16/l702.exe)
 L702 exits ... SP integral derivatives will be done elsewhere.
 Leave Link  702 at Wed Oct  7 13:07:31 2020, MaxMem=  2684354560 cpu:               0.7 elap:               0.6
 (Enter /udrive/faculty/rpeverati/g16/g16/l703.exe)
 Integral derivatives from FoFJK, PRISM(SPDF).
 Compute integral first derivatives, UseDBF=F ICtDFT=           0.
 Calling FoFJK, ICntrl=      2527 FMM=F ISym2X=1 I1Cent= 0 IOpClX= 0 NMat=1 NMatS=1 NMatT=0.
 FoFJK:  IHMeth= 1 ICntrl=    2527 DoSepK=F KAlg= 0 I1Cent=           0 FoldK=F
 IRaf=         0 NMat=       1 IRICut=       1 DoRegI=T DoRafI=F ISym2E= 1 IDoP0=0 IntGTp=1.
 FoFCou: FMM=F IPFlag=           0 FMFlag=      100000 FMFlg1=         800
         NFxFlg=           0 DoJE=F BraDBF=F KetDBF=F FulRan=T
         wScrn=  0.000000 ICntrl=      2527 IOpCl=  0 I1Cent=           0 NGrid=           0
         NMat0=    1 NMatS0=      1 NMatT0=    0 NMatD0=    1 NMtDS0=    0 NMtDT0=    0
 Petite list used in FoFCou.
 Leave Link  703 at Wed Oct  7 13:07:32 2020, MaxMem=  2684354560 cpu:               5.2 elap:               0.7
 (Enter /udrive/faculty/rpeverati/g16/g16/l716.exe)
 Dipole        = 2.63256258D-18 0.00000000D+00-3.54197323D-01
 ***** Axes restored to original set *****
 -------------------------------------------------------------------
 Center     Atomic                   Forces (Hartrees/Bohr)
 Number     Number              X              Y              Z
 -------------------------------------------------------------------
      1       15          -0.000000000    0.000000000   -0.000009714
      2        1           0.000000000    0.000011874    0.000004857
      3        1           0.000000000   -0.000011874    0.000004857
 -------------------------------------------------------------------
 Cartesian Forces:  Max     0.000011874 RMS     0.000006860
 Leave Link  716 at Wed Oct  7 13:07:33 2020, MaxMem=  2684354560 cpu:               0.8 elap:               0.4
 (Enter /udrive/faculty/rpeverati/g16/g16/l103.exe)

 GradGradGradGradGradGradGradGradGradGradGradGradGradGradGradGradGradGrad
 Berny optimization.
 Optmz: redundant internal coordinate code flag= 1
 Using GEDIIS/GDIIS optimizer.
 Red2BG:  D1=  3.83D-01 OD1=  5.06D-04 B2RMS=  0.00D+00 IAprox=0
 FormGI is forming the generalized inverse of G from B-inverse, IUseBI=4.
 Internal  Forces:  Max     0.000031776 RMS     0.000018816
 Search for a local minimum.
 Step number   3 out of a maximum of  100
 All quantities printed in internal units (Hartrees-Bohrs-Radians)
 RMS Force = .18816D-04 SwitMx=.10000D-02 MixMth= 2
 Mixed Optimization -- En-DIIS/RFO-DIIS
 Swapping is turned off.
 Update second derivatives using D2CorX and points    1    2    3
 DE= -1.46D-07 DEPred=-1.69D-07 R= 8.61D-01
 Trust test= 8.61D-01 RLast= 1.46D-03 DXMaxT set to 3.00D-01
 The second derivative matrix:
                          R1        R2        A1
           R1           0.21329
           R2           0.00205   0.21329
           A1           0.00807   0.00807   0.17880
 ITU=  0  1  0
 Eigenvectors of the second derivative matrix:
                           1         2         3
     Eigenvalues --     0.17553   0.21124   0.21861
   1         R1        -0.19481  -0.70711   0.67974
   2         R2        -0.19481   0.70711   0.67974
   3         A1         0.96130  -0.00000   0.27550
 DoSqrt=T IScMMF=    -3 MM Scaling Factor =       0.00000
 En-DIIS/RFO-DIIS/Sim-DIIS IScMMF=       -3 using points:     3    2
 Iter=   1 RLamda= 0.00000000D+00 Sum=-5.77373785D-09.
 RFO step:  Lambda= 0.00000000D+00.
 NNeg= 0 NGDIIS= 2 SimSw=  2.50D-03 Rises=F DC= -1.46D-07 SmlDif=  1.00D-05
 NRisDI= 0 DoIntr=F SqrtH=F CThrHd= 10.0 CDAdj=  3.0
 RMS Error=  0.1026749424D-03 NUsed= 2 OKEnD=F EnDIS=F
 Total RFO-DIIS matrix:
                 1             2             3 
      1   0.000000D+00 -0.100000D+01 -0.100000D+01
      2  -0.100000D+01  0.316264D-07 -0.227642D-06
      3  -0.100000D+01 -0.227642D-06  0.164211D-05
 InvSVX:  RCond= 2.40D-06 Info=           0 Equed=N FErr=  1.01D-15 BErr=  6.62D-17
 DidBck=F Rises=F RFO-DIIS coefs:    0.87822    0.12178
 Iteration  1 RMS(Cart)=  0.00016363 RMS(Int)=  0.00000001
 Iteration  2 RMS(Cart)=  0.00000001 RMS(Int)=  0.00000000
 ITry= 1 IFail=0 DXMaxC= 1.78D-04 DCOld= 1.00D+10 DXMaxT= 3.00D-01 DXLimC= 3.00D+00 Rises=F
 ClnCor:  largest displacement from symmetrization is 9.42D-16 for atom     3.
 Variable       Old X    -DE/DX   Delta X   Delta X   Delta X     New X
                                 (Linear)    (Quad)   (Total)
    R1        2.70101   0.00001   0.00001   0.00001   0.00002   2.70103
    R2        2.70101   0.00001   0.00001   0.00001   0.00002   2.70103
    A1        1.59703   0.00003   0.00018  -0.00000   0.00018   1.59720
         Item               Value     Threshold  Converged?
 Maximum Force            0.000032     0.000450     YES
 RMS     Force            0.000019     0.000300     YES
 Maximum Displacement     0.000178     0.001800     YES
 RMS     Displacement     0.000164     0.001200     YES
 Predicted change in Energy=-2.886869D-09
 Optimization completed.
    -- Stationary point found.
                           ----------------------------
                           !   Optimized Parameters   !
                           ! (Angstroms and Degrees)  !
 --------------------------                            --------------------------
 ! Name  Definition              Value          Derivative Info.                !
 --------------------------------------------------------------------------------
 ! R1    R(1,2)                  1.4293         -DE/DX =    0.0                 !
 ! R2    R(1,3)                  1.4293         -DE/DX =    0.0                 !
 ! A1    A(2,1,3)               91.503          -DE/DX =    0.0                 !
 --------------------------------------------------------------------------------
 Lowest energy point so far.  Saving SCF results.
 Largest change from initial coordinates is atom    2       0.013 Angstoms.
 GradGradGradGradGradGradGradGradGradGradGradGradGradGradGradGradGradGrad

 Leave Link  103 at Wed Oct  7 13:07:34 2020, MaxMem=  2684354560 cpu:               6.0 elap:               1.0
 (Enter /udrive/faculty/rpeverati/g16/g16/l202.exe)
                          Input orientation:                          
 ---------------------------------------------------------------------
 Center     Atomic      Atomic             Coordinates (Angstroms)
 Number     Number       Type             X           Y           Z
 ---------------------------------------------------------------------
      1         15           0        0.000000   -0.000000    0.125158
      2          1           0        0.000000    1.023847   -0.872178
      3          1           0       -0.000000   -1.023847   -0.872178
 ---------------------------------------------------------------------
                    Distance matrix (angstroms):
                    1          2          3
     1  P    0.000000
     2  H    1.429315   0.000000
     3  H    1.429315   2.047694   0.000000
 Stoichiometry    H2P(2)
 Framework group  C2V[C2(P),SGV(H2)]
 Deg. of freedom     2
 Full point group                 C2V     NOp   4
 RotChk:  IX=0 Diff= 3.08D-16
 Largest Abelian subgroup         C2V     NOp   4
 Largest concise Abelian subgroup C2      NOp   2
                         Standard orientation:                         
 ---------------------------------------------------------------------
 Center     Atomic      Atomic             Coordinates (Angstroms)
 Number     Number       Type             X           Y           Z
 ---------------------------------------------------------------------
      1         15           0        0.000000   -0.000000    0.117334
      2          1           0       -0.000000    1.023847   -0.880002
      3          1           0       -0.000000   -1.023847   -0.880002
 ---------------------------------------------------------------------
 Rotational constants (GHZ):         268.4728751         239.1839143         126.4917450
 Leave Link  202 at Wed Oct  7 13:07:35 2020, MaxMem=  2684354560 cpu:               3.1 elap:               0.6
 (Enter /udrive/faculty/rpeverati/g16/g16/l601.exe)
 Copying SCF densities to generalized density rwf, IOpCl= 1 IROHF=0.

 **********************************************************************

            Population analysis using the SCF density.

 **********************************************************************

 Orbital symmetries:
 Alpha Orbitals:
       Occupied  (A1) (A1) (B1) (B2) (A1) (A1) (B2) (A1) (B1)
       Virtual   (B2) (A1) (A1) (B2) (B1) (A1) (A2) (B1) (A1) (B2)
                 (A1) (A1) (B2)
 Beta  Orbitals:
       Occupied  (A1) (A1) (B2) (A1) (B1) (A1) (B2) (A1)
       Virtual   (B1) (B2) (A1) (A1) (B2) (A1) (B1) (A1) (B2) (A2)
                 (B1) (A1) (A1) (B2)
 The electronic state is 2-B1.
 Alpha  occ. eigenvalues --  -76.60183  -6.37939  -4.56146  -4.55652  -4.55285
 Alpha  occ. eigenvalues --   -0.59216  -0.35898  -0.28101  -0.22416
 Alpha virt. eigenvalues --    0.00439   0.05711   0.22769   0.26735   0.28329
 Alpha virt. eigenvalues --    0.29114   0.60416   0.61163   0.62208   0.65450
 Alpha virt. eigenvalues --    0.70401   0.95734   1.12850
  Beta  occ. eigenvalues --  -76.59793  -6.37549  -4.55406  -4.55057  -4.55002
  Beta  occ. eigenvalues --   -0.56481  -0.35384  -0.26635
  Beta virt. eigenvalues --   -0.14452   0.01320   0.08415   0.25069   0.27653
  Beta virt. eigenvalues --    0.30106   0.32318   0.63977   0.65962   0.66645
  Beta virt. eigenvalues --    0.67281   0.75961   0.98689   1.15466
          Condensed to atoms (all electrons):
               1          2          3
     1  P   14.468689   0.269216   0.269216
     2  H    0.269216   0.744099  -0.016876
     3  H    0.269216  -0.016876   0.744099
          Atomic-Atomic Spin Densities.
               1          2          3
     1  P    1.112521  -0.018842  -0.018842
     2  H   -0.018842  -0.022519   0.003943
     3  H   -0.018842   0.003943  -0.022519
 Mulliken charges and spin densities:
               1          2
     1  P   -0.007121   1.074836
     2  H    0.003561  -0.037418
     3  H    0.003561  -0.037418
 Sum of Mulliken charges =  -0.00000   1.00000
 Mulliken charges and spin densities with hydrogens summed into heavy atoms:
               1          2
     1  P   -0.000000   1.000000
 Electronic spatial extent (au):  <R**2>=             46.6245
 Charge=             -0.0000 electrons
 Dipole moment (field-independent basis, Debye):
    X=              0.0000    Y=              0.0000    Z=             -0.9003  Tot=              0.9003
 Quadrupole moment (field-independent basis, Debye-Ang):
   XX=            -14.8681   YY=            -13.9268   ZZ=            -15.4155
   XY=             -0.0000   XZ=             -0.0000   YZ=              0.0000
 Traceless Quadrupole moment (field-independent basis, Debye-Ang):
   XX=             -0.1313   YY=              0.8100   ZZ=             -0.6787
   XY=             -0.0000   XZ=             -0.0000   YZ=              0.0000
 Octapole moment (field-independent basis, Debye-Ang**2):
  XXX=              0.0000  YYY=              0.0000  ZZZ=             -1.4844  XYY=              0.0000
  XXY=              0.0000  XXZ=             -0.5958  XZZ=              0.0000  YZZ=              0.0000
  YYZ=             -0.1125  XYZ=             -0.0000
 Hexadecapole moment (field-independent basis, Debye-Ang**3):
 XXXX=            -21.4236 YYYY=            -29.5145 ZZZZ=            -32.3607 XXXY=             -0.0000
 XXXZ=             -0.0000 YYYX=             -0.0000 YYYZ=              0.0000 ZZZX=             -0.0000
 ZZZY=              0.0000 XXYY=             -8.5894 XXZZ=             -9.0570 YYZZ=             -9.9905
 XXYZ=             -0.0000 YYXZ=             -0.0000 ZZXY=             -0.0000
 N-N= 1.136428493083D+01 E-N=-8.372708612393D+02  KE= 3.417740938286D+02
                          Isotropic Fermi Contact Couplings
        Atom                 a.u.       MegaHertz       Gauss      10(-4) cm-1
     1  P(31)              0.15690     284.15278     101.39278      94.78317
     2  H(1)              -0.00965     -43.11244     -15.38359     -14.38076
     3  H(1)              -0.00965     -43.11244     -15.38359     -14.38076
 --------------------------------------------------------
       Center         ----  Spin Dipole Couplings  ----
                      3XX-RR        3YY-RR        3ZZ-RR
 --------------------------------------------------------
     1   Atom        2.737996     -1.313011     -1.424985
     2   Atom        0.002245      0.002040     -0.004286
     3   Atom        0.002245      0.002040     -0.004286
 --------------------------------------------------------
                        XY            XZ            YZ
 --------------------------------------------------------
     1   Atom       -0.000000     -0.000000      0.000000
     2   Atom       -0.000000      0.000000     -0.030639
     3   Atom       -0.000000     -0.000000      0.030639
 --------------------------------------------------------


 ---------------------------------------------------------------------------------
              Anisotropic Spin Dipole Couplings in Principal Axis System
 ---------------------------------------------------------------------------------

       Atom             a.u.   MegaHertz   Gauss  10(-4) cm-1        Axes

              Baa    -1.4250  -308.059  -109.923  -102.757  0.0000  0.0000  1.0000
     1 P(31)  Bbb    -1.3130  -283.852  -101.285   -94.683  0.0000  1.0000  0.0000
              Bcc     2.7380   591.910   211.208   197.440  1.0000 -0.0000  0.0000
 
              Baa    -0.0319   -17.033    -6.078    -5.682 -0.0000  0.6698  0.7425
     2 H(1)   Bbb     0.0022     1.198     0.427     0.400  1.0000  0.0000  0.0000
              Bcc     0.0297    15.836     5.651     5.282 -0.0000  0.7425 -0.6698
 
              Baa    -0.0319   -17.033    -6.078    -5.682  0.0000 -0.6698  0.7425
     3 H(1)   Bbb     0.0022     1.198     0.427     0.400  1.0000  0.0000  0.0000
              Bcc     0.0297    15.836     5.651     5.282 -0.0000  0.7425  0.6698
 

 ---------------------------------------------------------------------------------

 No NMR shielding tensors so no spin-rotation constants.
 Leave Link  601 at Wed Oct  7 13:07:36 2020, MaxMem=  2684354560 cpu:               4.1 elap:               0.7
 (Enter /udrive/faculty/rpeverati/g16/g16/l9999.exe)

 Test job not archived.
 1\1\GINC-NODE59\FOpt\UTPSSTPSS\6-31G(d)\H2P1(2)\RPEVERATI\07-Oct-2020\
 0\\#P Opt(MaxCyc=100) TPSSTPSS/6-31G* 5D 7F Integral=UltraFineGrid SCF
 =(NoSymm,XQC,MaxCyc=120) EmpiricalDispersion=GD3BJ IOp(1/33=1)\\TS sea
 rch on BH76.\\0,2\P,0.,0.,0.1251575782\H,0.,1.023846962,-0.8721775874\
 H,0.,-1.023846962,-0.8721775874\\Version=ES64L-G16RevA.03\State=2-B1\H
 F=-342.5074845\S2=0.754897\S2-1=0.\S2A=0.750007\RMSD=2.680e-09\RMSF=6.
 860e-06\Dipole=0.,0.,-0.3541973\Quadrupole=-0.0976301,0.60221,-0.50457
 99,0.,0.,0.\PG=C02V [C2(P1),SGV(H2)]\\@


 ON A TOMBSTONE, "HERE LIES LESTER MOORE,
 FOUR SLUGS FROM A 44, NO LES, NO MORE".
 Job cpu time:       0 days  0 hours  2 minutes  9.2 seconds.
 Elapsed time:       0 days  0 hours  0 minutes 26.4 seconds.
 File lengths (MBytes):  RWF=      5 Int=      0 D2E=      0 Chk=      1 Scr=      1
 Normal termination of Gaussian 16 at Wed Oct  7 13:07:37 2020.
