 Entering Gaussian System, Link 0=g16
 Input=MN_70_NH2_BH76_TPSSDBJ_631Gs.in
 Output=MN_70_NH2_BH76_TPSSDBJ_631Gs.log
 Initial command:
 /udrive/faculty/rpeverati/g16/g16/l1.exe "/udrive/scratch-directories/gaussian09/rpeverati/Gau-17332.inp" -scrdir="/udrive/scratch-directories/gaussian09/rpeverati/"
 Entering Link 1 = /udrive/faculty/rpeverati/g16/g16/l1.exe PID=     17344.
  
 Copyright (c) 1988,1990,1992,1993,1995,1998,2003,2009,2016,
            Gaussian, Inc.  All Rights Reserved.
  
 This is part of the Gaussian(R) 16 program.  It is based on
 the Gaussian(R) 09 system (copyright 2009, Gaussian, Inc.),
 the Gaussian(R) 03 system (copyright 2003, Gaussian, Inc.),
 the Gaussian(R) 98 system (copyright 1998, Gaussian, Inc.),
 the Gaussian(R) 94 system (copyright 1995, Gaussian, Inc.),
 the Gaussian 92(TM) system (copyright 1992, Gaussian, Inc.),
 the Gaussian 90(TM) system (copyright 1990, Gaussian, Inc.),
 the Gaussian 88(TM) system (copyright 1988, Gaussian, Inc.),
 the Gaussian 86(TM) system (copyright 1986, Carnegie Mellon
 University), and the Gaussian 82(TM) system (copyright 1983,
 Carnegie Mellon University). Gaussian is a federally registered
 trademark of Gaussian, Inc.
  
 This software contains proprietary and confidential information,
 including trade secrets, belonging to Gaussian, Inc.
  
 This software is provided under written license and may be
 used, copied, transmitted, or stored only in accord with that
 written license.
  
 The following legend is applicable only to US Government
 contracts under FAR:
  
                    RESTRICTED RIGHTS LEGEND
  
 Use, reproduction and disclosure by the US Government is
 subject to restrictions as set forth in subparagraphs (a)
 and (c) of the Commercial Computer Software - Restricted
 Rights clause in FAR 52.227-19.
  
 Gaussian, Inc.
 340 Quinnipiac St., Bldg. 40, Wallingford CT 06492
  
  
 ---------------------------------------------------------------
 Warning -- This program may not be used in any manner that
 competes with the business of Gaussian, Inc. or will provide
 assistance to any competitor of Gaussian, Inc.  The licensee
 of this program is prohibited from giving any competitor of
 Gaussian, Inc. access to this program.  By using this program,
 the user acknowledges that Gaussian, Inc. is engaged in the
 business of creating and licensing software in the field of
 computational chemistry and represents and warrants to the
 licensee that it is not a competitor of Gaussian, Inc. and that
 it will not use this program in any manner prohibited above.
 ---------------------------------------------------------------
  

 Cite this work as:
 Gaussian 16, Revision A.03,
 M. J. Frisch, G. W. Trucks, H. B. Schlegel, G. E. Scuseria, 
 M. A. Robb, J. R. Cheeseman, G. Scalmani, V. Barone, 
 G. A. Petersson, H. Nakatsuji, X. Li, M. Caricato, A. V. Marenich, 
 J. Bloino, B. G. Janesko, R. Gomperts, B. Mennucci, H. P. Hratchian, 
 J. V. Ortiz, A. F. Izmaylov, J. L. Sonnenberg, D. Williams-Young, 
 F. Ding, F. Lipparini, F. Egidi, J. Goings, B. Peng, A. Petrone, 
 T. Henderson, D. Ranasinghe, V. G. Zakrzewski, J. Gao, N. Rega, 
 G. Zheng, W. Liang, M. Hada, M. Ehara, K. Toyota, R. Fukuda, 
 J. Hasegawa, M. Ishida, T. Nakajima, Y. Honda, O. Kitao, H. Nakai, 
 T. Vreven, K. Throssell, J. A. Montgomery, Jr., J. E. Peralta, 
 F. Ogliaro, M. J. Bearpark, J. J. Heyd, E. N. Brothers, K. N. Kudin, 
 V. N. Staroverov, T. A. Keith, R. Kobayashi, J. Normand, 
 K. Raghavachari, A. P. Rendell, J. C. Burant, S. S. Iyengar, 
 J. Tomasi, M. Cossi, J. M. Millam, M. Klene, C. Adamo, R. Cammi, 
 J. W. Ochterski, R. L. Martin, K. Morokuma, O. Farkas, 
 J. B. Foresman, and D. J. Fox, Gaussian, Inc., Wallingford CT, 2016.
 
 ******************************************
 Gaussian 16:  ES64L-G16RevA.03 25-Dec-2016
                 7-Oct-2020 
 ******************************************
 %NoSave
 %nproc=12
 Will use up to   12 processors via shared memory.
 %mem=20GB
 %chk=MN_70_NH2_BH76_TPSSDBJ_631Gs
 ----------------------------------------------------------------------
 #P Opt(MaxCyc=100) TPSSTPSS/6-31G* 5D 7F Integral=UltraFineGrid SCF=(N
 oSymm,XQC,MaxCyc=120) EmpiricalDispersion=GD3BJ IOp(1/33=1)
 ----------------------------------------------------------------------
 1/6=100,18=20,19=15,26=4,33=1,38=1/1,3;
 2/9=110,12=2,17=6,18=5,40=1/2;
 3/5=1,6=6,7=1,8=11,11=2,25=1,30=1,71=1,74=2523,75=-5,124=41/1,2,3;
 4/9=2/1;
 5/5=2,7=120,8=3,13=1,38=5/2,8;
 6/7=2,8=2,9=2,10=2,28=1/1;
 7//1,2,3,16;
 1/6=100,18=20,19=15,26=4,33=1/3(2);
 2/9=110/2;
 99//99;
 2/9=110/2;
 3/5=1,6=6,7=1,8=11,11=2,25=1,30=1,71=1,74=2523,75=-5,124=41/1,2,3;
 4/5=5,9=2,16=3,69=1/1;
 5/5=2,7=120,8=3,13=1,38=5/2,8;
 7//1,2,3,16;
 1/6=100,18=20,19=15,26=4,33=1/3(-5);
 2/9=110/2;
 6/7=2,8=2,9=2,10=2,19=2,28=1/1;
 99/9=1/99;
 Leave Link    1 at Wed Oct  7 13:06:35 2020, MaxMem=  2684354560 cpu:               7.2 elap:               0.7
 (Enter /udrive/faculty/rpeverati/g16/g16/l101.exe)
 ONIOM data not found on unit 2.
 ------------------
 TS search on BH76.
 ------------------
 TstMul:  ICh=     0
 TstMul:  Mul=     2
 TstMul:  ICh=     0
 TstMul:  Mul=     2
 Symbolic Z-matrix:
 Charge =  0 Multiplicity = 2
 N                     0.        0.        0.14142 
 H                     0.        0.80231  -0.49495 
 H                     0.       -0.80231  -0.49495 
 
 RdStrC is calling ZToCFu for IStruc=1 NZ=     3.
 PrtBox:  NBox=     1 Levels=  1 BoxLen=    8.00 SMaxX=        3.03
          Shift=            0.000000            1.516150            0.935328
 Box      1 Number                   0 centers from      1 to      3:
 After GenITR:
 ITRead=  0  0  0
 MicOpt= -1 -1 -1
 ITRead=  0  0  0
 MicOpt= -1 -1 -1
 NAtoms=      3 NQM=        3 NQMF=       0 NMMI=      0 NMMIF=      0
                NMic=       0 NMicF=      0.
                    Isotopes and Nuclear Properties:
 (Nuclear quadrupole moments (NQMom) in fm**2, nuclear magnetic moments (NMagM)
  in nuclear magnetons)

  Atom         1           2           3
 IAtWgt=          14           1           1
 AtmWgt=  14.0030740   1.0078250   1.0078250
 NucSpn=           2           1           1
 AtZEff=   0.0000000   0.0000000   0.0000000
 NQMom=    2.0440000   0.0000000   0.0000000
 NMagM=    0.4037610   2.7928460   2.7928460
 AtZNuc=   7.0000000   1.0000000   1.0000000
 No MM parameters found.
 Leave Link  101 at Wed Oct  7 13:06:36 2020, MaxMem=  2684354560 cpu:               3.7 elap:               0.6
 (Enter /udrive/faculty/rpeverati/g16/g16/l103.exe)

 GradGradGradGradGradGradGradGradGradGradGradGradGradGradGradGradGradGrad
 Berny optimization.
 Optmz: redundant internal coordinate code flag= 1
 Initialization pass.
                           ----------------------------
                           !    Initial Parameters    !
                           ! (Angstroms and Degrees)  !
 --------------------------                            --------------------------
 ! Name  Definition              Value          Derivative Info.                !
 --------------------------------------------------------------------------------
 ! R1    R(1,2)                  1.024          estimate D2E/DX2                !
 ! R2    R(1,3)                  1.024          estimate D2E/DX2                !
 ! A1    A(2,1,3)              103.1592         estimate D2E/DX2                !
 --------------------------------------------------------------------------------
 Maximum allowed force set to 1.00D+20.
 Trust Radius=3.00D-01 FncErr=1.00D-07 GrdErr=1.00D-06 EigMax=2.50D+02 EigMin=1.00D-04
 Number of steps in this run=    100 maximum allowed number of steps=    100.
 GradGradGradGradGradGradGradGradGradGradGradGradGradGradGradGradGradGrad

 Leave Link  103 at Wed Oct  7 13:06:36 2020, MaxMem=  2684354560 cpu:               0.8 elap:               0.4
 (Enter /udrive/faculty/rpeverati/g16/g16/l202.exe)
                          Input orientation:                          
 ---------------------------------------------------------------------
 Center     Atomic      Atomic             Coordinates (Angstroms)
 Number     Number       Type             X           Y           Z
 ---------------------------------------------------------------------
      1          7           0        0.000000    0.000000    0.141415
      2          1           0        0.000000    0.802312   -0.494954
      3          1           0        0.000000   -0.802312   -0.494954
 ---------------------------------------------------------------------
                    Distance matrix (angstroms):
                    1          2          3
     1  N    0.000000
     2  H    1.024046   0.000000
     3  H    1.024046   1.604624   0.000000
 Stoichiometry    H2N(2)
 Framework group  C2V[C2(N),SGV(H2)]
 Deg. of freedom     2
 Full point group                 C2V     NOp   4
 Largest Abelian subgroup         C2V     NOp   4
 Largest concise Abelian subgroup C2      NOp   2
                         Standard orientation:                         
 ---------------------------------------------------------------------
 Center     Atomic      Atomic             Coordinates (Angstroms)
 Number     Number       Type             X           Y           Z
 ---------------------------------------------------------------------
      1          7           0        0.000000   -0.000000    0.141415
      2          1           0        0.000000    0.802312   -0.494954
      3          1           0       -0.000000   -0.802312   -0.494954
 ---------------------------------------------------------------------
 Rotational constants (GHZ):         708.2522038         389.5071682         251.3021681
 Leave Link  202 at Wed Oct  7 13:06:37 2020, MaxMem=  2684354560 cpu:               1.5 elap:               0.6
 (Enter /udrive/faculty/rpeverati/g16/g16/l301.exe)
 Standard basis: 6-31G(d) (5D, 7F)
 Ernie: Thresh=  0.10000D-02 Tol=  0.10000D-05 Strict=F.
 There are    10 symmetry adapted cartesian basis functions of A1  symmetry.
 There are     1 symmetry adapted cartesian basis functions of A2  symmetry.
 There are     3 symmetry adapted cartesian basis functions of B1  symmetry.
 There are     5 symmetry adapted cartesian basis functions of B2  symmetry.
 There are     9 symmetry adapted basis functions of A1  symmetry.
 There are     1 symmetry adapted basis functions of A2  symmetry.
 There are     3 symmetry adapted basis functions of B1  symmetry.
 There are     5 symmetry adapted basis functions of B2  symmetry.
    18 basis functions,    36 primitive gaussians,    19 cartesian basis functions
     5 alpha electrons        4 beta electrons
       nuclear repulsion energy         7.5643007296 Hartrees.
 IExCor= 2523 DFT=T Ex=TPSS Corr=TPSS ExCW=0 ScaHFX=  0.000000
 ScaDFX=  1.000000  1.000000  1.000000  1.000000 ScalE2=  1.000000  1.000000
 IRadAn=      5 IRanWt=     -1 IRanGd=            0 ICorTp=0 IEmpDi=141
 NAtoms=    3 NActive=    3 NUniq=    2 SFac= 2.25D+00 NAtFMM=   60 NAOKFM=F Big=F
 Integral buffers will be    131072 words long.
 Raffenetti 2 integral format.
 Two-electron integral symmetry is turned on.
 R6Disp:  Grimme-D3(BJ) Dispersion energy=       -0.0005433232 Hartrees.
 Nuclear repulsion after empirical dispersion term =        7.5637574064 Hartrees.
 Leave Link  301 at Wed Oct  7 13:06:38 2020, MaxMem=  2684354560 cpu:               2.5 elap:               0.8
 (Enter /udrive/faculty/rpeverati/g16/g16/l302.exe)
 NPDir=0 NMtPBC=     1 NCelOv=     1 NCel=       1 NClECP=     1 NCelD=      1
         NCelK=      1 NCelE2=     1 NClLst=     1 CellRange=     0.0.
 One-electron integrals computed using PRISM.
 One-electron integral symmetry used in STVInt
 NBasis=    18 RedAO= T EigKep=  4.71D-02  NBF=     9     1     3     5
 NBsUse=    18 1.00D-06 EigRej= -1.00D+00 NBFU=     9     1     3     5
 Precomputing XC quadrature grid using
 IXCGrd= 4 IRadAn=           5 IRanWt=          -1 IRanGd=           0 AccXCQ= 0.00D+00.
 Generated NRdTot=       0 NPtTot=           0 NUsed=           0 NTot=          32
 NSgBfM=    19    19    19    19    19 MxSgAt=     3 MxSgA2=     3.
 Leave Link  302 at Wed Oct  7 13:06:39 2020, MaxMem=  2684354560 cpu:               3.4 elap:               0.9
 (Enter /udrive/faculty/rpeverati/g16/g16/l303.exe)
 DipDrv:  MaxL=1.
 Leave Link  303 at Wed Oct  7 13:06:40 2020, MaxMem=  2684354560 cpu:               1.1 elap:               0.7
 (Enter /udrive/faculty/rpeverati/g16/g16/l401.exe)
 SCF N**3 symmetry information disabled.
 ExpMin= 1.61D-01 ExpMax= 4.17D+03 ExpMxC= 6.27D+02 IAcc=3 IRadAn=         5 AccDes= 0.00D+00
 Harris functional with IExCor= 1009 and IRadAn=       5 diagonalized for initial guess.
 HarFok:  IExCor= 1009 AccDes= 0.00D+00 IRadAn=         5 IDoV= 1 UseB2=F ITyADJ=14
 ICtDFT=  3500011 ScaDFX=  1.000000  1.000000  1.000000  1.000000
 FoFCou: FMM=F IPFlag=           0 FMFlag=      100000 FMFlg1=           0
         NFxFlg=           0 DoJE=T BraDBF=F KetDBF=T FulRan=T
         wScrn=  0.000000 ICntrl=       500 IOpCl=  0 I1Cent=   200000004 NGrid=           0
         NMat0=    1 NMatS0=      1 NMatT0=    0 NMatD0=    1 NMtDS0=    0 NMtDT0=    0
 Petite list used in FoFCou.
 Harris En= -55.7792903563621    
 JPrj=0 DoOrth=F DoCkMO=F.
 Initial guess orbital symmetries:
 Alpha Orbitals:
       Occupied  (A1) (A1) (B2) (A1) (B1)
       Virtual   (A1) (B2) (B1) (B2) (A1) (A1) (B2) (A1) (A1) (A2)
                 (B1) (A1) (B2)
 Beta  Orbitals:
       Occupied  (A1) (A1) (B2) (A1)
       Virtual   (B1) (A1) (B2) (B1) (B2) (A1) (A1) (B2) (A1) (A1)
                 (A2) (B1) (A1) (B2)
 The electronic state of the initial guess is 2-B1.
 Initial guess <Sx>= 0.0000 <Sy>= 0.0000 <Sz>= 0.5000 <S**2>= 0.7500 S= 0.5000
 Leave Link  401 at Wed Oct  7 13:06:42 2020, MaxMem=  2684354560 cpu:               3.9 elap:               0.8
 (Enter /udrive/faculty/rpeverati/g16/g16/l502.exe)
 Keep J ints in memory in symmetry-blocked form, NReq=10365008.
 FoFCou: FMM=F IPFlag=           0 FMFlag=           0 FMFlg1=           0
         NFxFlg=           0 DoJE=F BraDBF=F KetDBF=F FulRan=T
         wScrn=  0.000000 ICntrl=       600 IOpCl=  0 I1Cent=           0 NGrid=           0
         NMat0=    1 NMatS0=    171 NMatT0=    0 NMatD0=    1 NMtDS0=    0 NMtDT0=    0
 Petite list used in FoFCou.
 UHF open shell SCF:
 Using DIIS extrapolation, IDIIS=  1040.
 NGot=  2684354560 LenX=  2684347700 LenY=  2684346818
 Requested convergence on RMS density matrix=1.00D-08 within 120 cycles.
 Requested convergence on MAX density matrix=1.00D-06.
 Requested convergence on             energy=1.00D-06.
 No special actions if energy rises.
 Integral accuracy reduced to 1.0D-05 until final iterations.

 Cycle   1  Pass 0  IDiag  1:
 E= -55.8547797402479    
 DIIS: error= 3.95D-02 at cycle   1 NSaved=   1.
 NSaved= 1 IEnMin= 1 EnMin= -55.8547797402479     IErMin= 1 ErrMin= 3.95D-02
 ErrMax= 3.95D-02  0.00D+00 EMaxC= 1.00D-01 BMatC= 8.51D-02 BMatP= 8.51D-02
 IDIUse=3 WtCom= 6.05D-01 WtEn= 3.95D-01
 Coeff-Com:  0.100D+01
 Coeff-En:   0.100D+01
 Coeff:      0.100D+01
 Gap=     0.271 Goal=   None    Shift=    0.000
 Gap=     0.117 Goal=   None    Shift=    0.000
 GapD=    0.117 DampG=1.000 DampE=0.500 DampFc=0.5000 IDamp=-1.
 Damping current iteration by 5.00D-01
 RMSDP=1.95D-02 MaxDP=1.47D-01              OVMax= 1.32D-01

 Cycle   2  Pass 0  IDiag  1:
 E= -55.8636878651154     Delta-E=       -0.008908124867 Rises=F Damp=T
 DIIS: error= 1.25D-02 at cycle   2 NSaved=   2.
 NSaved= 2 IEnMin= 2 EnMin= -55.8636878651154     IErMin= 2 ErrMin= 1.25D-02
 ErrMax= 1.25D-02  0.00D+00 EMaxC= 1.00D-01 BMatC= 6.96D-03 BMatP= 8.51D-02
 IDIUse=3 WtCom= 8.75D-01 WtEn= 1.25D-01
 Coeff-Com:  0.129D+00 0.871D+00
 Coeff-En:   0.198D+00 0.802D+00
 Coeff:      0.138D+00 0.862D+00
 Gap=     0.327 Goal=   None    Shift=    0.000
 Gap=     0.117 Goal=   None    Shift=    0.000
 RMSDP=2.28D-03 MaxDP=2.55D-02 DE=-8.91D-03 OVMax= 6.81D-02

 Cycle   3  Pass 0  IDiag  1:
 E= -55.8771317147852     Delta-E=       -0.013443849670 Rises=F Damp=F
 DIIS: error= 2.08D-03 at cycle   3 NSaved=   3.
 NSaved= 3 IEnMin= 3 EnMin= -55.8771317147852     IErMin= 3 ErrMin= 2.08D-03
 ErrMax= 2.08D-03  0.00D+00 EMaxC= 1.00D-01 BMatC= 1.81D-04 BMatP= 6.96D-03
 IDIUse=3 WtCom= 9.79D-01 WtEn= 2.08D-02
 Coeff-Com: -0.137D-01 0.368D-01 0.977D+00
 Coeff-En:   0.000D+00 0.000D+00 0.100D+01
 Coeff:     -0.135D-01 0.360D-01 0.977D+00
 Gap=     0.331 Goal=   None    Shift=    0.000
 Gap=     0.123 Goal=   None    Shift=    0.000
 RMSDP=3.77D-04 MaxDP=2.62D-03 DE=-1.34D-02 OVMax= 4.16D-03

 Cycle   4  Pass 0  IDiag  1:
 E= -55.8771889861191     Delta-E=       -0.000057271334 Rises=F Damp=F
 DIIS: error= 6.20D-04 at cycle   4 NSaved=   4.
 NSaved= 4 IEnMin= 4 EnMin= -55.8771889861191     IErMin= 4 ErrMin= 6.20D-04
 ErrMax= 6.20D-04  0.00D+00 EMaxC= 1.00D-01 BMatC= 1.76D-05 BMatP= 1.81D-04
 IDIUse=3 WtCom= 9.94D-01 WtEn= 6.20D-03
 Coeff-Com: -0.647D-02-0.157D-01 0.149D+00 0.873D+00
 Coeff-En:   0.000D+00 0.000D+00 0.000D+00 0.100D+01
 Coeff:     -0.643D-02-0.156D-01 0.148D+00 0.874D+00
 Gap=     0.331 Goal=   None    Shift=    0.000
 Gap=     0.123 Goal=   None    Shift=    0.000
 RMSDP=1.20D-04 MaxDP=8.60D-04 DE=-5.73D-05 OVMax= 1.27D-03

 Cycle   5  Pass 0  IDiag  1:
 E= -55.8771951367775     Delta-E=       -0.000006150658 Rises=F Damp=F
 DIIS: error= 1.91D-04 at cycle   5 NSaved=   5.
 NSaved= 5 IEnMin= 5 EnMin= -55.8771951367775     IErMin= 5 ErrMin= 1.91D-04
 ErrMax= 1.91D-04  0.00D+00 EMaxC= 1.00D-01 BMatC= 1.24D-06 BMatP= 1.76D-05
 IDIUse=3 WtCom= 9.98D-01 WtEn= 1.91D-03
 Coeff-Com:  0.110D-02 0.271D-02-0.928D-01-0.143D+00 0.123D+01
 Coeff-En:   0.000D+00 0.000D+00 0.000D+00 0.000D+00 0.100D+01
 Coeff:      0.110D-02 0.270D-02-0.927D-01-0.143D+00 0.123D+01
 Gap=     0.331 Goal=   None    Shift=    0.000
 Gap=     0.123 Goal=   None    Shift=    0.000
 RMSDP=6.35D-05 MaxDP=4.61D-04 DE=-6.15D-06 OVMax= 5.63D-04

 Cycle   6  Pass 0  IDiag  1:
 E= -55.8771959232428     Delta-E=       -0.000000786465 Rises=F Damp=F
 DIIS: error= 2.53D-05 at cycle   6 NSaved=   6.
 NSaved= 6 IEnMin= 6 EnMin= -55.8771959232428     IErMin= 6 ErrMin= 2.53D-05
 ErrMax= 2.53D-05  0.00D+00 EMaxC= 1.00D-01 BMatC= 2.81D-08 BMatP= 1.24D-06
 IDIUse=1 WtCom= 1.00D+00 WtEn= 0.00D+00
 Coeff-Com:  0.251D-03-0.132D-03 0.113D-01-0.902D-02-0.232D+00 0.123D+01
 Coeff:      0.251D-03-0.132D-03 0.113D-01-0.902D-02-0.232D+00 0.123D+01
 Gap=     0.331 Goal=   None    Shift=    0.000
 Gap=     0.123 Goal=   None    Shift=    0.000
 RMSDP=1.31D-05 MaxDP=7.84D-05 DE=-7.86D-07 OVMax= 1.05D-04

 Cycle   7  Pass 0  IDiag  1:
 E= -55.8771959430125     Delta-E=       -0.000000019770 Rises=F Damp=F
 DIIS: error= 9.13D-07 at cycle   7 NSaved=   7.
 NSaved= 7 IEnMin= 7 EnMin= -55.8771959430125     IErMin= 7 ErrMin= 9.13D-07
 ErrMax= 9.13D-07  0.00D+00 EMaxC= 1.00D-01 BMatC= 3.92D-11 BMatP= 2.81D-08
 IDIUse=1 WtCom= 1.00D+00 WtEn= 0.00D+00
 Coeff-Com: -0.228D-04 0.317D-06-0.335D-03 0.850D-03 0.110D-01-0.932D-01
 Coeff-Com:  0.108D+01
 Coeff:     -0.228D-04 0.317D-06-0.335D-03 0.850D-03 0.110D-01-0.932D-01
 Coeff:      0.108D+01
 Gap=     0.331 Goal=   None    Shift=    0.000
 Gap=     0.123 Goal=   None    Shift=    0.000
 RMSDP=4.88D-07 MaxDP=2.77D-06 DE=-1.98D-08 OVMax= 4.35D-06

 Initial convergence to 1.0D-05 achieved.  Increase integral accuracy.
 Cycle   8  Pass 1  IDiag  1:
 E= -55.8771972878022     Delta-E=       -0.000001344790 Rises=F Damp=F
 DIIS: error= 2.60D-06 at cycle   1 NSaved=   1.
 NSaved= 1 IEnMin= 1 EnMin= -55.8771972878022     IErMin= 1 ErrMin= 2.60D-06
 ErrMax= 2.60D-06  0.00D+00 EMaxC= 1.00D-01 BMatC= 1.59D-10 BMatP= 1.59D-10
 IDIUse=1 WtCom= 1.00D+00 WtEn= 0.00D+00
 Coeff-Com:  0.100D+01
 Coeff:      0.100D+01
 Gap=     0.331 Goal=   None    Shift=    0.000
 Gap=     0.123 Goal=   None    Shift=    0.000
 RMSDP=4.88D-07 MaxDP=2.77D-06 DE=-1.34D-06 OVMax= 4.58D-06

 Cycle   9  Pass 1  IDiag  1:
 E= -55.8771972878387     Delta-E=       -0.000000000036 Rises=F Damp=F
 DIIS: error= 9.43D-07 at cycle   2 NSaved=   2.
 NSaved= 2 IEnMin= 2 EnMin= -55.8771972878387     IErMin= 2 ErrMin= 9.43D-07
 ErrMax= 9.43D-07  0.00D+00 EMaxC= 1.00D-01 BMatC= 3.60D-11 BMatP= 1.59D-10
 IDIUse=1 WtCom= 1.00D+00 WtEn= 0.00D+00
 Coeff-Com:  0.222D+00 0.778D+00
 Coeff:      0.222D+00 0.778D+00
 Gap=     0.331 Goal=   None    Shift=    0.000
 Gap=     0.123 Goal=   None    Shift=    0.000
 RMSDP=2.89D-07 MaxDP=2.23D-06 DE=-3.65D-11 OVMax= 2.43D-06

 Cycle  10  Pass 1  IDiag  1:
 E= -55.8771972878434     Delta-E=       -0.000000000005 Rises=F Damp=F
 DIIS: error= 7.48D-07 at cycle   3 NSaved=   3.
 NSaved= 3 IEnMin= 3 EnMin= -55.8771972878434     IErMin= 3 ErrMin= 7.48D-07
 ErrMax= 7.48D-07  0.00D+00 EMaxC= 1.00D-01 BMatC= 2.34D-11 BMatP= 3.60D-11
 IDIUse=1 WtCom= 1.00D+00 WtEn= 0.00D+00
 Coeff-Com: -0.616D-01 0.447D+00 0.615D+00
 Coeff:     -0.616D-01 0.447D+00 0.615D+00
 Gap=     0.331 Goal=   None    Shift=    0.000
 Gap=     0.123 Goal=   None    Shift=    0.000
 RMSDP=1.28D-07 MaxDP=9.92D-07 DE=-4.72D-12 OVMax= 1.16D-06

 Cycle  11  Pass 1  IDiag  1:
 E= -55.8771972878493     Delta-E=       -0.000000000006 Rises=F Damp=F
 DIIS: error= 6.49D-08 at cycle   4 NSaved=   4.
 NSaved= 4 IEnMin= 4 EnMin= -55.8771972878493     IErMin= 4 ErrMin= 6.49D-08
 ErrMax= 6.49D-08  0.00D+00 EMaxC= 1.00D-01 BMatC= 2.00D-13 BMatP= 2.34D-11
 IDIUse=1 WtCom= 1.00D+00 WtEn= 0.00D+00
 Coeff-Com: -0.513D-02-0.120D+00-0.116D+00 0.124D+01
 Coeff:     -0.513D-02-0.120D+00-0.116D+00 0.124D+01
 Gap=     0.331 Goal=   None    Shift=    0.000
 Gap=     0.123 Goal=   None    Shift=    0.000
 RMSDP=2.81D-08 MaxDP=1.75D-07 DE=-5.81D-12 OVMax= 2.54D-07

 Cycle  12  Pass 1  IDiag  1:
 E= -55.8771972878494     Delta-E=       -0.000000000000 Rises=F Damp=F
 DIIS: error= 1.75D-08 at cycle   5 NSaved=   5.
 NSaved= 5 IEnMin= 5 EnMin= -55.8771972878494     IErMin= 5 ErrMin= 1.75D-08
 ErrMax= 1.75D-08  0.00D+00 EMaxC= 1.00D-01 BMatC= 1.23D-14 BMatP= 2.00D-13
 IDIUse=1 WtCom= 1.00D+00 WtEn= 0.00D+00
 Coeff-Com:  0.197D-02-0.497D-01-0.542D-01 0.211D+00 0.891D+00
 Coeff:      0.197D-02-0.497D-01-0.542D-01 0.211D+00 0.891D+00
 Gap=     0.331 Goal=   None    Shift=    0.000
 Gap=     0.123 Goal=   None    Shift=    0.000
 RMSDP=5.24D-09 MaxDP=3.54D-08 DE=-1.28D-13 OVMax= 5.05D-08

 SCF Done:  E(UTPSS-TPSS) =  -55.8771972878     A.U. after   12 cycles
            NFock= 12  Conv=0.52D-08     -V/T= 2.0050
 <Sx>= 0.0000 <Sy>= 0.0000 <Sz>= 0.5000 <S**2>= 0.7530 S= 0.5015
 <L.S>= 0.000000000000E+00
 KE= 5.559984199711D+01 PE=-1.458356839188D+02 EE= 2.679488722746D+01
 Annihilation of the first spin contaminant:
 S**2 before annihilation     0.7530,   after     0.7500
 Leave Link  502 at Wed Oct  7 13:06:44 2020, MaxMem=  2684354560 cpu:              12.9 elap:               1.7
 (Enter /udrive/faculty/rpeverati/g16/g16/l508.exe)
 QCSCF skips out because SCF is already converged.
 Leave Link  508 at Wed Oct  7 13:06:45 2020, MaxMem=  2684354560 cpu:               0.4 elap:               0.5
 (Enter /udrive/faculty/rpeverati/g16/g16/l601.exe)
 Copying SCF densities to generalized density rwf, IOpCl= 1 IROHF=0.

 **********************************************************************

            Population analysis using the SCF density.

 **********************************************************************

 Orbital symmetries:
 Alpha Orbitals:
       Occupied  (A1) (A1) (B2) (A1) (B1)
       Virtual   (A1) (B2) (B1) (B2) (A1) (A1) (B2) (A1) (A2) (A1)
                 (B1) (A1) (B2)
 Beta  Orbitals:
       Occupied  (A1) (A1) (B2) (A1)
       Virtual   (B1) (A1) (B2) (B2) (A1) (B1) (A1) (B2) (A1) (A1)
                 (A2) (B1) (A1) (B2)
 The electronic state is 2-B1.
 Alpha  occ. eigenvalues --  -14.13767  -0.79275  -0.42593  -0.27116  -0.26383
 Alpha virt. eigenvalues --    0.06756   0.13675   0.62736   0.66465   0.69269
 Alpha virt. eigenvalues --    0.80957   0.86158   1.06039   1.61478   1.63928
 Alpha virt. eigenvalues --    1.64396   2.06968   2.37337
  Beta  occ. eigenvalues --  -14.11759  -0.74599  -0.41467  -0.24879
  Beta virt. eigenvalues --   -0.12588   0.08144   0.14582   0.67427   0.71322
  Beta virt. eigenvalues --    0.72317   0.85202   0.88610   1.10970   1.67887
  Beta virt. eigenvalues --    1.69865   1.72413   2.15795   2.41488
          Condensed to atoms (all electrons):
               1          2          3
     1  N    7.079463   0.257645   0.257645
     2  H    0.257645   0.480644  -0.035666
     3  H    0.257645  -0.035666   0.480644
          Atomic-Atomic Spin Densities.
               1          2          3
     1  N    1.093072  -0.011054  -0.011054
     2  H   -0.011054  -0.028573   0.004144
     3  H   -0.011054   0.004144  -0.028573
 Mulliken charges and spin densities:
               1          2
     1  N   -0.594753   1.070965
     2  H    0.297377  -0.035482
     3  H    0.297377  -0.035482
 Sum of Mulliken charges =  -0.00000   1.00000
 Mulliken charges and spin densities with hydrogens summed into heavy atoms:
               1          2
     1  N   -0.000000   1.000000
 Electronic spatial extent (au):  <R**2>=             21.5180
 Charge=             -0.0000 electrons
 Dipole moment (field-independent basis, Debye):
    X=             -0.0000    Y=              0.0000    Z=             -1.9840  Tot=              1.9840
 Quadrupole moment (field-independent basis, Debye-Ang):
   XX=             -6.9053   YY=             -5.4887   ZZ=             -7.3390
   XY=              0.0000   XZ=              0.0000   YZ=             -0.0000
 Traceless Quadrupole moment (field-independent basis, Debye-Ang):
   XX=             -0.3276   YY=              1.0890   ZZ=             -0.7613
   XY=              0.0000   XZ=              0.0000   YZ=             -0.0000
 Octapole moment (field-independent basis, Debye-Ang**2):
  XXX=              0.0000  YYY=              0.0000  ZZZ=             -1.8298  XYY=             -0.0000
  XXY=              0.0000  XXZ=             -0.4076  XZZ=              0.0000  YZZ=              0.0000
  YYZ=             -1.1342  XYZ=             -0.0000
 Hexadecapole moment (field-independent basis, Debye-Ang**3):
 XXXX=             -5.6541 YYYY=             -9.1006 ZZZZ=             -9.4971 XXXY=             -0.0000
 XXXZ=             -0.0000 YYYX=             -0.0000 YYYZ=             -0.0000 ZZZX=             -0.0000
 ZZZY=             -0.0000 XXYY=             -2.6733 XXZZ=             -2.5555 YYZZ=             -2.8085
 XXYZ=             -0.0000 YYXZ=              0.0000 ZZXY=             -0.0000
 N-N= 7.563757406405D+00 E-N=-1.458356839335D+02  KE= 5.559984199711D+01
                          Isotropic Fermi Contact Couplings
        Atom                 a.u.       MegaHertz       Gauss      10(-4) cm-1
     1  N(14)              0.15365      49.64367      17.71410      16.55935
     2  H(1)              -0.01492     -66.69610     -23.79883     -22.24743
     3  H(1)              -0.01492     -66.69610     -23.79883     -22.24743
 --------------------------------------------------------
       Center         ----  Spin Dipole Couplings  ----
                      3XX-RR        3YY-RR        3ZZ-RR
 --------------------------------------------------------
     1   Atom        2.112965     -1.033944     -1.079021
     2   Atom       -0.022614      0.042944     -0.020330
     3   Atom       -0.022614      0.042944     -0.020330
 --------------------------------------------------------
                        XY            XZ            YZ
 --------------------------------------------------------
     1   Atom        0.000000      0.000000      0.000000
     2   Atom       -0.000000      0.000000     -0.107740
     3   Atom       -0.000000     -0.000000      0.107740
 --------------------------------------------------------


 ---------------------------------------------------------------------------------
              Anisotropic Spin Dipole Couplings in Principal Axis System
 ---------------------------------------------------------------------------------

       Atom             a.u.   MegaHertz   Gauss  10(-4) cm-1        Axes

              Baa    -1.0790   -41.615   -14.849   -13.881  0.0000  0.0000  1.0000
     1 N(14)  Bbb    -1.0339   -39.877   -14.229   -13.302  0.0000  1.0000 -0.0000
              Bcc     2.1130    81.492    29.079    27.183  1.0000  0.0000  0.0000
 
              Baa    -0.1010   -53.879   -19.226   -17.972 -0.0000  0.5993  0.8005
     2 H(1)   Bbb    -0.0226   -12.065    -4.305    -4.025  1.0000  0.0000  0.0000
              Bcc     0.1236    65.945    23.531    21.997 -0.0000  0.8005 -0.5993
 
              Baa    -0.1010   -53.879   -19.226   -17.972  0.0000 -0.5993  0.8005
     3 H(1)   Bbb    -0.0226   -12.065    -4.305    -4.025  1.0000  0.0000  0.0000
              Bcc     0.1236    65.945    23.531    21.997 -0.0000  0.8005  0.5993
 

 ---------------------------------------------------------------------------------

 No NMR shielding tensors so no spin-rotation constants.
 Leave Link  601 at Wed Oct  7 13:06:46 2020, MaxMem=  2684354560 cpu:               4.5 elap:               0.9
 (Enter /udrive/faculty/rpeverati/g16/g16/l701.exe)
 ... and contract with generalized density number  0.
 Compute integral first derivatives.
 R6Disp: Adding Grimme-D3(BJ) dispersion energy 1st derivatives to the gradient.
 Leave Link  701 at Wed Oct  7 13:06:47 2020, MaxMem=  2684354560 cpu:               2.7 elap:               0.6
 (Enter /udrive/faculty/rpeverati/g16/g16/l702.exe)
 L702 exits ... SP integral derivatives will be done elsewhere.
 Leave Link  702 at Wed Oct  7 13:06:48 2020, MaxMem=  2684354560 cpu:               1.2 elap:               0.5
 (Enter /udrive/faculty/rpeverati/g16/g16/l703.exe)
 Integral derivatives from FoFJK, PRISM(SPDF).
 Compute integral first derivatives, UseDBF=F ICtDFT=           0.
 Calling FoFJK, ICntrl=      2527 FMM=F ISym2X=1 I1Cent= 0 IOpClX= 0 NMat=1 NMatS=1 NMatT=0.
 FoFJK:  IHMeth= 1 ICntrl=    2527 DoSepK=F KAlg= 0 I1Cent=           0 FoldK=F
 IRaf=         0 NMat=       1 IRICut=       1 DoRegI=T DoRafI=F ISym2E= 1 IDoP0=0 IntGTp=1.
 FoFCou: FMM=F IPFlag=           0 FMFlag=      100000 FMFlg1=         800
         NFxFlg=           0 DoJE=F BraDBF=F KetDBF=F FulRan=T
         wScrn=  0.000000 ICntrl=      2527 IOpCl=  0 I1Cent=           0 NGrid=           0
         NMat0=    1 NMatS0=      1 NMatT0=    0 NMatD0=    1 NMtDS0=    0 NMtDT0=    0
 Petite list used in FoFCou.
 Leave Link  703 at Wed Oct  7 13:06:49 2020, MaxMem=  2684354560 cpu:               3.7 elap:               0.7
 (Enter /udrive/faculty/rpeverati/g16/g16/l716.exe)
 Dipole        =-5.00129843D-17 0.00000000D+00-7.80564989D-01
 ***** Axes restored to original set *****
 -------------------------------------------------------------------
 Center     Atomic                   Forces (Hartrees/Bohr)
 Number     Number              X              Y              Z
 -------------------------------------------------------------------
      1        7          -0.000000000    0.000000000    0.016840671
      2        1           0.000000000    0.008926429   -0.008420336
      3        1           0.000000000   -0.008926429   -0.008420336
 -------------------------------------------------------------------
 Cartesian Forces:  Max     0.016840671 RMS     0.008060704
 Leave Link  716 at Wed Oct  7 13:06:50 2020, MaxMem=  2684354560 cpu:               1.9 elap:               0.8
 (Enter /udrive/faculty/rpeverati/g16/g16/l103.exe)

 GradGradGradGradGradGradGradGradGradGradGradGradGradGradGradGradGradGrad
 Berny optimization.
 Optmz: redundant internal coordinate code flag= 1
 FormGI is forming the generalized inverse of G from B-inverse, IUseBI=4.
 Internal  Forces:  Max     0.012226231 RMS     0.010051368
 Search for a local minimum.
 Step number   1 out of a maximum of  100
 All quantities printed in internal units (Hartrees-Bohrs-Radians)
 RMS Force = .10051D-01 SwitMx=.10000D-02 MixMth= 1
 Mixed Optimization -- RFO/linear search
 Second derivative matrix not updated -- first step.
 The second derivative matrix:
                          R1        R2        A1
           R1           0.43699
           R2           0.00000   0.43699
           A1           0.00000   0.00000   0.16000
 ITU=  0
 Eigenvectors of the second derivative matrix:
                           1         2         3
     Eigenvalues --     0.16000   0.43699   0.43699
   1         R1         0.00000   0.99783  -0.06588
   2         R2         0.00000  -0.06588  -0.99783
   3         A1         1.00000  -0.00000   0.00000
 Iter=   1 RLamda= 0.00000000D+00 Sum=-7.09945523D-04.
 Iter=   2 RLamda=-7.09945523D-04 Sum=-7.08721855D-04.
 Iter=   3 RLamda=-7.08721855D-04 Sum=-7.08723961D-04.
 RFO step:  Lambda=-7.08721855D-04 EMin= 1.60000000D-01
 Linear search not attempted -- first point.
 Iteration  1 RMS(Cart)=  0.01724275 RMS(Int)=  0.00010852
 Iteration  2 RMS(Cart)=  0.00012660 RMS(Int)=  0.00000001
 Iteration  3 RMS(Cart)=  0.00000000 RMS(Int)=  0.00000000
 ITry= 1 IFail=0 DXMaxC= 1.80D-02 DCOld= 1.00D+10 DXMaxT= 3.00D-01 DXLimC= 3.00D+00 Rises=F
 ClnCor:  largest displacement from symmetrization is 8.67D-16 for atom     3.
 Variable       Old X    -DE/DX   Delta X   Delta X   Delta X     New X
                                 (Linear)    (Quad)   (Total)
    R1        1.93517   0.01223   0.00000   0.02793   0.02793   1.96310
    R2        1.93517   0.01223   0.00000   0.02793   0.02793   1.96310
    A1        1.80047  -0.00203   0.00000  -0.01264  -0.01264   1.78783
         Item               Value     Threshold  Converged?
 Maximum Force            0.012226     0.000450     NO 
 RMS     Force            0.010051     0.000300     NO 
 Maximum Displacement     0.018038     0.001800     NO 
 RMS     Displacement     0.017205     0.001200     NO 
 Predicted change in Energy=-3.549716D-04
 Lowest energy point so far.  Saving SCF results.
 Largest change from initial coordinates is atom    1       0.009 Angstoms.
 GradGradGradGradGradGradGradGradGradGradGradGradGradGradGradGradGradGrad

 Leave Link  103 at Wed Oct  7 13:06:51 2020, MaxMem=  2684354560 cpu:               2.4 elap:               0.7
 (Enter /udrive/faculty/rpeverati/g16/g16/l202.exe)
                          Input orientation:                          
 ---------------------------------------------------------------------
 Center     Atomic      Atomic             Coordinates (Angstroms)
 Number     Number       Type             X           Y           Z
 ---------------------------------------------------------------------
      1          7           0        0.000000    0.000000    0.150960
      2          1           0        0.000000    0.809796   -0.499727
      3          1           0       -0.000000   -0.809796   -0.499727
 ---------------------------------------------------------------------
                    Distance matrix (angstroms):
                    1          2          3
     1  N    0.000000
     2  H    1.038828   0.000000
     3  H    1.038828   1.619592   0.000000
 Stoichiometry    H2N(2)
 Framework group  C2V[C2(N),SGV(H2)]
 Deg. of freedom     2
 Full point group                 C2V     NOp   4
 RotChk:  IX=0 Diff= 2.22D-16
 Largest Abelian subgroup         C2V     NOp   4
 Largest concise Abelian subgroup C2      NOp   2
                         Standard orientation:                         
 ---------------------------------------------------------------------
 Center     Atomic      Atomic             Coordinates (Angstroms)
 Number     Number       Type             X           Y           Z
 ---------------------------------------------------------------------
      1          7           0        0.000000   -0.000000    0.144597
      2          1           0       -0.000000    0.809796   -0.506090
      3          1           0       -0.000000   -0.809796   -0.506090
 ---------------------------------------------------------------------
 Rotational constants (GHZ):         677.4260202         382.3411498         244.4007050
 Leave Link  202 at Wed Oct  7 13:06:52 2020, MaxMem=  2684354560 cpu:               1.2 elap:               0.6
 (Enter /udrive/faculty/rpeverati/g16/g16/l301.exe)
 Standard basis: 6-31G(d) (5D, 7F)
 Ernie: Thresh=  0.10000D-02 Tol=  0.10000D-05 Strict=F.
 There are    10 symmetry adapted cartesian basis functions of A1  symmetry.
 There are     1 symmetry adapted cartesian basis functions of A2  symmetry.
 There are     3 symmetry adapted cartesian basis functions of B1  symmetry.
 There are     5 symmetry adapted cartesian basis functions of B2  symmetry.
 There are     9 symmetry adapted basis functions of A1  symmetry.
 There are     1 symmetry adapted basis functions of A2  symmetry.
 There are     3 symmetry adapted basis functions of B1  symmetry.
 There are     5 symmetry adapted basis functions of B2  symmetry.
    18 basis functions,    36 primitive gaussians,    19 cartesian basis functions
     5 alpha electrons        4 beta electrons
       nuclear repulsion energy         7.4583123605 Hartrees.
 IExCor= 2523 DFT=T Ex=TPSS Corr=TPSS ExCW=0 ScaHFX=  0.000000
 ScaDFX=  1.000000  1.000000  1.000000  1.000000 ScalE2=  1.000000  1.000000
 IRadAn=      5 IRanWt=     -1 IRanGd=            0 ICorTp=0 IEmpDi=141
 NAtoms=    3 NActive=    3 NUniq=    2 SFac= 2.25D+00 NAtFMM=   60 NAOKFM=F Big=F
 Integral buffers will be    131072 words long.
 Raffenetti 2 integral format.
 Two-electron integral symmetry is turned on.
 R6Disp:  Grimme-D3(BJ) Dispersion energy=       -0.0005433439 Hartrees.
 Nuclear repulsion after empirical dispersion term =        7.4577690166 Hartrees.
 Leave Link  301 at Wed Oct  7 13:06:53 2020, MaxMem=  2684354560 cpu:               1.8 elap:               0.6
 (Enter /udrive/faculty/rpeverati/g16/g16/l302.exe)
 NPDir=0 NMtPBC=     1 NCelOv=     1 NCel=       1 NClECP=     1 NCelD=      1
         NCelK=      1 NCelE2=     1 NClLst=     1 CellRange=     0.0.
 One-electron integrals computed using PRISM.
 One-electron integral symmetry used in STVInt
 NBasis=    18 RedAO= T EigKep=  4.87D-02  NBF=     9     1     3     5
 NBsUse=    18 1.00D-06 EigRej= -1.00D+00 NBFU=     9     1     3     5
 Precomputing XC quadrature grid using
 IXCGrd= 4 IRadAn=           5 IRanWt=          -1 IRanGd=           0 AccXCQ= 0.00D+00.
 Generated NRdTot=       0 NPtTot=           0 NUsed=           0 NTot=          32
 NSgBfM=    19    19    19    19    19 MxSgAt=     3 MxSgA2=     3.
 Leave Link  302 at Wed Oct  7 13:06:54 2020, MaxMem=  2684354560 cpu:               2.5 elap:               0.7
 (Enter /udrive/faculty/rpeverati/g16/g16/l303.exe)
 DipDrv:  MaxL=1.
 Leave Link  303 at Wed Oct  7 13:06:55 2020, MaxMem=  2684354560 cpu:               3.3 elap:               0.9
 (Enter /udrive/faculty/rpeverati/g16/g16/l401.exe)
 Initial guess from the checkpoint file:  "MN_70_NH2_BH76_TPSSDBJ_631Gs.chk"
 SCF N**3 symmetry information disabled.
 B after Tr=    -0.000000   -0.000000   -0.000000
         Rot=    1.000000    0.000000    0.000000    0.000000 Ang=   0.00 deg.
 Guess basis will be translated and rotated to current coordinates.
 JPrj=2 DoOrth=T DoCkMO=T.
 Initial guess orbital symmetries:
 Alpha Orbitals:
       Occupied  (A1) (A1) (B2) (A1) (B1)
       Virtual   (A1) (B2) (B1) (B2) (A1) (A1) (B2) (A1) (A2) (A1)
                 (B1) (A1) (B2)
 Beta  Orbitals:
       Occupied  (A1) (A1) (B2) (A1)
       Virtual   (B1) (A1) (B2) (B2) (A1) (B1) (A1) (B2) (A1) (A1)
                 (A2) (B1) (A1) (B2)
 The electronic state of the initial guess is 2-B1.
 Initial guess <Sx>= 0.0000 <Sy>= 0.0000 <Sz>= 0.5000 <S**2>= 0.7531 S= 0.5015
 Leave Link  401 at Wed Oct  7 13:06:56 2020, MaxMem=  2684354560 cpu:               2.2 elap:               0.8
 (Enter /udrive/faculty/rpeverati/g16/g16/l502.exe)
 Keep J ints in memory in symmetry-blocked form, NReq=10365008.
 FoFCou: FMM=F IPFlag=           0 FMFlag=           0 FMFlg1=           0
         NFxFlg=           0 DoJE=F BraDBF=F KetDBF=F FulRan=T
         wScrn=  0.000000 ICntrl=       600 IOpCl=  0 I1Cent=           0 NGrid=           0
         NMat0=    1 NMatS0=    171 NMatT0=    0 NMatD0=    1 NMtDS0=    0 NMtDT0=    0
 Petite list used in FoFCou.
 UHF open shell SCF:
 Using DIIS extrapolation, IDIIS=  1040.
 NGot=  2684354560 LenX=  2684347700 LenY=  2684346818
 Requested convergence on RMS density matrix=1.00D-08 within 120 cycles.
 Requested convergence on MAX density matrix=1.00D-06.
 Requested convergence on             energy=1.00D-06.
 No special actions if energy rises.

 Cycle   1  Pass 1  IDiag  1:
 E= -55.8774795919097    
 DIIS: error= 2.32D-03 at cycle   1 NSaved=   1.
 NSaved= 1 IEnMin= 1 EnMin= -55.8774795919097     IErMin= 1 ErrMin= 2.32D-03
 ErrMax= 2.32D-03  0.00D+00 EMaxC= 1.00D-01 BMatC= 2.95D-04 BMatP= 2.95D-04
 IDIUse=3 WtCom= 9.77D-01 WtEn= 2.32D-02
 Coeff-Com:  0.100D+01
 Coeff-En:   0.100D+01
 Coeff:      0.100D+01
 Gap=     0.326 Goal=   None    Shift=    0.000
 Gap=     0.125 Goal=   None    Shift=    0.000
 GapD=    0.125 DampG=1.000 DampE=1.000 DampFc=1.0000 IDamp=-1.
 RMSDP=1.11D-03 MaxDP=8.25D-03              OVMax= 8.51D-03

 Cycle   2  Pass 1  IDiag  1:
 E= -55.8775432630058     Delta-E=       -0.000063671096 Rises=F Damp=F
 DIIS: error= 1.98D-03 at cycle   2 NSaved=   2.
 NSaved= 2 IEnMin= 2 EnMin= -55.8775432630058     IErMin= 2 ErrMin= 1.98D-03
 ErrMax= 1.98D-03  0.00D+00 EMaxC= 1.00D-01 BMatC= 2.15D-04 BMatP= 2.95D-04
 IDIUse=3 WtCom= 9.80D-01 WtEn= 1.98D-02
 Coeff-Com:  0.449D+00 0.551D+00
 Coeff-En:   0.157D+00 0.843D+00
 Coeff:      0.443D+00 0.557D+00
 Gap=     0.328 Goal=   None    Shift=    0.000
 Gap=     0.125 Goal=   None    Shift=    0.000
 RMSDP=4.97D-04 MaxDP=3.45D-03 DE=-6.37D-05 OVMax= 3.21D-03

 Cycle   3  Pass 1  IDiag  1:
 E= -55.8775899622184     Delta-E=       -0.000046699213 Rises=F Damp=F
 DIIS: error= 6.02D-04 at cycle   3 NSaved=   3.
 NSaved= 3 IEnMin= 3 EnMin= -55.8775899622184     IErMin= 3 ErrMin= 6.02D-04
 ErrMax= 6.02D-04  0.00D+00 EMaxC= 1.00D-01 BMatC= 2.20D-05 BMatP= 2.15D-04
 IDIUse=3 WtCom= 9.94D-01 WtEn= 6.02D-03
 Coeff-Com:  0.295D-01 0.244D+00 0.726D+00
 Coeff-En:   0.000D+00 0.428D-01 0.957D+00
 Coeff:      0.294D-01 0.243D+00 0.728D+00
 Gap=     0.327 Goal=   None    Shift=    0.000
 Gap=     0.125 Goal=   None    Shift=    0.000
 RMSDP=1.26D-04 MaxDP=1.00D-03 DE=-4.67D-05 OVMax= 9.16D-04

 Cycle   4  Pass 1  IDiag  1:
 E= -55.8775951838213     Delta-E=       -0.000005221603 Rises=F Damp=F
 DIIS: error= 5.45D-05 at cycle   4 NSaved=   4.
 NSaved= 4 IEnMin= 4 EnMin= -55.8775951838213     IErMin= 4 ErrMin= 5.45D-05
 ErrMax= 5.45D-05  0.00D+00 EMaxC= 1.00D-01 BMatC= 1.47D-07 BMatP= 2.20D-05
 IDIUse=1 WtCom= 1.00D+00 WtEn= 0.00D+00
 Coeff-Com: -0.941D-03 0.445D-01 0.176D+00 0.781D+00
 Coeff:     -0.941D-03 0.445D-01 0.176D+00 0.781D+00
 Gap=     0.327 Goal=   None    Shift=    0.000
 Gap=     0.125 Goal=   None    Shift=    0.000
 RMSDP=1.08D-05 MaxDP=9.75D-05 DE=-5.22D-06 OVMax= 8.40D-05

 Cycle   5  Pass 1  IDiag  1:
 E= -55.8775952187429     Delta-E=       -0.000000034922 Rises=F Damp=F
 DIIS: error= 3.81D-06 at cycle   5 NSaved=   5.
 NSaved= 5 IEnMin= 5 EnMin= -55.8775952187429     IErMin= 5 ErrMin= 3.81D-06
 ErrMax= 3.81D-06  0.00D+00 EMaxC= 1.00D-01 BMatC= 6.57D-10 BMatP= 1.47D-07
 IDIUse=1 WtCom= 1.00D+00 WtEn= 0.00D+00
 Coeff-Com: -0.161D-03-0.874D-03-0.495D-02 0.271D-01 0.979D+00
 Coeff:     -0.161D-03-0.874D-03-0.495D-02 0.271D-01 0.979D+00
 Gap=     0.327 Goal=   None    Shift=    0.000
 Gap=     0.125 Goal=   None    Shift=    0.000
 RMSDP=9.15D-07 MaxDP=9.38D-06 DE=-3.49D-08 OVMax= 9.85D-06

 Cycle   6  Pass 1  IDiag  1:
 E= -55.8775952189683     Delta-E=       -0.000000000225 Rises=F Damp=F
 DIIS: error= 5.51D-07 at cycle   6 NSaved=   6.
 NSaved= 6 IEnMin= 6 EnMin= -55.8775952189683     IErMin= 6 ErrMin= 5.51D-07
 ErrMax= 5.51D-07  0.00D+00 EMaxC= 1.00D-01 BMatC= 1.87D-11 BMatP= 6.57D-10
 IDIUse=1 WtCom= 1.00D+00 WtEn= 0.00D+00
 Coeff-Com:  0.623D-04-0.440D-03-0.111D-02-0.230D-01-0.348D+00 0.137D+01
 Coeff:      0.623D-04-0.440D-03-0.111D-02-0.230D-01-0.348D+00 0.137D+01
 Gap=     0.327 Goal=   None    Shift=    0.000
 Gap=     0.125 Goal=   None    Shift=    0.000
 RMSDP=2.92D-07 MaxDP=1.91D-06 DE=-2.25D-10 OVMax= 2.49D-06

 Cycle   7  Pass 1  IDiag  1:
 E= -55.8775952189828     Delta-E=       -0.000000000015 Rises=F Damp=F
 DIIS: error= 8.20D-08 at cycle   7 NSaved=   7.
 NSaved= 7 IEnMin= 7 EnMin= -55.8775952189828     IErMin= 7 ErrMin= 8.20D-08
 ErrMax= 8.20D-08  0.00D+00 EMaxC= 1.00D-01 BMatC= 4.35D-13 BMatP= 1.87D-11
 IDIUse=1 WtCom= 1.00D+00 WtEn= 0.00D+00
 Coeff-Com: -0.787D-05 0.149D-03 0.454D-03 0.493D-02 0.504D-01-0.330D+00
 Coeff-Com:  0.127D+01
 Coeff:     -0.787D-05 0.149D-03 0.454D-03 0.493D-02 0.504D-01-0.330D+00
 Coeff:      0.127D+01
 Gap=     0.327 Goal=   None    Shift=    0.000
 Gap=     0.125 Goal=   None    Shift=    0.000
 RMSDP=5.18D-08 MaxDP=2.70D-07 DE=-1.45D-11 OVMax= 4.27D-07

 Cycle   8  Pass 1  IDiag  1:
 E= -55.8775952189831     Delta-E=       -0.000000000000 Rises=F Damp=F
 DIIS: error= 6.38D-09 at cycle   8 NSaved=   8.
 NSaved= 8 IEnMin= 8 EnMin= -55.8775952189831     IErMin= 8 ErrMin= 6.38D-09
 ErrMax= 6.38D-09  0.00D+00 EMaxC= 1.00D-01 BMatC= 2.24D-15 BMatP= 4.35D-13
 IDIUse=1 WtCom= 1.00D+00 WtEn= 0.00D+00
 Coeff-Com: -0.974D-06 0.354D-05 0.147D-04 0.248D-03 0.382D-02-0.159D-01
 Coeff-Com:  0.754D-02 0.100D+01
 Coeff:     -0.974D-06 0.354D-05 0.147D-04 0.248D-03 0.382D-02-0.159D-01
 Coeff:      0.754D-02 0.100D+01
 Gap=     0.327 Goal=   None    Shift=    0.000
 Gap=     0.125 Goal=   None    Shift=    0.000
 RMSDP=2.58D-09 MaxDP=1.38D-08 DE=-3.06D-13 OVMax= 2.61D-08

 SCF Done:  E(UTPSS-TPSS) =  -55.8775952190     A.U. after    8 cycles
            NFock=  8  Conv=0.26D-08     -V/T= 2.0057
 <Sx>= 0.0000 <Sy>= 0.0000 <Sz>= 0.5000 <S**2>= 0.7531 S= 0.5016
 <L.S>= 0.000000000000E+00
 KE= 5.555843195849D+01 PE=-1.455983871434D+02 EE= 2.670459094935D+01
 Annihilation of the first spin contaminant:
 S**2 before annihilation     0.7531,   after     0.7500
 Leave Link  502 at Wed Oct  7 13:06:58 2020, MaxMem=  2684354560 cpu:               8.0 elap:               1.2
 (Enter /udrive/faculty/rpeverati/g16/g16/l508.exe)
 QCSCF skips out because SCF is already converged.
 Leave Link  508 at Wed Oct  7 13:06:59 2020, MaxMem=  2684354560 cpu:               0.3 elap:               0.4
 (Enter /udrive/faculty/rpeverati/g16/g16/l701.exe)
 ... and contract with generalized density number  0.
 Compute integral first derivatives.
 R6Disp: Adding Grimme-D3(BJ) dispersion energy 1st derivatives to the gradient.
 Leave Link  701 at Wed Oct  7 13:07:00 2020, MaxMem=  2684354560 cpu:               2.6 elap:               0.7
 (Enter /udrive/faculty/rpeverati/g16/g16/l702.exe)
 L702 exits ... SP integral derivatives will be done elsewhere.
 Leave Link  702 at Wed Oct  7 13:07:00 2020, MaxMem=  2684354560 cpu:               1.1 elap:               0.4
 (Enter /udrive/faculty/rpeverati/g16/g16/l703.exe)
 Integral derivatives from FoFJK, PRISM(SPDF).
 Compute integral first derivatives, UseDBF=F ICtDFT=           0.
 Calling FoFJK, ICntrl=      2527 FMM=F ISym2X=1 I1Cent= 0 IOpClX= 0 NMat=1 NMatS=1 NMatT=0.
 FoFJK:  IHMeth= 1 ICntrl=    2527 DoSepK=F KAlg= 0 I1Cent=           0 FoldK=F
 IRaf=         0 NMat=       1 IRICut=       1 DoRegI=T DoRafI=F ISym2E= 1 IDoP0=0 IntGTp=1.
 FoFCou: FMM=F IPFlag=           0 FMFlag=      100000 FMFlg1=         800
         NFxFlg=           0 DoJE=F BraDBF=F KetDBF=F FulRan=T
         wScrn=  0.000000 ICntrl=      2527 IOpCl=  0 I1Cent=           0 NGrid=           0
         NMat0=    1 NMatS0=      1 NMatT0=    0 NMatD0=    1 NMtDS0=    0 NMtDT0=    0
 Petite list used in FoFCou.
 Leave Link  703 at Wed Oct  7 13:07:01 2020, MaxMem=  2684354560 cpu:               4.1 elap:               0.9
 (Enter /udrive/faculty/rpeverati/g16/g16/l716.exe)
 Dipole        =-4.99844348D-17 0.00000000D+00-7.77205312D-01
 ***** Axes restored to original set *****
 -------------------------------------------------------------------
 Center     Atomic                   Forces (Hartrees/Bohr)
 Number     Number              X              Y              Z
 -------------------------------------------------------------------
      1        7          -0.000000000   -0.000000000    0.002973542
      2        1           0.000000000    0.000582371   -0.001486771
      3        1           0.000000000   -0.000582371   -0.001486771
 -------------------------------------------------------------------
 Cartesian Forces:  Max     0.002973542 RMS     0.001244599
 Leave Link  716 at Wed Oct  7 13:07:02 2020, MaxMem=  2684354560 cpu:               1.5 elap:               0.5
 (Enter /udrive/faculty/rpeverati/g16/g16/l103.exe)

 GradGradGradGradGradGradGradGradGradGradGradGradGradGradGradGradGradGrad
 Berny optimization.
 Optmz: redundant internal coordinate code flag= 1
 Using GEDIIS/GDIIS optimizer.
 Red2BG:  D1=  6.96D-01 OD1=  2.73D-02 B2RMS=  0.00D+00 IAprox=0
 FormGI is forming the generalized inverse of G from B-inverse, IUseBI=4.
 Internal  Forces:  Max     0.001559098 RMS     0.001445517
 Search for a local minimum.
 Step number   2 out of a maximum of  100
 All quantities printed in internal units (Hartrees-Bohrs-Radians)
 RMS Force = .14455D-02 SwitMx=.10000D-02 MixMth= 1
 Mixed Optimization -- RFO/linear search
 Update second derivatives using D2CorX and points    1    2
 DE= -3.98D-04 DEPred=-3.55D-04 R= 1.12D+00
 TightC=F SS=  1.41D+00  RLast= 4.15D-02 DXNew= 5.0454D-01 1.2443D-01
 Trust test= 1.12D+00 RLast= 4.15D-02 DXMaxT set to 3.00D-01
 The second derivative matrix:
                          R1        R2        A1
           R1           0.41855
           R2          -0.01844   0.41855
           A1           0.02652   0.02652   0.15458
 ITU=  1  0
 Use linear search instead of GDIIS.
 Eigenvectors of the second derivative matrix:
                           1         2         3
     Eigenvalues --     0.14898   0.40571   0.43699
   1         R1        -0.10445  -0.69935   0.70711
   2         R2        -0.10445  -0.69935  -0.70711
   3         A1         0.98903  -0.14771  -0.00000
 Iter=   1 RLamda= 0.00000000D+00 Sum=-1.50259960D-05.
 Iter=   2 RLamda=-1.50259960D-05 Sum=-1.50245592D-05.
 RFO step:  Lambda=-1.50259960D-05 EMin= 1.48979825D-01
 Quartic linear search produced a step of  0.16826.
 Iteration  1 RMS(Cart)=  0.00642486 RMS(Int)=  0.00003240
 Iteration  2 RMS(Cart)=  0.00003579 RMS(Int)=  0.00000000
 Iteration  3 RMS(Cart)=  0.00000000 RMS(Int)=  0.00000000
 ITry= 1 IFail=0 DXMaxC= 7.94D-03 DCOld= 1.00D+10 DXMaxT= 3.00D-01 DXLimC= 3.00D+00 Rises=F
 ClnCor:  largest displacement from symmetrization is 1.11D-16 for atom     3.
 Variable       Old X    -DE/DX   Delta X   Delta X   Delta X     New X
                                 (Linear)    (Quad)   (Total)
    R1        1.96310   0.00139   0.00470  -0.00021   0.00449   1.96759
    R2        1.96310   0.00139   0.00470  -0.00021   0.00449   1.96759
    A1        1.78783  -0.00156  -0.00213  -0.00977  -0.01190   1.77592
         Item               Value     Threshold  Converged?
 Maximum Force            0.001559     0.000450     NO 
 RMS     Force            0.001446     0.000300     NO 
 Maximum Displacement     0.007943     0.001800     NO 
 RMS     Displacement     0.006442     0.001200     NO 
 Predicted change in Energy=-1.481600D-05
 Lowest energy point so far.  Saving SCF results.
 Largest change from initial coordinates is atom    2       0.014 Angstoms.
 GradGradGradGradGradGradGradGradGradGradGradGradGradGradGradGradGradGrad

 Leave Link  103 at Wed Oct  7 13:07:03 2020, MaxMem=  2684354560 cpu:               1.7 elap:               0.5
 (Enter /udrive/faculty/rpeverati/g16/g16/l202.exe)
                          Input orientation:                          
 ---------------------------------------------------------------------
 Center     Atomic      Atomic             Coordinates (Angstroms)
 Number     Number       Type             X           Y           Z
 ---------------------------------------------------------------------
      1          7           0       -0.000000    0.000000    0.155164
      2          1           0        0.000000    0.807752   -0.501829
      3          1           0       -0.000000   -0.807752   -0.501829
 ---------------------------------------------------------------------
                    Distance matrix (angstroms):
                    1          2          3
     1  N    0.000000
     2  H    1.041202   0.000000
     3  H    1.041202   1.615503   0.000000
 Stoichiometry    H2N(2)
 Framework group  C2V[C2(N),SGV(H2)]
 Deg. of freedom     2
 Full point group                 C2V     NOp   4
 RotChk:  IX=0 Diff= 2.23D-16
 Largest Abelian subgroup         C2V     NOp   4
 Largest concise Abelian subgroup C2      NOp   2
                         Standard orientation:                         
 ---------------------------------------------------------------------
 Center     Atomic      Atomic             Coordinates (Angstroms)
 Number     Number       Type             X           Y           Z
 ---------------------------------------------------------------------
      1          7           0        0.000000   -0.000000    0.145998
      2          1           0        0.000000    0.807752   -0.510994
      3          1           0       -0.000000   -0.807752   -0.510994
 ---------------------------------------------------------------------
 Rotational constants (GHZ):         664.4857230         384.2788061         243.4748442
 Leave Link  202 at Wed Oct  7 13:07:04 2020, MaxMem=  2684354560 cpu:               1.2 elap:               0.4
 (Enter /udrive/faculty/rpeverati/g16/g16/l301.exe)
 Standard basis: 6-31G(d) (5D, 7F)
 Ernie: Thresh=  0.10000D-02 Tol=  0.10000D-05 Strict=F.
 There are    10 symmetry adapted cartesian basis functions of A1  symmetry.
 There are     1 symmetry adapted cartesian basis functions of A2  symmetry.
 There are     3 symmetry adapted cartesian basis functions of B1  symmetry.
 There are     5 symmetry adapted cartesian basis functions of B2  symmetry.
 There are     9 symmetry adapted basis functions of A1  symmetry.
 There are     1 symmetry adapted basis functions of A2  symmetry.
 There are     3 symmetry adapted basis functions of B1  symmetry.
 There are     5 symmetry adapted basis functions of B2  symmetry.
    18 basis functions,    36 primitive gaussians,    19 cartesian basis functions
     5 alpha electrons        4 beta electrons
       nuclear repulsion energy         7.4428766924 Hartrees.
 IExCor= 2523 DFT=T Ex=TPSS Corr=TPSS ExCW=0 ScaHFX=  0.000000
 ScaDFX=  1.000000  1.000000  1.000000  1.000000 ScalE2=  1.000000  1.000000
 IRadAn=      5 IRanWt=     -1 IRanGd=            0 ICorTp=0 IEmpDi=141
 NAtoms=    3 NActive=    3 NUniq=    2 SFac= 2.25D+00 NAtFMM=   60 NAOKFM=F Big=F
 Integral buffers will be    131072 words long.
 Raffenetti 2 integral format.
 Two-electron integral symmetry is turned on.
 R6Disp:  Grimme-D3(BJ) Dispersion energy=       -0.0005433787 Hartrees.
 Nuclear repulsion after empirical dispersion term =        7.4423333136 Hartrees.
 Leave Link  301 at Wed Oct  7 13:07:05 2020, MaxMem=  2684354560 cpu:               2.4 elap:               0.7
 (Enter /udrive/faculty/rpeverati/g16/g16/l302.exe)
 NPDir=0 NMtPBC=     1 NCelOv=     1 NCel=       1 NClECP=     1 NCelD=      1
         NCelK=      1 NCelE2=     1 NClLst=     1 CellRange=     0.0.
 One-electron integrals computed using PRISM.
 One-electron integral symmetry used in STVInt
 NBasis=    18 RedAO= T EigKep=  4.88D-02  NBF=     9     1     3     5
 NBsUse=    18 1.00D-06 EigRej= -1.00D+00 NBFU=     9     1     3     5
 Precomputing XC quadrature grid using
 IXCGrd= 4 IRadAn=           5 IRanWt=          -1 IRanGd=           0 AccXCQ= 0.00D+00.
 Generated NRdTot=       0 NPtTot=           0 NUsed=           0 NTot=          32
 NSgBfM=    19    19    19    19    19 MxSgAt=     3 MxSgA2=     3.
 Leave Link  302 at Wed Oct  7 13:07:06 2020, MaxMem=  2684354560 cpu:               2.7 elap:               0.7
 (Enter /udrive/faculty/rpeverati/g16/g16/l303.exe)
 DipDrv:  MaxL=1.
 Leave Link  303 at Wed Oct  7 13:07:07 2020, MaxMem=  2684354560 cpu:               1.4 elap:               0.6
 (Enter /udrive/faculty/rpeverati/g16/g16/l401.exe)
 Initial guess from the checkpoint file:  "MN_70_NH2_BH76_TPSSDBJ_631Gs.chk"
 SCF N**3 symmetry information disabled.
 B after Tr=     0.000000   -0.000000    0.000000
         Rot=    1.000000   -0.000000   -0.000000   -0.000000 Ang=   0.00 deg.
 Guess basis will be translated and rotated to current coordinates.
 JPrj=2 DoOrth=T DoCkMO=T.
 Initial guess orbital symmetries:
 Alpha Orbitals:
       Occupied  (A1) (A1) (B2) (A1) (B1)
       Virtual   (A1) (B2) (B1) (B2) (A1) (A1) (B2) (A1) (A2) (A1)
                 (B1) (A1) (B2)
 Beta  Orbitals:
       Occupied  (A1) (A1) (B2) (A1)
       Virtual   (B1) (A1) (B2) (B2) (A1) (B1) (A1) (B2) (A1) (A1)
                 (A2) (B1) (A1) (B2)
 The electronic state of the initial guess is 2-B1.
 Initial guess <Sx>= 0.0000 <Sy>= 0.0000 <Sz>= 0.5000 <S**2>= 0.7531 S= 0.5016
 Leave Link  401 at Wed Oct  7 13:07:08 2020, MaxMem=  2684354560 cpu:               1.9 elap:               0.6
 (Enter /udrive/faculty/rpeverati/g16/g16/l502.exe)
 Keep J ints in memory in symmetry-blocked form, NReq=10365008.
 FoFCou: FMM=F IPFlag=           0 FMFlag=           0 FMFlg1=           0
         NFxFlg=           0 DoJE=F BraDBF=F KetDBF=F FulRan=T
         wScrn=  0.000000 ICntrl=       600 IOpCl=  0 I1Cent=           0 NGrid=           0
         NMat0=    1 NMatS0=    171 NMatT0=    0 NMatD0=    1 NMtDS0=    0 NMtDT0=    0
 Petite list used in FoFCou.
 UHF open shell SCF:
 Using DIIS extrapolation, IDIIS=  1040.
 NGot=  2684354560 LenX=  2684347700 LenY=  2684346818
 Requested convergence on RMS density matrix=1.00D-08 within 120 cycles.
 Requested convergence on MAX density matrix=1.00D-06.
 Requested convergence on             energy=1.00D-06.
 No special actions if energy rises.

 Cycle   1  Pass 1  IDiag  1:
 E= -55.8776003702850    
 DIIS: error= 4.91D-04 at cycle   1 NSaved=   1.
 NSaved= 1 IEnMin= 1 EnMin= -55.8776003702850     IErMin= 1 ErrMin= 4.91D-04
 ErrMax= 4.91D-04  0.00D+00 EMaxC= 1.00D-01 BMatC= 1.99D-05 BMatP= 1.99D-05
 IDIUse=3 WtCom= 9.95D-01 WtEn= 4.91D-03
 Coeff-Com:  0.100D+01
 Coeff-En:   0.100D+01
 Coeff:      0.100D+01
 Gap=     0.326 Goal=   None    Shift=    0.000
 Gap=     0.126 Goal=   None    Shift=    0.000
 RMSDP=3.16D-04 MaxDP=2.43D-03              OVMax= 2.24D-03

 Cycle   2  Pass 1  IDiag  1:
 E= -55.8776073364136     Delta-E=       -0.000006966129 Rises=F Damp=F
 DIIS: error= 3.62D-04 at cycle   2 NSaved=   2.
 NSaved= 2 IEnMin= 2 EnMin= -55.8776073364136     IErMin= 2 ErrMin= 3.62D-04
 ErrMax= 3.62D-04  0.00D+00 EMaxC= 1.00D-01 BMatC= 7.62D-06 BMatP= 1.99D-05
 IDIUse=3 WtCom= 9.96D-01 WtEn= 3.62D-03
 Coeff-Com:  0.326D+00 0.674D+00
 Coeff-En:   0.000D+00 0.100D+01
 Coeff:      0.325D+00 0.675D+00
 Gap=     0.327 Goal=   None    Shift=    0.000
 Gap=     0.126 Goal=   None    Shift=    0.000
 RMSDP=1.18D-04 MaxDP=8.51D-04 DE=-6.97D-06 OVMax= 7.73D-04

 Cycle   3  Pass 1  IDiag  1:
 E= -55.8776085283739     Delta-E=       -0.000001191960 Rises=F Damp=F
 DIIS: error= 2.24D-04 at cycle   3 NSaved=   3.
 NSaved= 3 IEnMin= 3 EnMin= -55.8776085283739     IErMin= 3 ErrMin= 2.24D-04
 ErrMax= 2.24D-04  0.00D+00 EMaxC= 1.00D-01 BMatC= 2.83D-06 BMatP= 7.62D-06
 IDIUse=3 WtCom= 9.98D-01 WtEn= 2.24D-03
 Coeff-Com: -0.479D-02 0.379D+00 0.626D+00
 Coeff-En:   0.000D+00 0.285D+00 0.715D+00
 Coeff:     -0.478D-02 0.378D+00 0.626D+00
 Gap=     0.327 Goal=   None    Shift=    0.000
 Gap=     0.126 Goal=   None    Shift=    0.000
 RMSDP=4.24D-05 MaxDP=3.12D-04 DE=-1.19D-06 OVMax= 2.94D-04

 Cycle   4  Pass 1  IDiag  1:
 E= -55.8776092091564     Delta-E=       -0.000000680782 Rises=F Damp=F
 DIIS: error= 3.50D-06 at cycle   4 NSaved=   4.
 NSaved= 4 IEnMin= 4 EnMin= -55.8776092091564     IErMin= 4 ErrMin= 3.50D-06
 ErrMax= 3.50D-06  0.00D+00 EMaxC= 1.00D-01 BMatC= 5.37D-10 BMatP= 2.83D-06
 IDIUse=1 WtCom= 1.00D+00 WtEn= 0.00D+00
 Coeff-Com: -0.752D-03 0.433D-01 0.644D-01 0.893D+00
 Coeff:     -0.752D-03 0.433D-01 0.644D-01 0.893D+00
 Gap=     0.327 Goal=   None    Shift=    0.000
 Gap=     0.126 Goal=   None    Shift=    0.000
 RMSDP=5.06D-07 MaxDP=2.74D-06 DE=-6.81D-07 OVMax= 4.70D-06

 Cycle   5  Pass 1  IDiag  1:
 E= -55.8776092092769     Delta-E=       -0.000000000120 Rises=F Damp=F
 DIIS: error= 6.61D-07 at cycle   5 NSaved=   5.
 NSaved= 5 IEnMin= 5 EnMin= -55.8776092092769     IErMin= 5 ErrMin= 6.61D-07
 ErrMax= 6.61D-07  0.00D+00 EMaxC= 1.00D-01 BMatC= 2.16D-11 BMatP= 5.37D-10
 IDIUse=1 WtCom= 1.00D+00 WtEn= 0.00D+00
 Coeff-Com: -0.948D-04 0.170D-02 0.477D-03 0.177D+00 0.821D+00
 Coeff:     -0.948D-04 0.170D-02 0.477D-03 0.177D+00 0.821D+00
 Gap=     0.327 Goal=   None    Shift=    0.000
 Gap=     0.126 Goal=   None    Shift=    0.000
 RMSDP=1.32D-07 MaxDP=1.29D-06 DE=-1.20D-10 OVMax= 1.32D-06

 Cycle   6  Pass 1  IDiag  1:
 E= -55.8776092092825     Delta-E=       -0.000000000006 Rises=F Damp=F
 DIIS: error= 8.14D-08 at cycle   6 NSaved=   6.
 NSaved= 6 IEnMin= 6 EnMin= -55.8776092092825     IErMin= 6 ErrMin= 8.14D-08
 ErrMax= 8.14D-08  0.00D+00 EMaxC= 1.00D-01 BMatC= 3.03D-13 BMatP= 2.16D-11
 IDIUse=1 WtCom= 1.00D+00 WtEn= 0.00D+00
 Coeff-Com:  0.271D-04-0.110D-02-0.124D-02-0.478D-01-0.131D+00 0.118D+01
 Coeff:      0.271D-04-0.110D-02-0.124D-02-0.478D-01-0.131D+00 0.118D+01
 Gap=     0.327 Goal=   None    Shift=    0.000
 Gap=     0.126 Goal=   None    Shift=    0.000
 RMSDP=3.07D-08 MaxDP=2.18D-07 DE=-5.58D-12 OVMax= 3.00D-07

 Cycle   7  Pass 1  IDiag  1:
 E= -55.8776092092826     Delta-E=       -0.000000000000 Rises=F Damp=F
 DIIS: error= 1.79D-08 at cycle   7 NSaved=   7.
 NSaved= 7 IEnMin= 7 EnMin= -55.8776092092826     IErMin= 7 ErrMin= 1.79D-08
 ErrMax= 1.79D-08  0.00D+00 EMaxC= 1.00D-01 BMatC= 1.82D-14 BMatP= 3.03D-13
 IDIUse=1 WtCom= 1.00D+00 WtEn= 0.00D+00
 Coeff-Com: -0.911D-06 0.178D-03 0.251D-03 0.356D-02-0.853D-02-0.281D+00
 Coeff-Com:  0.129D+01
 Coeff:     -0.911D-06 0.178D-03 0.251D-03 0.356D-02-0.853D-02-0.281D+00
 Coeff:      0.129D+01
 Gap=     0.327 Goal=   None    Shift=    0.000
 Gap=     0.126 Goal=   None    Shift=    0.000
 RMSDP=9.75D-09 MaxDP=6.07D-08 DE=-1.14D-13 OVMax= 8.97D-08

 SCF Done:  E(UTPSS-TPSS) =  -55.8776092093     A.U. after    7 cycles
            NFock=  7  Conv=0.97D-08     -V/T= 2.0058
 <Sx>= 0.0000 <Sy>= 0.0000 <Sz>= 0.5000 <S**2>= 0.7531 S= 0.5016
 <L.S>= 0.000000000000E+00
 KE= 5.555309506224D+01 PE=-1.455628476987D+02 EE= 2.668981011351D+01
 Annihilation of the first spin contaminant:
 S**2 before annihilation     0.7531,   after     0.7500
 Leave Link  502 at Wed Oct  7 13:07:09 2020, MaxMem=  2684354560 cpu:               8.8 elap:               1.4
 (Enter /udrive/faculty/rpeverati/g16/g16/l508.exe)
 QCSCF skips out because SCF is already converged.
 Leave Link  508 at Wed Oct  7 13:07:10 2020, MaxMem=  2684354560 cpu:               0.4 elap:               0.6
 (Enter /udrive/faculty/rpeverati/g16/g16/l701.exe)
 ... and contract with generalized density number  0.
 Compute integral first derivatives.
 R6Disp: Adding Grimme-D3(BJ) dispersion energy 1st derivatives to the gradient.
 Leave Link  701 at Wed Oct  7 13:07:12 2020, MaxMem=  2684354560 cpu:               4.4 elap:               1.0
 (Enter /udrive/faculty/rpeverati/g16/g16/l702.exe)
 L702 exits ... SP integral derivatives will be done elsewhere.
 Leave Link  702 at Wed Oct  7 13:07:13 2020, MaxMem=  2684354560 cpu:               2.4 elap:               0.8
 (Enter /udrive/faculty/rpeverati/g16/g16/l703.exe)
 Integral derivatives from FoFJK, PRISM(SPDF).
 Compute integral first derivatives, UseDBF=F ICtDFT=           0.
 Calling FoFJK, ICntrl=      2527 FMM=F ISym2X=1 I1Cent= 0 IOpClX= 0 NMat=1 NMatS=1 NMatT=0.
 FoFJK:  IHMeth= 1 ICntrl=    2527 DoSepK=F KAlg= 0 I1Cent=           0 FoldK=F
 IRaf=         0 NMat=       1 IRICut=       1 DoRegI=T DoRafI=F ISym2E= 1 IDoP0=0 IntGTp=1.
 FoFCou: FMM=F IPFlag=           0 FMFlag=      100000 FMFlg1=         800
         NFxFlg=           0 DoJE=F BraDBF=F KetDBF=F FulRan=T
         wScrn=  0.000000 ICntrl=      2527 IOpCl=  0 I1Cent=           0 NGrid=           0
         NMat0=    1 NMatS0=      1 NMatT0=    0 NMatD0=    1 NMtDS0=    0 NMtDT0=    0
 Petite list used in FoFCou.
 Leave Link  703 at Wed Oct  7 13:07:15 2020, MaxMem=  2684354560 cpu:               3.8 elap:               0.9
 (Enter /udrive/faculty/rpeverati/g16/g16/l716.exe)
 Dipole        =-4.96919127D-17 0.00000000D+00-7.78425177D-01
 ***** Axes restored to original set *****
 -------------------------------------------------------------------
 Center     Atomic                   Forces (Hartrees/Bohr)
 Number     Number              X              Y              Z
 -------------------------------------------------------------------
      1        7          -0.000000000   -0.000000000   -0.000163040
      2        1           0.000000000    0.000135813    0.000081520
      3        1           0.000000000   -0.000135813    0.000081520
 -------------------------------------------------------------------
 Cartesian Forces:  Max     0.000163040 RMS     0.000092354
 Leave Link  716 at Wed Oct  7 13:07:16 2020, MaxMem=  2684354560 cpu:               1.0 elap:               0.6
 (Enter /udrive/faculty/rpeverati/g16/g16/l103.exe)

 GradGradGradGradGradGradGradGradGradGradGradGradGradGradGradGradGradGrad
 Berny optimization.
 Optmz: redundant internal coordinate code flag= 1
 Using GEDIIS/GDIIS optimizer.
 Red2BG:  D1=  6.91D-01 OD1=  1.04D-02 B2RMS=  0.00D+00 IAprox=0
 FormGI is forming the generalized inverse of G from B-inverse, IUseBI=4.
 Internal  Forces:  Max     0.000293051 RMS     0.000174828
 Search for a local minimum.
 Step number   3 out of a maximum of  100
 All quantities printed in internal units (Hartrees-Bohrs-Radians)
 RMS Force = .17483D-03 SwitMx=.10000D-02 MixMth= 2
 Mixed Optimization -- En-DIIS/RFO-DIIS
 Update second derivatives using D2CorX and points    1    2    3
 DE= -1.40D-05 DEPred=-1.48D-05 R= 9.44D-01
 TightC=F SS=  1.41D+00  RLast= 1.35D-02 DXNew= 5.0454D-01 4.0460D-02
 Trust test= 9.44D-01 RLast= 1.35D-02 DXMaxT set to 3.00D-01
 The second derivative matrix:
                          R1        R2        A1
           R1           0.39998
           R2          -0.03700   0.39998
           A1           0.02498   0.02498   0.17447
 ITU=  1  1  0
 Use linear search instead of GDIIS.
 Eigenvectors of the second derivative matrix:
                           1         2         3
     Eigenvalues --     0.16807   0.36938   0.43699
   1         R1        -0.12611  -0.69577   0.70711
   2         R2        -0.12611  -0.69577  -0.70711
   3         A1         0.98397  -0.17835  -0.00000
 Iter=   1 RLamda= 0.00000000D+00 Sum=-2.27603477D-07.
 Iter=   2 RLamda=-2.27603477D-07 Sum=-2.27603306D-07.
 RFO step:  Lambda=-2.27603477D-07 EMin= 1.68065455D-01
 Quartic linear search produced a step of -0.08838.
 Iteration  1 RMS(Cart)=  0.00104987 RMS(Int)=  0.00000056
 Iteration  2 RMS(Cart)=  0.00000047 RMS(Int)=  0.00000000
 ITry= 1 IFail=0 DXMaxC= 1.06D-03 DCOld= 1.00D+10 DXMaxT= 3.00D-01 DXLimC= 3.00D+00 Rises=F
 ClnCor:  largest displacement from symmetrization is 2.48D-16 for atom     3.
 Variable       Old X    -DE/DX   Delta X   Delta X   Delta X     New X
                                 (Linear)    (Quad)   (Total)
    R1        1.96759   0.00005  -0.00040   0.00043   0.00003   1.96762
    R2        1.96759   0.00005  -0.00040   0.00043   0.00003   1.96762
    A1        1.77592   0.00029   0.00105   0.00062   0.00167   1.77759
         Item               Value     Threshold  Converged?
 Maximum Force            0.000293     0.000450     YES
 RMS     Force            0.000175     0.000300     YES
 Maximum Displacement     0.001062     0.001800     YES
 RMS     Displacement     0.001050     0.001200     YES
 Predicted change in Energy=-2.465174D-07
 Optimization completed.
    -- Stationary point found.
                           ----------------------------
                           !   Optimized Parameters   !
                           ! (Angstroms and Degrees)  !
 --------------------------                            --------------------------
 ! Name  Definition              Value          Derivative Info.                !
 --------------------------------------------------------------------------------
 ! R1    R(1,2)                  1.0412         -DE/DX =    0.0001              !
 ! R2    R(1,3)                  1.0412         -DE/DX =    0.0001              !
 ! A1    A(2,1,3)              101.753          -DE/DX =    0.0003              !
 --------------------------------------------------------------------------------
 Lowest energy point so far.  Saving SCF results.
 Largest change from initial coordinates is atom    2       0.017 Angstoms.
 GradGradGradGradGradGradGradGradGradGradGradGradGradGradGradGradGradGrad

 Leave Link  103 at Wed Oct  7 13:07:17 2020, MaxMem=  2684354560 cpu:               2.0 elap:               0.7
 (Enter /udrive/faculty/rpeverati/g16/g16/l202.exe)
                          Input orientation:                          
 ---------------------------------------------------------------------
 Center     Atomic      Atomic             Coordinates (Angstroms)
 Number     Number       Type             X           Y           Z
 ---------------------------------------------------------------------
      1          7           0        0.000000   -0.000000    0.155164
      2          1           0        0.000000    0.807752   -0.501829
      3          1           0       -0.000000   -0.807752   -0.501829
 ---------------------------------------------------------------------
                    Distance matrix (angstroms):
                    1          2          3
     1  N    0.000000
     2  H    1.041202   0.000000
     3  H    1.041202   1.615503   0.000000
 Stoichiometry    H2N(2)
 Framework group  C2V[C2(N),SGV(H2)]
 Deg. of freedom     2
 Full point group                 C2V     NOp   4
 RotChk:  IX=0 Diff= 1.02D-15
 Largest Abelian subgroup         C2V     NOp   4
 Largest concise Abelian subgroup C2      NOp   2
                         Standard orientation:                         
 ---------------------------------------------------------------------
 Center     Atomic      Atomic             Coordinates (Angstroms)
 Number     Number       Type             X           Y           Z
 ---------------------------------------------------------------------
      1          7           0       -0.000000    0.000000    0.145998
      2          1           0       -0.000000    0.807752   -0.510994
      3          1           0       -0.000000   -0.807752   -0.510994
 ---------------------------------------------------------------------
 Rotational constants (GHZ):         664.4857230         384.2788061         243.4748442
 Leave Link  202 at Wed Oct  7 13:07:18 2020, MaxMem=  2684354560 cpu:               1.3 elap:               0.5
 (Enter /udrive/faculty/rpeverati/g16/g16/l601.exe)
 Copying SCF densities to generalized density rwf, IOpCl= 1 IROHF=0.

 **********************************************************************

            Population analysis using the SCF density.

 **********************************************************************

 Orbital symmetries:
 Alpha Orbitals:
       Occupied  (A1) (A1) (B2) (A1) (B1)
       Virtual   (A1) (B2) (B1) (B2) (A1) (A1) (B2) (A1) (A2) (A1)
                 (B1) (A1) (B2)
 Beta  Orbitals:
       Occupied  (A1) (A1) (B2) (A1)
       Virtual   (B1) (A1) (B2) (B2) (A1) (B1) (A1) (B2) (A1) (A1)
                 (A2) (B1) (A1) (B2)
 The electronic state is 2-B1.
 Alpha  occ. eigenvalues --  -14.14203  -0.78845  -0.41950  -0.27424  -0.26413
 Alpha virt. eigenvalues --    0.06260   0.12948   0.62652   0.66325   0.69267
 Alpha virt. eigenvalues --    0.80400   0.84956   1.05815   1.61787   1.63977
 Alpha virt. eigenvalues --    1.64389   2.05053   2.34630
  Beta  occ. eigenvalues --  -14.12191  -0.74138  -0.40832  -0.25204
  Beta virt. eigenvalues --   -0.12593   0.07671   0.13883   0.67249   0.71334
  Beta virt. eigenvalues --    0.72241   0.84475   0.87353   1.10761   1.67772
  Beta virt. eigenvalues --    1.70190   1.72430   2.14013   2.38669
          Condensed to atoms (all electrons):
               1          2          3
     1  N    7.081775   0.251621   0.251621
     2  H    0.251621   0.490765  -0.034895
     3  H    0.251621  -0.034895   0.490765
          Atomic-Atomic Spin Densities.
               1          2          3
     1  N    1.092920  -0.010650  -0.010650
     2  H   -0.010650  -0.029347   0.004188
     3  H   -0.010650   0.004188  -0.029347
 Mulliken charges and spin densities:
               1          2
     1  N   -0.585018   1.071619
     2  H    0.292509  -0.035810
     3  H    0.292509  -0.035810
 Sum of Mulliken charges =  -0.00000   1.00000
 Mulliken charges and spin densities with hydrogens summed into heavy atoms:
               1          2
     1  N   -0.000000   1.000000
 Electronic spatial extent (au):  <R**2>=             21.7913
 Charge=             -0.0000 electrons
 Dipole moment (field-independent basis, Debye):
    X=             -0.0000    Y=              0.0000    Z=             -1.9786  Tot=              1.9786
 Quadrupole moment (field-independent basis, Debye-Ang):
   XX=             -6.9430   YY=             -5.5538   ZZ=             -7.3203
   XY=              0.0000   XZ=              0.0000   YZ=             -0.0000
 Traceless Quadrupole moment (field-independent basis, Debye-Ang):
   XX=             -0.3373   YY=              1.0519   ZZ=             -0.7146
   XY=              0.0000   XZ=              0.0000   YZ=             -0.0000
 Octapole moment (field-independent basis, Debye-Ang**2):
  XXX=              0.0000  YYY=              0.0000  ZZZ=             -1.8017  XYY=             -0.0000
  XXY=              0.0000  XXZ=             -0.3882  XZZ=              0.0000  YZZ=              0.0000
  YYZ=             -1.1388  XYZ=             -0.0000
 Hexadecapole moment (field-independent basis, Debye-Ang**3):
 XXXX=             -5.7015 YYYY=             -9.3757 ZZZZ=             -9.6874 XXXY=             -0.0000
 XXXZ=             -0.0000 YYYX=             -0.0000 YYYZ=             -0.0000 ZZZX=             -0.0000
 ZZZY=             -0.0000 XXYY=             -2.7284 XXZZ=             -2.5998 YYZZ=             -2.8577
 XXYZ=             -0.0000 YYXZ=              0.0000 ZZXY=             -0.0000
 N-N= 7.442333313634D+00 E-N=-1.455628476530D+02  KE= 5.555309506224D+01
                          Isotropic Fermi Contact Couplings
        Atom                 a.u.       MegaHertz       Gauss      10(-4) cm-1
     1  N(14)              0.15308      49.46065      17.64879      16.49830
     2  H(1)              -0.01491     -66.62383     -23.77304     -22.22332
     3  H(1)              -0.01491     -66.62383     -23.77304     -22.22332
 --------------------------------------------------------
       Center         ----  Spin Dipole Couplings  ----
                      3XX-RR        3YY-RR        3ZZ-RR
 --------------------------------------------------------
     1   Atom        2.115444     -1.033614     -1.081830
     2   Atom       -0.023721      0.039852     -0.016130
     3   Atom       -0.023721      0.039852     -0.016130
 --------------------------------------------------------
                        XY            XZ            YZ
 --------------------------------------------------------
     1   Atom        0.000000      0.000000      0.000000
     2   Atom       -0.000000      0.000000     -0.105653
     3   Atom       -0.000000     -0.000000      0.105653
 --------------------------------------------------------


 ---------------------------------------------------------------------------------
              Anisotropic Spin Dipole Couplings in Principal Axis System
 ---------------------------------------------------------------------------------

       Atom             a.u.   MegaHertz   Gauss  10(-4) cm-1        Axes

              Baa    -1.0818   -41.724   -14.888   -13.918  0.0000  0.0000  1.0000
     1 N(14)  Bbb    -1.0336   -39.864   -14.225   -13.297  0.0000  1.0000 -0.0000
              Bcc     2.1154    81.588    29.113    27.215  1.0000 -0.0000  0.0000
 
              Baa    -0.0974   -51.988   -18.550   -17.341 -0.0000  0.6099  0.7925
     2 H(1)   Bbb    -0.0237   -12.657    -4.516    -4.222  1.0000  0.0000  0.0000
              Bcc     0.1212    64.644    23.067    21.563 -0.0000  0.7925 -0.6099
 
              Baa    -0.0974   -51.988   -18.550   -17.341  0.0000 -0.6099  0.7925
     3 H(1)   Bbb    -0.0237   -12.657    -4.516    -4.222  1.0000  0.0000  0.0000
              Bcc     0.1212    64.644    23.067    21.563 -0.0000  0.7925  0.6099
 

 ---------------------------------------------------------------------------------

 No NMR shielding tensors so no spin-rotation constants.
 Leave Link  601 at Wed Oct  7 13:07:19 2020, MaxMem=  2684354560 cpu:               4.3 elap:               0.8
 (Enter /udrive/faculty/rpeverati/g16/g16/l9999.exe)

 Test job not archived.
 1\1\GINC-NODE52\FOpt\UTPSSTPSS\6-31G(d)\H2N1(2)\RPEVERATI\07-Oct-2020\
 0\\#P Opt(MaxCyc=100) TPSSTPSS/6-31G* 5D 7F Integral=UltraFineGrid SCF
 =(NoSymm,XQC,MaxCyc=120) EmpiricalDispersion=GD3BJ IOp(1/33=1)\\TS sea
 rch on BH76.\\0,2\N,0.,0.,0.1551639526\H,0.,0.807751576,-0.5018286379\
 H,0.,-0.807751576,-0.5018286379\\Version=ES64L-G16RevA.03\State=2-B1\H
 F=-55.8776092\S2=0.753124\S2-1=0.\S2A=0.750005\RMSD=9.747e-09\RMSF=9.2
 35e-05\Dipole=0.,0.,-0.7784252\Quadrupole=-0.2507924,0.7820485,-0.5312
 561,0.,0.,0.\PG=C02V [C2(N1),SGV(H2)]\\@


 UNDER MOST GREENE GRASSE LY MOST GREATE SNAKES.
 -- PROVERBS AND REASONS OF THE YEAR 1585
           AS REPRINTED IN PAISLEY MAGAZINE 1828.
 Job cpu time:       0 days  0 hours  2 minutes  4.5 seconds.
 Elapsed time:       0 days  0 hours  0 minutes 31.1 seconds.
 File lengths (MBytes):  RWF=      5 Int=      0 D2E=      0 Chk=      1 Scr=      1
 Normal termination of Gaussian 16 at Wed Oct  7 13:07:20 2020.
