 Entering Gaussian System, Link 0=g16
 Input=MN_88_RKT12_BH76_TPSSDBJ_631Gs.in
 Output=MN_88_RKT12_BH76_TPSSDBJ_631Gs.log
 Initial command:
 /udrive/faculty/rpeverati/g16/g16/l1.exe "/udrive/scratch-directories/gaussian09/rpeverati/Gau-22264.inp" -scrdir="/udrive/scratch-directories/gaussian09/rpeverati/"
 Entering Link 1 = /udrive/faculty/rpeverati/g16/g16/l1.exe PID=     22287.
  
 Copyright (c) 1988,1990,1992,1993,1995,1998,2003,2009,2016,
            Gaussian, Inc.  All Rights Reserved.
  
 This is part of the Gaussian(R) 16 program.  It is based on
 the Gaussian(R) 09 system (copyright 2009, Gaussian, Inc.),
 the Gaussian(R) 03 system (copyright 2003, Gaussian, Inc.),
 the Gaussian(R) 98 system (copyright 1998, Gaussian, Inc.),
 the Gaussian(R) 94 system (copyright 1995, Gaussian, Inc.),
 the Gaussian 92(TM) system (copyright 1992, Gaussian, Inc.),
 the Gaussian 90(TM) system (copyright 1990, Gaussian, Inc.),
 the Gaussian 88(TM) system (copyright 1988, Gaussian, Inc.),
 the Gaussian 86(TM) system (copyright 1986, Carnegie Mellon
 University), and the Gaussian 82(TM) system (copyright 1983,
 Carnegie Mellon University). Gaussian is a federally registered
 trademark of Gaussian, Inc.
  
 This software contains proprietary and confidential information,
 including trade secrets, belonging to Gaussian, Inc.
  
 This software is provided under written license and may be
 used, copied, transmitted, or stored only in accord with that
 written license.
  
 The following legend is applicable only to US Government
 contracts under FAR:
  
                    RESTRICTED RIGHTS LEGEND
  
 Use, reproduction and disclosure by the US Government is
 subject to restrictions as set forth in subparagraphs (a)
 and (c) of the Commercial Computer Software - Restricted
 Rights clause in FAR 52.227-19.
  
 Gaussian, Inc.
 340 Quinnipiac St., Bldg. 40, Wallingford CT 06492
  
  
 ---------------------------------------------------------------
 Warning -- This program may not be used in any manner that
 competes with the business of Gaussian, Inc. or will provide
 assistance to any competitor of Gaussian, Inc.  The licensee
 of this program is prohibited from giving any competitor of
 Gaussian, Inc. access to this program.  By using this program,
 the user acknowledges that Gaussian, Inc. is engaged in the
 business of creating and licensing software in the field of
 computational chemistry and represents and warrants to the
 licensee that it is not a competitor of Gaussian, Inc. and that
 it will not use this program in any manner prohibited above.
 ---------------------------------------------------------------
  

 Cite this work as:
 Gaussian 16, Revision A.03,
 M. J. Frisch, G. W. Trucks, H. B. Schlegel, G. E. Scuseria, 
 M. A. Robb, J. R. Cheeseman, G. Scalmani, V. Barone, 
 G. A. Petersson, H. Nakatsuji, X. Li, M. Caricato, A. V. Marenich, 
 J. Bloino, B. G. Janesko, R. Gomperts, B. Mennucci, H. P. Hratchian, 
 J. V. Ortiz, A. F. Izmaylov, J. L. Sonnenberg, D. Williams-Young, 
 F. Ding, F. Lipparini, F. Egidi, J. Goings, B. Peng, A. Petrone, 
 T. Henderson, D. Ranasinghe, V. G. Zakrzewski, J. Gao, N. Rega, 
 G. Zheng, W. Liang, M. Hada, M. Ehara, K. Toyota, R. Fukuda, 
 J. Hasegawa, M. Ishida, T. Nakajima, Y. Honda, O. Kitao, H. Nakai, 
 T. Vreven, K. Throssell, J. A. Montgomery, Jr., J. E. Peralta, 
 F. Ogliaro, M. J. Bearpark, J. J. Heyd, E. N. Brothers, K. N. Kudin, 
 V. N. Staroverov, T. A. Keith, R. Kobayashi, J. Normand, 
 K. Raghavachari, A. P. Rendell, J. C. Burant, S. S. Iyengar, 
 J. Tomasi, M. Cossi, J. M. Millam, M. Klene, C. Adamo, R. Cammi, 
 J. W. Ochterski, R. L. Martin, K. Morokuma, O. Farkas, 
 J. B. Foresman, and D. J. Fox, Gaussian, Inc., Wallingford CT, 2016.
 
 ******************************************
 Gaussian 16:  ES64L-G16RevA.03 25-Dec-2016
                 7-Oct-2020 
 ******************************************
 %NoSave
 %nproc=12
 Will use up to   12 processors via shared memory.
 %mem=20GB
 %chk=MN_88_RKT12_BH76_TPSSDBJ_631Gs
 ----------------------------------------------------------------------
 #P Opt(TS,MaxCyc=50,NoEigenTest,MaxStep=10,AddRedundant) TPSSTPSS/6-31
 G* 5D 7F Integral=UltraFineGrid SCF=(NoSymm,XQC,MaxCyc=120) EmpiricalD
 ispersion=GD3BJ IOp(1/33=1)
 ----------------------------------------------------------------------
 1/5=1,6=50,8=10,11=1,18=120,26=4,33=1,38=1/1,3;
 2/9=110,12=2,17=6,18=5,40=1/2;
 3/5=1,6=6,7=1,8=11,11=2,25=1,30=1,71=1,74=2523,75=-5,124=41/1,2,3;
 4/9=2/1;
 5/5=2,7=120,8=3,13=1,38=5/2,8;
 6/7=2,8=2,9=2,10=2,28=1/1;
 7//1,2,3,16;
 1/5=1,6=50,8=10,11=1,18=20,26=4,33=1/3(2);
 2/9=110/2;
 99//99;
 2/9=110/2;
 3/5=1,6=6,7=1,8=11,11=2,25=1,30=1,71=1,74=2523,75=-5,124=41/1,2,3;
 4/5=5,9=2,16=3,69=1/1;
 5/5=2,7=120,8=3,13=1,38=5/2,8;
 7//1,2,3,16;
 1/5=1,6=50,8=10,11=1,18=20,26=4,33=1/3(-5);
 2/9=110/2;
 6/7=2,8=2,9=2,10=2,19=2,28=1/1;
 99/9=1/99;
 Leave Link    1 at Wed Oct  7 13:07:39 2020, MaxMem=  2684354560 cpu:               9.2 elap:               1.0
 (Enter /udrive/faculty/rpeverati/g16/g16/l101.exe)
 ONIOM data not found on unit 2.
 ------------------
 TS search on BH76.
 ------------------
 TstMul:  ICh=     0
 TstMul:  Mul=     2
 TstMul:  ICh=     0
 TstMul:  Mul=     2
 Symbolic Z-matrix:
 Charge =  0 Multiplicity = 2
 P                     0.21743   0.00009  -0.11125 
 H                     0.24661   1.03467   0.85217 
 H                     0.26266  -1.02506   0.86162 
 H                    -1.26642  -0.01095  -0.15063 
 H                    -2.50429   0.00003   0.10558 
 
 RdStrC is calling ZToCFu for IStruc=1 NZ=     5.
 PrtBox:  NBox=     1 Levels=  1 BoxLen=    8.00 SMaxX=        5.23
          Shift=            4.732420            1.937080            0.284642
 Box      1 Number                   0 centers from      1 to      5:
 After GenITR:
 ITRead=  0  0  0  0  0
 MicOpt= -1 -1 -1 -1 -1
 Add virtual bond connecting atoms H5         and H4         Dist= 2.39D+00.
 The following ModRedundant input section has been read:
 
 ITRead=  0  0  0  0  0
 MicOpt= -1 -1 -1 -1 -1
 NAtoms=      5 NQM=        5 NQMF=       0 NMMI=      0 NMMIF=      0
                NMic=       0 NMicF=      0.
                    Isotopes and Nuclear Properties:
 (Nuclear quadrupole moments (NQMom) in fm**2, nuclear magnetic moments (NMagM)
  in nuclear magnetons)

  Atom         1           2           3           4           5
 IAtWgt=          31           1           1           1           1
 AtmWgt=  30.9737634   1.0078250   1.0078250   1.0078250   1.0078250
 NucSpn=           1           1           1           1           1
 AtZEff=   0.0000000   0.0000000   0.0000000   0.0000000   0.0000000
 NQMom=    0.0000000   0.0000000   0.0000000   0.0000000   0.0000000
 NMagM=    1.1316000   2.7928460   2.7928460   2.7928460   2.7928460
 AtZNuc=  15.0000000   1.0000000   1.0000000   1.0000000   1.0000000
 No MM parameters found.
 Leave Link  101 at Wed Oct  7 13:07:41 2020, MaxMem=  2684354560 cpu:              13.0 elap:               1.5
 (Enter /udrive/faculty/rpeverati/g16/g16/l103.exe)

 GradGradGradGradGradGradGradGradGradGradGradGradGradGradGradGradGradGrad
 Berny optimization.
 Optmz: redundant internal coordinate code flag= 1
 Initialization pass.
                           ----------------------------
                           !    Initial Parameters    !
                           ! (Angstroms and Degrees)  !
 --------------------------                            --------------------------
 ! Name  Definition              Value          Derivative Info.                !
 --------------------------------------------------------------------------------
 ! R1    R(1,2)                  1.414          estimate D2E/DX2                !
 ! R2    R(1,3)                  1.414          estimate D2E/DX2                !
 ! R3    R(1,4)                  1.4844         estimate D2E/DX2                !
 ! R4    R(4,5)                  1.2642         estimate D2E/DX2                !
 ! A1    A(2,1,3)               93.4982         estimate D2E/DX2                !
 ! A2    A(2,1,4)               92.5302         estimate D2E/DX2                !
 ! A3    A(3,1,4)               92.5698         estimate D2E/DX2                !
 ! A4    L(1,4,5,2,-1)         169.6976         estimate D2E/DX2                !
 ! A5    L(1,4,5,2,-2)         191.3441         estimate D2E/DX2                !
 ! D1    D(2,1,4,3)            -93.619          estimate D2E/DX2                !
 --------------------------------------------------------------------------------
 Maximum allowed force set to 1.00D+20.
 Trust Radius=1.00D-01 FncErr=1.00D-07 GrdErr=1.00D-06 EigMax=2.50D+02 EigMin=1.00D-04
 Number of steps in this run=     50 maximum allowed number of steps=    100.
 Search for a saddle point of order  1.
 GradGradGradGradGradGradGradGradGradGradGradGradGradGradGradGradGradGrad

 Leave Link  103 at Wed Oct  7 13:07:42 2020, MaxMem=  2684354560 cpu:               2.0 elap:               0.6
 (Enter /udrive/faculty/rpeverati/g16/g16/l202.exe)
                          Input orientation:                          
 ---------------------------------------------------------------------
 Center     Atomic      Atomic             Coordinates (Angstroms)
 Number     Number       Type             X           Y           Z
 ---------------------------------------------------------------------
      1         15           0        0.217429    0.000088   -0.111249
      2          1           0        0.246610    1.034668    0.852166
      3          1           0        0.262661   -1.025059    0.861622
      4          1           0       -1.266416   -0.010952   -0.150626
      5          1           0       -2.504289    0.000029    0.105575
 ---------------------------------------------------------------------
                    Distance matrix (angstroms):
                    1          2          3          4          5
     1  P    0.000000
     2  H    1.413993   0.000000
     3  H    1.414019   2.059811   0.000000
     4  H    1.484409   2.094794   2.095504   0.000000
     5  H    2.730341   3.032379   3.046051   1.264155   0.000000
 Stoichiometry    H4P(2)
 Framework group  C1[X(H4P)]
 Deg. of freedom     9
 Full point group                 C1      NOp   1
 Largest Abelian subgroup         C1      NOp   1
 Largest concise Abelian subgroup C1      NOp   1
                         Standard orientation:                         
 ---------------------------------------------------------------------
 Center     Atomic      Atomic             Coordinates (Angstroms)
 Number     Number       Type             X           Y           Z
 ---------------------------------------------------------------------
      1         15           0        0.217429    0.000088   -0.111249
      2          1           0        0.246611    1.034668    0.852166
      3          1           0        0.262661   -1.025059    0.861622
      4          1           0       -1.266416   -0.010952   -0.150626
      5          1           0       -2.504289    0.000029    0.105575
 ---------------------------------------------------------------------
 Rotational constants (GHZ):         128.2471139          45.9390495          44.5801269
 Leave Link  202 at Wed Oct  7 13:07:43 2020, MaxMem=  2684354560 cpu:               1.6 elap:               0.5
 (Enter /udrive/faculty/rpeverati/g16/g16/l301.exe)
 Standard basis: 6-31G(d) (5D, 7F)
 Ernie: Thresh=  0.10000D-02 Tol=  0.10000D-05 Strict=F.
 There are    27 symmetry adapted cartesian basis functions of A   symmetry.
 There are    26 symmetry adapted basis functions of A   symmetry.
    26 basis functions,    68 primitive gaussians,    27 cartesian basis functions
    10 alpha electrons        9 beta electrons
       nuclear repulsion energy        21.0106367530 Hartrees.
 IExCor= 2523 DFT=T Ex=TPSS Corr=TPSS ExCW=0 ScaHFX=  0.000000
 ScaDFX=  1.000000  1.000000  1.000000  1.000000 ScalE2=  1.000000  1.000000
 IRadAn=      5 IRanWt=     -1 IRanGd=            0 ICorTp=0 IEmpDi=141
 NAtoms=    5 NActive=    5 NUniq=    5 SFac= 1.00D+00 NAtFMM=   60 NAOKFM=F Big=F
 Integral buffers will be    131072 words long.
 Raffenetti 2 integral format.
 Two-electron integral symmetry is turned on.
 R6Disp:  Grimme-D3(BJ) Dispersion energy=       -0.0026485124 Hartrees.
 Nuclear repulsion after empirical dispersion term =       21.0079882406 Hartrees.
 Leave Link  301 at Wed Oct  7 13:07:43 2020, MaxMem=  2684354560 cpu:               2.8 elap:               0.6
 (Enter /udrive/faculty/rpeverati/g16/g16/l302.exe)
 NPDir=0 NMtPBC=     1 NCelOv=     1 NCel=       1 NClECP=     1 NCelD=      1
         NCelK=      1 NCelE2=     1 NClLst=     1 CellRange=     0.0.
 One-electron integrals computed using PRISM.
 One-electron integral symmetry used in STVInt
 NBasis=    26 RedAO= T EigKep=  1.28D-02  NBF=    26
 NBsUse=    26 1.00D-06 EigRej= -1.00D+00 NBFU=    26
 Precomputing XC quadrature grid using
 IXCGrd= 4 IRadAn=           5 IRanWt=          -1 IRanGd=           0 AccXCQ= 0.00D+00.
 Generated NRdTot=       0 NPtTot=           0 NUsed=           0 NTot=          32
 NSgBfM=    27    27    27    27    27 MxSgAt=     5 MxSgA2=     5.
 Leave Link  302 at Wed Oct  7 13:07:45 2020, MaxMem=  2684354560 cpu:               5.0 elap:               0.8
 (Enter /udrive/faculty/rpeverati/g16/g16/l303.exe)
 DipDrv:  MaxL=1.
 Leave Link  303 at Wed Oct  7 13:07:46 2020, MaxMem=  2684354560 cpu:               2.9 elap:               0.6
 (Enter /udrive/faculty/rpeverati/g16/g16/l401.exe)
 SCF N**3 symmetry information disabled.
 ExpMin= 9.98D-02 ExpMax= 1.94D+04 ExpMxC= 2.91D+03 IAcc=3 IRadAn=         5 AccDes= 0.00D+00
 Harris functional with IExCor= 1009 and IRadAn=       5 diagonalized for initial guess.
 HarFok:  IExCor= 1009 AccDes= 0.00D+00 IRadAn=         5 IDoV= 1 UseB2=F ITyADJ=14
 ICtDFT=  3500011 ScaDFX=  1.000000  1.000000  1.000000  1.000000
 FoFCou: FMM=F IPFlag=           0 FMFlag=      100000 FMFlg1=           0
         NFxFlg=           0 DoJE=T BraDBF=F KetDBF=T FulRan=T
         wScrn=  0.000000 ICntrl=       500 IOpCl=  0 I1Cent=   200000004 NGrid=           0
         NMat0=    1 NMatS0=      1 NMatT0=    0 NMatD0=    1 NMtDS0=    0 NMtDT0=    0
 Petite list used in FoFCou.
 Harris En= -343.409372721709    
 JPrj=0 DoOrth=F DoCkMO=F.
 Initial guess <Sx>= 0.0000 <Sy>= 0.0000 <Sz>= 0.5000 <S**2>= 0.7500 S= 0.5000
 Leave Link  401 at Wed Oct  7 13:07:48 2020, MaxMem=  2684354560 cpu:              10.9 elap:               1.6
 (Enter /udrive/faculty/rpeverati/g16/g16/l502.exe)
 Keep J ints in memory in canonical form, NReq=10417602.
 FoFCou: FMM=F IPFlag=           0 FMFlag=           0 FMFlg1=           0
         NFxFlg=           0 DoJE=F BraDBF=F KetDBF=F FulRan=T
         wScrn=  0.000000 ICntrl=       600 IOpCl=  0 I1Cent=           0 NGrid=           0
         NMat0=    1 NMatS0=    351 NMatT0=    0 NMatD0=    1 NMtDS0=    0 NMtDT0=    0
 Symmetry not used in FoFCou.
 Two-electron integral symmetry not used.
 UHF open shell SCF:
 Using DIIS extrapolation, IDIIS=  1040.
 NGot=  2684354560 LenX=  2684290484 LenY=  2684289314
 Requested convergence on RMS density matrix=1.00D-08 within 120 cycles.
 Requested convergence on MAX density matrix=1.00D-06.
 Requested convergence on             energy=1.00D-06.
 No special actions if energy rises.
 Integral accuracy reduced to 1.0D-05 until final iterations.

 Cycle   1  Pass 0  IDiag  1:
 E= -343.642185972660    
 DIIS: error= 8.29D-03 at cycle   1 NSaved=   1.
 NSaved= 1 IEnMin= 1 EnMin= -343.642185972660     IErMin= 1 ErrMin= 8.29D-03
 ErrMax= 8.29D-03  0.00D+00 EMaxC= 1.00D-01 BMatC= 1.58D-02 BMatP= 1.58D-02
 IDIUse=3 WtCom= 9.17D-01 WtEn= 8.29D-02
 Coeff-Com:  0.100D+01
 Coeff-En:   0.100D+01
 Coeff:      0.100D+01
 Gap=     0.218 Goal=   None    Shift=    0.000
 Gap=     0.134 Goal=   None    Shift=    0.000
 GapD=    0.134 DampG=1.000 DampE=1.000 DampFc=1.0000 IDamp=-1.
 RMSDP=7.11D-03 MaxDP=6.07D-02              OVMax= 1.02D-01

 Cycle   2  Pass 0  IDiag  1:
 E= -343.649225554950     Delta-E=       -0.007039582290 Rises=F Damp=F
 DIIS: error= 5.24D-03 at cycle   2 NSaved=   2.
 NSaved= 2 IEnMin= 2 EnMin= -343.649225554950     IErMin= 2 ErrMin= 5.24D-03
 ErrMax= 5.24D-03  0.00D+00 EMaxC= 1.00D-01 BMatC= 3.01D-03 BMatP= 1.58D-02
 IDIUse=3 WtCom= 9.48D-01 WtEn= 5.24D-02
 Coeff-Com:  0.233D+00 0.767D+00
 Coeff-En:   0.000D+00 0.100D+01
 Coeff:      0.221D+00 0.779D+00
 Gap=     0.228 Goal=   None    Shift=    0.000
 Gap=     0.128 Goal=   None    Shift=    0.000
 RMSDP=2.78D-03 MaxDP=2.19D-02 DE=-7.04D-03 OVMax= 2.93D-02

 Cycle   3  Pass 0  IDiag  1:
 E= -343.650283920128     Delta-E=       -0.001058365178 Rises=F Damp=F
 DIIS: error= 2.30D-03 at cycle   3 NSaved=   3.
 NSaved= 3 IEnMin= 3 EnMin= -343.650283920128     IErMin= 3 ErrMin= 2.30D-03
 ErrMax= 2.30D-03  0.00D+00 EMaxC= 1.00D-01 BMatC= 7.61D-04 BMatP= 3.01D-03
 IDIUse=3 WtCom= 9.77D-01 WtEn= 2.30D-02
 Coeff-Com: -0.890D-02 0.311D+00 0.698D+00
 Coeff-En:   0.000D+00 0.893D-01 0.911D+00
 Coeff:     -0.870D-02 0.306D+00 0.703D+00
 Gap=     0.225 Goal=   None    Shift=    0.000
 Gap=     0.137 Goal=   None    Shift=    0.000
 RMSDP=1.31D-03 MaxDP=1.10D-02 DE=-1.06D-03 OVMax= 2.49D-02

 Cycle   4  Pass 0  IDiag  1:
 E= -343.650618690974     Delta-E=       -0.000334770846 Rises=F Damp=F
 DIIS: error= 1.09D-03 at cycle   4 NSaved=   4.
 NSaved= 4 IEnMin= 4 EnMin= -343.650618690974     IErMin= 4 ErrMin= 1.09D-03
 ErrMax= 1.09D-03  0.00D+00 EMaxC= 1.00D-01 BMatC= 1.41D-04 BMatP= 7.61D-04
 IDIUse=3 WtCom= 9.89D-01 WtEn= 1.09D-02
 Coeff-Com: -0.222D-01 0.765D-01 0.359D+00 0.587D+00
 Coeff-En:   0.000D+00 0.000D+00 0.386D-01 0.961D+00
 Coeff:     -0.220D-01 0.757D-01 0.355D+00 0.591D+00
 Gap=     0.226 Goal=   None    Shift=    0.000
 Gap=     0.135 Goal=   None    Shift=    0.000
 RMSDP=4.51D-04 MaxDP=4.33D-03 DE=-3.35D-04 OVMax= 5.34D-03

 Cycle   5  Pass 0  IDiag  1:
 E= -343.650682540004     Delta-E=       -0.000063849030 Rises=F Damp=F
 DIIS: error= 1.35D-04 at cycle   5 NSaved=   5.
 NSaved= 5 IEnMin= 5 EnMin= -343.650682540004     IErMin= 5 ErrMin= 1.35D-04
 ErrMax= 1.35D-04  0.00D+00 EMaxC= 1.00D-01 BMatC= 2.41D-06 BMatP= 1.41D-04
 IDIUse=3 WtCom= 9.99D-01 WtEn= 1.35D-03
 Coeff-Com: -0.324D-02-0.247D-01-0.578D-02 0.839D-01 0.950D+00
 Coeff-En:   0.000D+00 0.000D+00 0.000D+00 0.000D+00 0.100D+01
 Coeff:     -0.324D-02-0.247D-01-0.578D-02 0.837D-01 0.950D+00
 Gap=     0.226 Goal=   None    Shift=    0.000
 Gap=     0.136 Goal=   None    Shift=    0.000
 RMSDP=6.05D-05 MaxDP=5.15D-04 DE=-6.38D-05 OVMax= 8.36D-04

 Cycle   6  Pass 0  IDiag  1:
 E= -343.650683648654     Delta-E=       -0.000001108650 Rises=F Damp=F
 DIIS: error= 3.65D-05 at cycle   6 NSaved=   6.
 NSaved= 6 IEnMin= 6 EnMin= -343.650683648654     IErMin= 6 ErrMin= 3.65D-05
 ErrMax= 3.65D-05  0.00D+00 EMaxC= 1.00D-01 BMatC= 1.67D-07 BMatP= 2.41D-06
 IDIUse=1 WtCom= 1.00D+00 WtEn= 0.00D+00
 Coeff-Com:  0.183D-03-0.697D-02-0.891D-02 0.310D-02 0.198D+00 0.814D+00
 Coeff:      0.183D-03-0.697D-02-0.891D-02 0.310D-02 0.198D+00 0.814D+00
 Gap=     0.226 Goal=   None    Shift=    0.000
 Gap=     0.136 Goal=   None    Shift=    0.000
 RMSDP=2.15D-05 MaxDP=1.30D-04 DE=-1.11D-06 OVMax= 2.04D-04

 Cycle   7  Pass 0  IDiag  1:
 E= -343.650683714561     Delta-E=       -0.000000065906 Rises=F Damp=F
 DIIS: error= 1.69D-05 at cycle   7 NSaved=   7.
 NSaved= 7 IEnMin= 7 EnMin= -343.650683714561     IErMin= 7 ErrMin= 1.69D-05
 ErrMax= 1.69D-05  0.00D+00 EMaxC= 1.00D-01 BMatC= 4.49D-08 BMatP= 1.67D-07
 IDIUse=1 WtCom= 1.00D+00 WtEn= 0.00D+00
 Coeff-Com:  0.449D-03 0.176D-02-0.129D-02-0.107D-01-0.983D-01 0.306D+00
 Coeff-Com:  0.802D+00
 Coeff:      0.449D-03 0.176D-02-0.129D-02-0.107D-01-0.983D-01 0.306D+00
 Coeff:      0.802D+00
 Gap=     0.226 Goal=   None    Shift=    0.000
 Gap=     0.136 Goal=   None    Shift=    0.000
 RMSDP=8.98D-06 MaxDP=7.14D-05 DE=-6.59D-08 OVMax= 1.10D-04

 Initial convergence to 1.0D-05 achieved.  Increase integral accuracy.
 Cycle   8  Pass 1  IDiag  1:
 E= -343.650690983521     Delta-E=       -0.000007268960 Rises=F Damp=F
 DIIS: error= 6.24D-06 at cycle   1 NSaved=   1.
 NSaved= 1 IEnMin= 1 EnMin= -343.650690983521     IErMin= 1 ErrMin= 6.24D-06
 ErrMax= 6.24D-06  0.00D+00 EMaxC= 1.00D-01 BMatC= 2.74D-09 BMatP= 2.74D-09
 IDIUse=1 WtCom= 1.00D+00 WtEn= 0.00D+00
 Coeff-Com:  0.100D+01
 Coeff:      0.100D+01
 Gap=     0.226 Goal=   None    Shift=    0.000
 Gap=     0.136 Goal=   None    Shift=    0.000
 RMSDP=8.98D-06 MaxDP=7.14D-05 DE=-7.27D-06 OVMax= 4.42D-05

 Cycle   9  Pass 1  IDiag  1:
 E= -343.650690984184     Delta-E=       -0.000000000663 Rises=F Damp=F
 DIIS: error= 4.42D-06 at cycle   2 NSaved=   2.
 NSaved= 2 IEnMin= 2 EnMin= -343.650690984184     IErMin= 2 ErrMin= 4.42D-06
 ErrMax= 4.42D-06  0.00D+00 EMaxC= 1.00D-01 BMatC= 1.68D-09 BMatP= 2.74D-09
 IDIUse=1 WtCom= 1.00D+00 WtEn= 0.00D+00
 Coeff-Com:  0.419D+00 0.581D+00
 Coeff:      0.419D+00 0.581D+00
 Gap=     0.226 Goal=   None    Shift=    0.000
 Gap=     0.136 Goal=   None    Shift=    0.000
 RMSDP=2.09D-06 MaxDP=1.97D-05 DE=-6.63D-10 OVMax= 3.44D-05

 Cycle  10  Pass 1  IDiag  1:
 E= -343.650690984972     Delta-E=       -0.000000000789 Rises=F Damp=F
 DIIS: error= 1.30D-06 at cycle   3 NSaved=   3.
 NSaved= 3 IEnMin= 3 EnMin= -343.650690984972     IErMin= 3 ErrMin= 1.30D-06
 ErrMax= 1.30D-06  0.00D+00 EMaxC= 1.00D-01 BMatC= 2.26D-10 BMatP= 1.68D-09
 IDIUse=1 WtCom= 1.00D+00 WtEn= 0.00D+00
 Coeff-Com: -0.654D-01 0.229D+00 0.836D+00
 Coeff:     -0.654D-01 0.229D+00 0.836D+00
 Gap=     0.226 Goal=   None    Shift=    0.000
 Gap=     0.136 Goal=   None    Shift=    0.000
 RMSDP=6.66D-07 MaxDP=8.81D-06 DE=-7.89D-10 OVMax= 7.69D-06

 Cycle  11  Pass 1  IDiag  1:
 E= -343.650690985085     Delta-E=       -0.000000000113 Rises=F Damp=F
 DIIS: error= 3.39D-07 at cycle   4 NSaved=   4.
 NSaved= 4 IEnMin= 4 EnMin= -343.650690985085     IErMin= 4 ErrMin= 3.39D-07
 ErrMax= 3.39D-07  0.00D+00 EMaxC= 1.00D-01 BMatC= 1.21D-11 BMatP= 2.26D-10
 IDIUse=1 WtCom= 1.00D+00 WtEn= 0.00D+00
 Coeff-Com: -0.458D-01 0.382D-01 0.235D+00 0.773D+00
 Coeff:     -0.458D-01 0.382D-01 0.235D+00 0.773D+00
 Gap=     0.226 Goal=   None    Shift=    0.000
 Gap=     0.136 Goal=   None    Shift=    0.000
 RMSDP=1.72D-07 MaxDP=1.16D-06 DE=-1.13D-10 OVMax= 1.72D-06

 Cycle  12  Pass 1  IDiag  1:
 E= -343.650690985092     Delta-E=       -0.000000000006 Rises=F Damp=F
 DIIS: error= 1.30D-07 at cycle   5 NSaved=   5.
 NSaved= 5 IEnMin= 5 EnMin= -343.650690985092     IErMin= 5 ErrMin= 1.30D-07
 ErrMax= 1.30D-07  0.00D+00 EMaxC= 1.00D-01 BMatC= 2.16D-12 BMatP= 1.21D-11
 IDIUse=1 WtCom= 1.00D+00 WtEn= 0.00D+00
 Coeff-Com: -0.758D-02-0.262D-01-0.642D-01 0.271D+00 0.827D+00
 Coeff:     -0.758D-02-0.262D-01-0.642D-01 0.271D+00 0.827D+00
 Gap=     0.226 Goal=   None    Shift=    0.000
 Gap=     0.136 Goal=   None    Shift=    0.000
 RMSDP=6.65D-08 MaxDP=6.26D-07 DE=-6.14D-12 OVMax= 7.71D-07

 Cycle  13  Pass 1  IDiag  1:
 E= -343.650690985092     Delta-E=       -0.000000000001 Rises=F Damp=F
 DIIS: error= 2.97D-08 at cycle   6 NSaved=   6.
 NSaved= 6 IEnMin= 6 EnMin= -343.650690985092     IErMin= 6 ErrMin= 2.97D-08
 ErrMax= 2.97D-08  0.00D+00 EMaxC= 1.00D-01 BMatC= 8.14D-14 BMatP= 2.16D-12
 IDIUse=1 WtCom= 1.00D+00 WtEn= 0.00D+00
 Coeff-Com:  0.118D-02-0.942D-02-0.324D-01 0.353D-01 0.223D+00 0.783D+00
 Coeff:      0.118D-02-0.942D-02-0.324D-01 0.353D-01 0.223D+00 0.783D+00
 Gap=     0.226 Goal=   None    Shift=    0.000
 Gap=     0.136 Goal=   None    Shift=    0.000
 RMSDP=1.15D-08 MaxDP=7.41D-08 DE=-5.68D-13 OVMax= 1.32D-07

 Cycle  14  Pass 1  IDiag  1:
 E= -343.650690985093     Delta-E=       -0.000000000001 Rises=F Damp=F
 DIIS: error= 7.84D-09 at cycle   7 NSaved=   7.
 NSaved= 7 IEnMin= 7 EnMin= -343.650690985093     IErMin= 7 ErrMin= 7.84D-09
 ErrMax= 7.84D-09  0.00D+00 EMaxC= 1.00D-01 BMatC= 4.39D-15 BMatP= 8.14D-14
 IDIUse=1 WtCom= 1.00D+00 WtEn= 0.00D+00
 Coeff-Com:  0.605D-03 0.719D-03 0.159D-02-0.156D-01-0.413D-01 0.102D+00
 Coeff-Com:  0.952D+00
 Coeff:      0.605D-03 0.719D-03 0.159D-02-0.156D-01-0.413D-01 0.102D+00
 Coeff:      0.952D+00
 Gap=     0.226 Goal=   None    Shift=    0.000
 Gap=     0.136 Goal=   None    Shift=    0.000
 RMSDP=3.08D-09 MaxDP=2.06D-08 DE=-6.82D-13 OVMax= 3.96D-08

 SCF Done:  E(UTPSS-TPSS) =  -343.650690985     A.U. after   14 cycles
            NFock= 14  Conv=0.31D-08     -V/T= 2.0021
 <Sx>= 0.0000 <Sy>= 0.0000 <Sz>= 0.5000 <S**2>= 0.7581 S= 0.5041
 <L.S>= 0.000000000000E+00
 KE= 3.429344347970D+02 PE=-8.587347474092D+02 EE= 1.511416333865D+02
 Annihilation of the first spin contaminant:
 S**2 before annihilation     0.7581,   after     0.7500
 Leave Link  502 at Wed Oct  7 13:07:51 2020, MaxMem=  2684354560 cpu:              34.8 elap:               3.6
 (Enter /udrive/faculty/rpeverati/g16/g16/l508.exe)
 QCSCF skips out because SCF is already converged.
 Leave Link  508 at Wed Oct  7 13:07:52 2020, MaxMem=  2684354560 cpu:               1.0 elap:               0.6
 (Enter /udrive/faculty/rpeverati/g16/g16/l601.exe)
 Copying SCF densities to generalized density rwf, IOpCl= 1 IROHF=0.

 **********************************************************************

            Population analysis using the SCF density.

 **********************************************************************

 Orbital symmetries:
 Alpha Orbitals:
       Occupied  (A) (A) (A) (A) (A) (A) (A) (A) (A) (A)
       Virtual   (A) (A) (A) (A) (A) (A) (A) (A) (A) (A) (A) (A)
                 (A) (A) (A) (A)
 Beta  Orbitals:
       Occupied  (A) (A) (A) (A) (A) (A) (A) (A) (A)
       Virtual   (A) (A) (A) (A) (A) (A) (A) (A) (A) (A) (A) (A)
                 (A) (A) (A) (A) (A)
 The electronic state is 2-A.
 Alpha  occ. eigenvalues --  -76.59349  -6.37388  -4.55323  -4.55160  -4.54752
 Alpha  occ. eigenvalues --   -0.61283  -0.40027  -0.36531  -0.27583  -0.21989
 Alpha virt. eigenvalues --    0.00639   0.01461   0.11624   0.26460   0.27512
 Alpha virt. eigenvalues --    0.30976   0.35105   0.60931   0.61659   0.63373
 Alpha virt. eigenvalues --    0.65277   0.69803   0.79713   1.00002   1.12253
 Alpha virt. eigenvalues --    1.15465
  Beta  occ. eigenvalues --  -76.59193  -6.37233  -4.55066  -4.54953  -4.54570
  Beta  occ. eigenvalues --   -0.60263  -0.37670  -0.36364  -0.25839
  Beta virt. eigenvalues --   -0.12282   0.00863   0.03191   0.12712   0.26765
  Beta virt. eigenvalues --    0.27775   0.32969   0.36004   0.62777   0.63214
  Beta virt. eigenvalues --    0.64998   0.65428   0.72629   0.90728   1.02829
  Beta virt. eigenvalues --    1.13759   1.16468
          Condensed to atoms (all electrons):
               1          2          3          4          5
     1  P   14.183226   0.324454   0.324162   0.253572  -0.083595
     2  H    0.324454   0.677793  -0.025473  -0.021828   0.001905
     3  H    0.324162  -0.025473   0.677947  -0.021555   0.001889
     4  H    0.253572  -0.021828  -0.021555   0.784819   0.064779
     5  H   -0.083595   0.001905   0.001889   0.064779   1.039591
          Atomic-Atomic Spin Densities.
               1          2          3          4          5
     1  P    0.373636  -0.004589  -0.004616   0.059626  -0.089644
     2  H   -0.004589  -0.006810   0.000933  -0.000205   0.000960
     3  H   -0.004616   0.000933  -0.006757  -0.000250   0.000998
     4  H    0.059626  -0.000205  -0.000250  -0.110615  -0.051006
     5  H   -0.089644   0.000960   0.000998  -0.051006   0.926132
 Mulliken charges and spin densities:
               1          2
     1  P   -0.001819   0.334412
     2  H    0.043148  -0.009711
     3  H    0.043029  -0.009692
     4  H   -0.059788  -0.102450
     5  H   -0.024569   0.787441
 Sum of Mulliken charges =  -0.00000   1.00000
 Mulliken charges and spin densities with hydrogens summed into heavy atoms:
               1          2
     1  P   -0.000000   1.000000
 Electronic spatial extent (au):  <R**2>=             82.9362
 Charge=             -0.0000 electrons
 Dipole moment (field-independent basis, Debye):
    X=              0.0838    Y=              0.0015    Z=              0.8246  Tot=              0.8289
 Quadrupole moment (field-independent basis, Debye-Ang):
   XX=            -18.3111   YY=            -15.7183   ZZ=            -17.3689
   XY=             -0.0058   XZ=              1.0889   YZ=             -0.0005
 Traceless Quadrupole moment (field-independent basis, Debye-Ang):
   XX=             -1.1784   YY=              1.4145   ZZ=             -0.2361
   XY=             -0.0058   XZ=              1.0889   YZ=             -0.0005
 Octapole moment (field-independent basis, Debye-Ang**2):
  XXX=              7.4153  YYY=              0.0011  ZZZ=              1.3593  XYY=              1.0906
  XXY=              0.0078  XXZ=              0.6886  XZZ=              0.5987  YZZ=              0.0013
  YYZ=              0.2299  XYZ=              0.0022
 Hexadecapole moment (field-independent basis, Debye-Ang**3):
 XXXX=            -96.9436 YYYY=            -30.4913 ZZZZ=            -33.6370 XXXY=             -0.0127
 XXXZ=              2.5711 YYYX=             -0.0139 YYYZ=              0.0067 ZZZX=              2.0976
 ZZZY=             -0.0073 XXYY=            -19.5667 XXZZ=            -20.2344 YYZZ=            -10.1946
 XXYZ=             -0.0008 YYXZ=              0.6821 ZZXY=             -0.0087
 N-N= 2.100798824062D+01 E-N=-8.587347476310D+02  KE= 3.429344347970D+02
                          Isotropic Fermi Contact Couplings
        Atom                 a.u.       MegaHertz       Gauss      10(-4) cm-1
     1  P(31)              0.03695      66.92754      23.88141      22.32462
     2  H(1)              -0.00277     -12.37480      -4.41564      -4.12779
     3  H(1)              -0.00278     -12.42938      -4.43511      -4.14600
     4  H(1)              -0.02282    -101.98314     -36.39012     -34.01791
     5  H(1)               0.24660    1102.27136     393.31783     367.67815
 --------------------------------------------------------
       Center         ----  Spin Dipole Couplings  ----
                      3XX-RR        3YY-RR        3ZZ-RR
 --------------------------------------------------------
     1   Atom        1.163844     -0.549614     -0.614230
     2   Atom        0.004747      0.000057     -0.004804
     3   Atom        0.004742     -0.000196     -0.004546
     4   Atom        0.118254     -0.060964     -0.057290
     5   Atom       -0.013941      0.007443      0.006498
 --------------------------------------------------------
                        XY            XZ            YZ
 --------------------------------------------------------
     1   Atom        0.011031     -0.089049     -0.000891
     2   Atom        0.003516      0.001823      0.011860
     3   Atom       -0.003418      0.001923     -0.011895
     4   Atom       -0.000527     -0.018286      0.000200
     5   Atom        0.000200      0.004359     -0.000041
 --------------------------------------------------------


 ---------------------------------------------------------------------------------
              Anisotropic Spin Dipole Couplings in Principal Axis System
 ---------------------------------------------------------------------------------

       Atom             a.u.   MegaHertz   Gauss  10(-4) cm-1        Axes

              Baa    -0.6187  -133.749   -47.725   -44.614  0.0499  0.0049  0.9987
     1 P(31)  Bbb    -0.5497  -118.833   -42.402   -39.638 -0.0067  1.0000 -0.0046
              Bcc     1.1684   252.581    90.127    84.252  0.9987  0.0064 -0.0499
 
              Baa    -0.0145    -7.744    -2.763    -2.583  0.0434 -0.6369  0.7697
     2 H(1)   Bbb     0.0027     1.419     0.506     0.473  0.8761 -0.3460 -0.3357
              Bcc     0.0119     6.325     2.257     2.110  0.4801  0.6890  0.5430
 
              Baa    -0.0145    -7.731    -2.759    -2.579  0.0382  0.6445  0.7636
     3 H(1)   Bbb     0.0027     1.421     0.507     0.474  0.8769  0.3448 -0.3349
              Bcc     0.0118     6.310     2.252     2.105 -0.4791  0.6824 -0.5520
 
              Baa    -0.0610   -32.535   -11.609   -10.852 -0.0052  0.9968 -0.0799
     4 H(1)   Bbb    -0.0592   -31.567   -11.264   -10.529  0.1024  0.0800  0.9915
              Bcc     0.1201    64.101    22.873    21.382  0.9947 -0.0030 -0.1025
 
              Baa    -0.0148    -7.915    -2.824    -2.640  0.9797 -0.0092 -0.2002
     5 H(1)   Bbb     0.0074     3.943     1.407     1.315  0.2003  0.0060  0.9797
              Bcc     0.0074     3.972     1.417     1.325  0.0078  0.9999 -0.0078
 

 ---------------------------------------------------------------------------------

 No NMR shielding tensors so no spin-rotation constants.
 Leave Link  601 at Wed Oct  7 13:07:54 2020, MaxMem=  2684354560 cpu:               5.6 elap:               0.9
 (Enter /udrive/faculty/rpeverati/g16/g16/l701.exe)
 ... and contract with generalized density number  0.
 Compute integral first derivatives.
 R6Disp: Adding Grimme-D3(BJ) dispersion energy 1st derivatives to the gradient.
 Leave Link  701 at Wed Oct  7 13:07:55 2020, MaxMem=  2684354560 cpu:               6.8 elap:               1.4
 (Enter /udrive/faculty/rpeverati/g16/g16/l702.exe)
 L702 exits ... SP integral derivatives will be done elsewhere.
 Leave Link  702 at Wed Oct  7 13:07:56 2020, MaxMem=  2684354560 cpu:               2.1 elap:               0.6
 (Enter /udrive/faculty/rpeverati/g16/g16/l703.exe)
 Integral derivatives from FoFJK, PRISM(SPDF).
 Compute integral first derivatives, UseDBF=F ICtDFT=           0.
 Calling FoFJK, ICntrl=      2527 FMM=F ISym2X=0 I1Cent= 0 IOpClX= 0 NMat=1 NMatS=1 NMatT=0.
 FoFJK:  IHMeth= 1 ICntrl=    2527 DoSepK=F KAlg= 0 I1Cent=           0 FoldK=F
 IRaf=         0 NMat=       1 IRICut=       1 DoRegI=T DoRafI=F ISym2E= 0 IDoP0=0 IntGTp=1.
 FoFCou: FMM=F IPFlag=           0 FMFlag=      100000 FMFlg1=         800
         NFxFlg=           0 DoJE=F BraDBF=F KetDBF=F FulRan=T
         wScrn=  0.000000 ICntrl=      2527 IOpCl=  0 I1Cent=           0 NGrid=           0
         NMat0=    1 NMatS0=      1 NMatT0=    0 NMatD0=    1 NMtDS0=    0 NMtDT0=    0
 Symmetry not used in FoFCou.
 Leave Link  703 at Wed Oct  7 13:07:58 2020, MaxMem=  2684354560 cpu:               8.7 elap:               1.2
 (Enter /udrive/faculty/rpeverati/g16/g16/l716.exe)
 Dipole        = 3.29845730D-02 5.77547410D-04 3.24433973D-01
 ***** Axes restored to original set *****
 -------------------------------------------------------------------
 Center     Atomic                   Forces (Hartrees/Bohr)
 Number     Number              X              Y              Z
 -------------------------------------------------------------------
      1       15           0.008628097   -0.000069963   -0.006594376
      2        1          -0.000316680    0.002563172    0.003005520
      3        1          -0.000282376   -0.002527658    0.003052028
      4        1          -0.012194286    0.000187732    0.001621923
      5        1           0.004165245   -0.000153283   -0.001085094
 -------------------------------------------------------------------
 Cartesian Forces:  Max     0.012194286 RMS     0.004614025
 Leave Link  716 at Wed Oct  7 13:07:59 2020, MaxMem=  2684354560 cpu:               2.0 elap:               0.7
 (Enter /udrive/faculty/rpeverati/g16/g16/l103.exe)

 GradGradGradGradGradGradGradGradGradGradGradGradGradGradGradGradGradGrad
 Berny optimization.
 Optmz: redundant internal coordinate code flag= 1
 FormGI is forming the generalized inverse of G from B-inverse, IUseBI=4.
 Internal  Forces:  Max     0.008013504 RMS     0.003420500
 Search for a saddle point.
 Step number   1 out of a maximum of   50
 All quantities printed in internal units (Hartrees-Bohrs-Radians)
 Swapping is turned off.
 Second derivative matrix not updated -- first step.
 The second derivative matrix:
                          R1        R2        R3        R4        A1
           R1           0.21288
           R2           0.00000   0.21286
           R3           0.00000   0.00000   0.17567
           R4           0.00000   0.00000   0.00000   0.09500
           A1           0.00000   0.00000   0.00000   0.00000   0.16000
           A2           0.00000   0.00000   0.00000   0.00000   0.00000
           A3           0.00000   0.00000   0.00000   0.00000   0.00000
           A4           0.00000   0.00000   0.00000   0.00000   0.00000
           A5           0.00000   0.00000   0.00000   0.00000   0.00000
           D1           0.00000   0.00000   0.00000   0.00000   0.00000
                          A2        A3        A4        A5        D1
           A2           0.16000
           A3           0.00000   0.16000
           A4           0.00000   0.00000   0.00230
           A5           0.00000   0.00000   0.00000   0.00230
           D1           0.00000   0.00000   0.00000   0.00000   0.00230
 ITU=  0
 Eigenvectors of the second derivative matrix:
                           1         2         3         4         5
     Eigenvalues --     0.00230   0.00230   0.08081   0.09500   0.16000
   1         R1         0.00000   0.00000  -0.00000  -0.00000  -0.00000
   2         R2         0.00000  -0.00000   0.00000  -0.00000   0.00000
   3         R3        -0.00000  -0.00000  -0.00000   0.00000   0.00000
   4         R4        -0.00000  -0.00000   0.00000  -1.00000  -0.00000
   5         A1        -0.00000  -0.00000   0.70399   0.00000  -0.03711
   6         A2        -0.00000  -0.00000   0.03356  -0.00000   0.97854
   7         A3        -0.00000  -0.00000   0.03310  -0.00000  -0.20267
   8         A4         0.15603   0.98775   0.00000  -0.00000  -0.00000
   9         A5        -0.98775   0.15603  -0.00000   0.00000  -0.00000
  10         D1         0.00000   0.00000  -0.70864  -0.00000   0.00000
                           6         7         8         9
     Eigenvalues --     0.16000   0.17567   0.21286   0.21288
   1         R1         0.00000   0.00000   0.00000   1.00000
   2         R2         0.00000   0.00000  -1.00000   0.00000
   3         R3        -0.00000   1.00000   0.00000  -0.00000
   4         R4         0.00000   0.00000   0.00000  -0.00000
   5         A1         0.05554   0.00000   0.00000   0.00000
   6         A2        -0.20047  -0.00000  -0.00000   0.00000
   7         A3        -0.97812  -0.00000  -0.00000   0.00000
   8         A4        -0.00000   0.00000  -0.00000  -0.00000
   9         A5        -0.00000  -0.00000  -0.00000   0.00000
  10         D1         0.00000  -0.00000  -0.00000  -0.00000
 Eigenvalue     1 is   2.30D-03 should be less than     0.000000 Eigenvector:
                          A5        A4        A1        D1        R4
   1                   -0.98775   0.15603  -0.00000   0.00000  -0.00000
                          R2        R3        R1        A2        A3
   1                    0.00000  -0.00000   0.00000  -0.00000  -0.00000
 RLam0= 2.32D-03.
 Iter=   1 RLamda= 0.00000000D+00 Sum=-8.71539703D-04.
 Iter=   2 RLamda=-8.71539703D-04 Sum=-8.28434906D-04.
 Iter=   3 RLamda=-8.28434906D-04 Sum=-8.30058080D-04.
 Iter=   4 RLamda=-8.30058080D-04 Sum=-8.29996251D-04.
 Iter=   5 RLamda=-8.29996251D-04 Sum=-8.29998605D-04.
 RFO step:  Lambda0=2.316271731D-03 Lambda=-8.29996251D-04.
 Linear search not attempted -- option 19 set.
 Maximum step size (   0.100) exceeded in Quadratic search.
    -- Step size scaled by   0.363
 Iteration  1 RMS(Cart)=  0.03792145 RMS(Int)=  0.00178341
 Iteration  2 RMS(Cart)=  0.00159143 RMS(Int)=  0.00000327
 Iteration  3 RMS(Cart)=  0.00000348 RMS(Int)=  0.00000165
 Iteration  4 RMS(Cart)=  0.00000000 RMS(Int)=  0.00000165
 ITry= 1 IFail=0 DXMaxC= 7.20D-02 DCOld= 1.00D+10 DXMaxT= 1.00D-01 DXLimC= 3.00D+00 Rises=F
 Variable       Old X    -DE/DX   Delta X   Delta X   Delta X     New X
                                 (Linear)    (Quad)   (Total)
    R1        2.67206   0.00391   0.00000   0.00664   0.00664   2.67870
    R2        2.67211   0.00393   0.00000   0.00666   0.00666   2.67877
    R3        2.80513   0.00801   0.00000   0.01646   0.01646   2.82159
    R4        2.38891  -0.00430   0.00000  -0.01628  -0.01628   2.37263
    A1        1.63185  -0.00059   0.00000  -0.00286  -0.00286   1.62899
    A2        1.61496  -0.00107   0.00000  -0.00248  -0.00248   1.61248
    A3        1.61565  -0.00109   0.00000  -0.00254  -0.00254   1.61311
    A4        2.96178   0.00059   0.00000   0.05411   0.05411   3.01589
    A5        3.33959  -0.00010   0.00000   0.08017   0.08017   3.41975
    D1       -1.63396   0.00070   0.00000   0.00310   0.00310  -1.63086
         Item               Value     Threshold  Converged?
 Maximum Force            0.008014     0.000450     NO 
 RMS     Force            0.003420     0.000300     NO 
 Maximum Displacement     0.072037     0.001800     NO 
 RMS     Displacement     0.038049     0.001200     NO 
 Predicted change in Energy=-2.289542D-04
 Lowest energy point so far.  Saving SCF results.
 Largest change from initial coordinates is atom    5       0.038 Angstoms.
 GradGradGradGradGradGradGradGradGradGradGradGradGradGradGradGradGradGrad

 Leave Link  103 at Wed Oct  7 13:08:01 2020, MaxMem=  2684354560 cpu:              11.7 elap:               1.5
 (Enter /udrive/faculty/rpeverati/g16/g16/l202.exe)
                          Input orientation:                          
 ---------------------------------------------------------------------
 Center     Atomic      Atomic             Coordinates (Angstroms)
 Number     Number       Type             X           Y           Z
 ---------------------------------------------------------------------
      1         15           0        0.219141   -0.000421   -0.113749
      2          1           0        0.272856    1.037343    0.850350
      3          1           0        0.239063   -1.024475    0.866223
      4          1           0       -1.273360    0.024419   -0.148812
      5          1           0       -2.501704   -0.038091    0.103475
 ---------------------------------------------------------------------
                    Distance matrix (angstroms):
                    1          2          3          4          5
     1  P    0.000000
     2  H    1.417508   0.000000
     3  H    1.417543   2.062156   0.000000
     4  H    1.493119   2.101221   2.101880   0.000000
     5  H    2.729762   3.067991   3.011070   1.255542   0.000000
 Stoichiometry    H4P(2)
 Framework group  C1[X(H4P)]
 Deg. of freedom     9
 Full point group                 C1      NOp   1
 RotChk:  IX=3 Diff= 4.57D-02
 Largest Abelian subgroup         C1      NOp   1
 Largest concise Abelian subgroup C1      NOp   1
                         Standard orientation:                         
 ---------------------------------------------------------------------
 Center     Atomic      Atomic             Coordinates (Angstroms)
 Number     Number       Type             X           Y           Z
 ---------------------------------------------------------------------
      1         15           0        0.217922   -0.000196   -0.111824
      2          1           0        0.286899    1.008790    0.881412
      3          1           0        0.221591   -1.051888    0.838628
      4          1           0       -1.274003    0.048454   -0.146433
      5          1           0       -2.503314   -0.002412    0.103755
 ---------------------------------------------------------------------
 Rotational constants (GHZ):         127.6594310          45.7961112          44.4764483
 Leave Link  202 at Wed Oct  7 13:08:02 2020, MaxMem=  2684354560 cpu:               2.1 elap:               0.9
 (Enter /udrive/faculty/rpeverati/g16/g16/l301.exe)
 Standard basis: 6-31G(d) (5D, 7F)
 Ernie: Thresh=  0.10000D-02 Tol=  0.10000D-05 Strict=F.
 There are    27 symmetry adapted cartesian basis functions of A   symmetry.
 There are    26 symmetry adapted basis functions of A   symmetry.
    26 basis functions,    68 primitive gaussians,    27 cartesian basis functions
    10 alpha electrons        9 beta electrons
       nuclear repulsion energy        20.9532156459 Hartrees.
 IExCor= 2523 DFT=T Ex=TPSS Corr=TPSS ExCW=0 ScaHFX=  0.000000
 ScaDFX=  1.000000  1.000000  1.000000  1.000000 ScalE2=  1.000000  1.000000
 IRadAn=      5 IRanWt=     -1 IRanGd=            0 ICorTp=0 IEmpDi=141
 NAtoms=    5 NActive=    5 NUniq=    5 SFac= 1.00D+00 NAtFMM=   60 NAOKFM=F Big=F
 Integral buffers will be    131072 words long.
 Raffenetti 2 integral format.
 Two-electron integral symmetry is turned on.
 R6Disp:  Grimme-D3(BJ) Dispersion energy=       -0.0026483569 Hartrees.
 Nuclear repulsion after empirical dispersion term =       20.9505672890 Hartrees.
 Leave Link  301 at Wed Oct  7 13:08:03 2020, MaxMem=  2684354560 cpu:               2.6 elap:               0.6
 (Enter /udrive/faculty/rpeverati/g16/g16/l302.exe)
 NPDir=0 NMtPBC=     1 NCelOv=     1 NCel=       1 NClECP=     1 NCelD=      1
         NCelK=      1 NCelE2=     1 NClLst=     1 CellRange=     0.0.
 One-electron integrals computed using PRISM.
 One-electron integral symmetry used in STVInt
 NBasis=    26 RedAO= T EigKep=  1.29D-02  NBF=    26
 NBsUse=    26 1.00D-06 EigRej= -1.00D+00 NBFU=    26
 Precomputing XC quadrature grid using
 IXCGrd= 4 IRadAn=           5 IRanWt=          -1 IRanGd=           0 AccXCQ= 0.00D+00.
 Generated NRdTot=       0 NPtTot=           0 NUsed=           0 NTot=          32
 NSgBfM=    27    27    27    27    27 MxSgAt=     5 MxSgA2=     5.
 Leave Link  302 at Wed Oct  7 13:08:04 2020, MaxMem=  2684354560 cpu:               4.2 elap:               0.9
 (Enter /udrive/faculty/rpeverati/g16/g16/l303.exe)
 DipDrv:  MaxL=1.
 Leave Link  303 at Wed Oct  7 13:08:05 2020, MaxMem=  2684354560 cpu:               3.4 elap:               1.0
 (Enter /udrive/faculty/rpeverati/g16/g16/l401.exe)
 Initial guess from the checkpoint file:  "MN_88_RKT12_BH76_TPSSDBJ_631Gs.chk"
 SCF N**3 symmetry information disabled.
 B after Tr=     0.000000   -0.000000    0.000000
         Rot=    0.999871   -0.014109   -0.000040    0.007715 Ang=  -1.84 deg.
 Guess basis will be translated and rotated to current coordinates.
 JPrj=2 DoOrth=T DoCkMO=T.
 Initial guess <Sx>= 0.0000 <Sy>= 0.0000 <Sz>= 0.5000 <S**2>= 0.7582 S= 0.5041
 Generating alternative initial guess.
 ExpMin= 9.98D-02 ExpMax= 1.94D+04 ExpMxC= 2.91D+03 IAcc=2 IRadAn=         4 AccDes= 0.00D+00
 Harris functional with IExCor= 1009 and IRadAn=       4 diagonalized for initial guess.
 HarFok:  IExCor= 1009 AccDes= 0.00D+00 IRadAn=         4 IDoV= 1 UseB2=F ITyADJ=14
 ICtDFT=  3500011 ScaDFX=  1.000000  1.000000  1.000000  1.000000
 FoFCou: FMM=F IPFlag=           0 FMFlag=      100000 FMFlg1=           0
         NFxFlg=           0 DoJE=T BraDBF=F KetDBF=T FulRan=T
         wScrn=  0.000000 ICntrl=       500 IOpCl=  0 I1Cent=   200000004 NGrid=           0
         NMat0=    1 NMatS0=      1 NMatT0=    0 NMatD0=    1 NMtDS0=    0 NMtDT0=    0
 Petite list used in FoFCou.
 Harris En= -343.407071568970    
 Leave Link  401 at Wed Oct  7 13:08:08 2020, MaxMem=  2684354560 cpu:              17.6 elap:               2.2
 (Enter /udrive/faculty/rpeverati/g16/g16/l502.exe)
 Keep J ints in memory in canonical form, NReq=10417602.
 FoFCou: FMM=F IPFlag=           0 FMFlag=           0 FMFlg1=           0
         NFxFlg=           0 DoJE=F BraDBF=F KetDBF=F FulRan=T
         wScrn=  0.000000 ICntrl=       600 IOpCl=  0 I1Cent=           0 NGrid=           0
         NMat0=    1 NMatS0=    351 NMatT0=    0 NMatD0=    1 NMtDS0=    0 NMtDT0=    0
 Symmetry not used in FoFCou.
 Two-electron integral symmetry not used.
 UHF open shell SCF:
 Using DIIS extrapolation, IDIIS=  1040.
 NGot=  2684354560 LenX=  2684290484 LenY=  2684289314
 Requested convergence on RMS density matrix=1.00D-08 within 120 cycles.
 Requested convergence on MAX density matrix=1.00D-06.
 Requested convergence on             energy=1.00D-06.
 No special actions if energy rises.
 Integral accuracy reduced to 1.0D-05 until final iterations.

 Cycle   1  Pass 0  IDiag  1:
 E= -343.650752346289    
 DIIS: error= 1.24D-03 at cycle   1 NSaved=   1.
 NSaved= 1 IEnMin= 1 EnMin= -343.650752346289     IErMin= 1 ErrMin= 1.24D-03
 ErrMax= 1.24D-03  0.00D+00 EMaxC= 1.00D-01 BMatC= 1.86D-04 BMatP= 1.86D-04
 IDIUse=3 WtCom= 9.88D-01 WtEn= 1.24D-02
 Coeff-Com:  0.100D+01
 Coeff-En:   0.100D+01
 Coeff:      0.100D+01
 Gap=     0.460 Goal=   None    Shift=    0.000
 Gap=     0.393 Goal=   None    Shift=    0.000
 GapD=    0.393 DampG=1.000 DampE=1.000 DampFc=1.0000 IDamp=-1.
 RMSDP=7.66D-04 MaxDP=4.91D-03              OVMax= 8.31D-03

 Cycle   2  Pass 0  IDiag  1:
 E= -343.650888061822     Delta-E=       -0.000135715533 Rises=F Damp=F
 DIIS: error= 2.61D-04 at cycle   2 NSaved=   2.
 NSaved= 2 IEnMin= 2 EnMin= -343.650888061822     IErMin= 2 ErrMin= 2.61D-04
 ErrMax= 2.61D-04  0.00D+00 EMaxC= 1.00D-01 BMatC= 7.99D-06 BMatP= 1.86D-04
 IDIUse=3 WtCom= 9.97D-01 WtEn= 2.61D-03
 Coeff-Com:  0.369D-01 0.963D+00
 Coeff-En:   0.000D+00 0.100D+01
 Coeff:      0.368D-01 0.963D+00
 Gap=     0.225 Goal=   None    Shift=    0.000
 Gap=     0.136 Goal=   None    Shift=    0.000
 RMSDP=2.00D-04 MaxDP=1.97D-03 DE=-1.36D-04 OVMax= 2.01D-03

 Cycle   3  Pass 0  IDiag  1:
 E= -343.650888625056     Delta-E=       -0.000000563234 Rises=F Damp=F
 DIIS: error= 2.13D-04 at cycle   3 NSaved=   3.
 NSaved= 3 IEnMin= 3 EnMin= -343.650888625056     IErMin= 3 ErrMin= 2.13D-04
 ErrMax= 2.13D-04  0.00D+00 EMaxC= 1.00D-01 BMatC= 7.12D-06 BMatP= 7.99D-06
 IDIUse=3 WtCom= 9.98D-01 WtEn= 2.13D-03
 Coeff-Com: -0.979D-02 0.488D+00 0.521D+00
 Coeff-En:   0.000D+00 0.456D+00 0.544D+00
 Coeff:     -0.977D-02 0.488D+00 0.521D+00
 Gap=     0.225 Goal=   None    Shift=    0.000
 Gap=     0.136 Goal=   None    Shift=    0.000
 RMSDP=1.00D-04 MaxDP=8.14D-04 DE=-5.63D-07 OVMax= 1.37D-03

 Cycle   4  Pass 0  IDiag  1:
 E= -343.650891831346     Delta-E=       -0.000003206290 Rises=F Damp=F
 DIIS: error= 3.21D-05 at cycle   4 NSaved=   4.
 NSaved= 4 IEnMin= 4 EnMin= -343.650891831346     IErMin= 4 ErrMin= 3.21D-05
 ErrMax= 3.21D-05  0.00D+00 EMaxC= 1.00D-01 BMatC= 1.91D-07 BMatP= 7.12D-06
 IDIUse=1 WtCom= 1.00D+00 WtEn= 0.00D+00
 Coeff-Com: -0.460D-02 0.139D+00 0.199D+00 0.667D+00
 Coeff:     -0.460D-02 0.139D+00 0.199D+00 0.667D+00
 Gap=     0.225 Goal=   None    Shift=    0.000
 Gap=     0.136 Goal=   None    Shift=    0.000
 RMSDP=1.92D-05 MaxDP=1.92D-04 DE=-3.21D-06 OVMax= 2.32D-04

 Cycle   5  Pass 0  IDiag  1:
 E= -343.650891916720     Delta-E=       -0.000000085374 Rises=F Damp=F
 DIIS: error= 1.35D-05 at cycle   5 NSaved=   5.
 NSaved= 5 IEnMin= 5 EnMin= -343.650891916720     IErMin= 5 ErrMin= 1.35D-05
 ErrMax= 1.35D-05  0.00D+00 EMaxC= 1.00D-01 BMatC= 1.83D-08 BMatP= 1.91D-07
 IDIUse=1 WtCom= 1.00D+00 WtEn= 0.00D+00
 Coeff-Com:  0.440D-03-0.603D-01-0.466D-01 0.163D+00 0.944D+00
 Coeff:      0.440D-03-0.603D-01-0.466D-01 0.163D+00 0.944D+00
 Gap=     0.225 Goal=   None    Shift=    0.000
 Gap=     0.136 Goal=   None    Shift=    0.000
 RMSDP=7.36D-06 MaxDP=7.38D-05 DE=-8.54D-08 OVMax= 1.30D-04

 Initial convergence to 1.0D-05 achieved.  Increase integral accuracy.
 Cycle   6  Pass 1  IDiag  1:
 E= -343.650899149616     Delta-E=       -0.000007232895 Rises=F Damp=F
 DIIS: error= 4.64D-06 at cycle   1 NSaved=   1.
 NSaved= 1 IEnMin= 1 EnMin= -343.650899149616     IErMin= 1 ErrMin= 4.64D-06
 ErrMax= 4.64D-06  0.00D+00 EMaxC= 1.00D-01 BMatC= 4.11D-09 BMatP= 4.11D-09
 IDIUse=1 WtCom= 1.00D+00 WtEn= 0.00D+00
 Coeff-Com:  0.100D+01
 Coeff:      0.100D+01
 Gap=     0.225 Goal=   None    Shift=    0.000
 Gap=     0.136 Goal=   None    Shift=    0.000
 RMSDP=7.36D-06 MaxDP=7.38D-05 DE=-7.23D-06 OVMax= 5.17D-05

 Cycle   7  Pass 1  IDiag  1:
 E= -343.650899150351     Delta-E=       -0.000000000736 Rises=F Damp=F
 DIIS: error= 4.08D-06 at cycle   2 NSaved=   2.
 NSaved= 2 IEnMin= 2 EnMin= -343.650899150351     IErMin= 2 ErrMin= 4.08D-06
 ErrMax= 4.08D-06  0.00D+00 EMaxC= 1.00D-01 BMatC= 2.92D-09 BMatP= 4.11D-09
 IDIUse=1 WtCom= 1.00D+00 WtEn= 0.00D+00
 Coeff-Com:  0.450D+00 0.550D+00
 Coeff:      0.450D+00 0.550D+00
 Gap=     0.225 Goal=   None    Shift=    0.000
 Gap=     0.136 Goal=   None    Shift=    0.000
 RMSDP=2.47D-06 MaxDP=1.98D-05 DE=-7.36D-10 OVMax= 3.89D-05

 Cycle   8  Pass 1  IDiag  1:
 E= -343.650899151742     Delta-E=       -0.000000001391 Rises=F Damp=F
 DIIS: error= 1.25D-06 at cycle   3 NSaved=   3.
 NSaved= 3 IEnMin= 3 EnMin= -343.650899151742     IErMin= 3 ErrMin= 1.25D-06
 ErrMax= 1.25D-06  0.00D+00 EMaxC= 1.00D-01 BMatC= 1.84D-10 BMatP= 2.92D-09
 IDIUse=1 WtCom= 1.00D+00 WtEn= 0.00D+00
 Coeff-Com:  0.620D-02 0.173D+00 0.821D+00
 Coeff:      0.620D-02 0.173D+00 0.821D+00
 Gap=     0.225 Goal=   None    Shift=    0.000
 Gap=     0.136 Goal=   None    Shift=    0.000
 RMSDP=6.80D-07 MaxDP=8.61D-06 DE=-1.39D-09 OVMax= 8.29D-06

 Cycle   9  Pass 1  IDiag  1:
 E= -343.650899151826     Delta-E=       -0.000000000084 Rises=F Damp=F
 DIIS: error= 4.48D-07 at cycle   4 NSaved=   4.
 NSaved= 4 IEnMin= 4 EnMin= -343.650899151826     IErMin= 4 ErrMin= 4.48D-07
 ErrMax= 4.48D-07  0.00D+00 EMaxC= 1.00D-01 BMatC= 3.30D-11 BMatP= 1.84D-10
 IDIUse=1 WtCom= 1.00D+00 WtEn= 0.00D+00
 Coeff-Com: -0.505D-01 0.142D-01 0.350D+00 0.686D+00
 Coeff:     -0.505D-01 0.142D-01 0.350D+00 0.686D+00
 Gap=     0.225 Goal=   None    Shift=    0.000
 Gap=     0.136 Goal=   None    Shift=    0.000
 RMSDP=2.30D-07 MaxDP=2.01D-06 DE=-8.37D-11 OVMax= 3.02D-06

 Cycle  10  Pass 1  IDiag  1:
 E= -343.650899151842     Delta-E=       -0.000000000016 Rises=F Damp=F
 DIIS: error= 1.10D-07 at cycle   5 NSaved=   5.
 NSaved= 5 IEnMin= 5 EnMin= -343.650899151842     IErMin= 5 ErrMin= 1.10D-07
 ErrMax= 1.10D-07  0.00D+00 EMaxC= 1.00D-01 BMatC= 2.15D-12 BMatP= 3.30D-11
 IDIUse=1 WtCom= 1.00D+00 WtEn= 0.00D+00
 Coeff-Com: -0.125D-01-0.196D-01-0.481D-01 0.142D+00 0.938D+00
 Coeff:     -0.125D-01-0.196D-01-0.481D-01 0.142D+00 0.938D+00
 Gap=     0.225 Goal=   None    Shift=    0.000
 Gap=     0.136 Goal=   None    Shift=    0.000
 RMSDP=8.78D-08 MaxDP=1.01D-06 DE=-1.63D-11 OVMax= 8.99D-07

 Cycle  11  Pass 1  IDiag  1:
 E= -343.650899151844     Delta-E=       -0.000000000002 Rises=F Damp=F
 DIIS: error= 4.51D-08 at cycle   6 NSaved=   6.
 NSaved= 6 IEnMin= 6 EnMin= -343.650899151844     IErMin= 6 ErrMin= 4.51D-08
 ErrMax= 4.51D-08  0.00D+00 EMaxC= 1.00D-01 BMatC= 2.58D-13 BMatP= 2.15D-12
 IDIUse=1 WtCom= 1.00D+00 WtEn= 0.00D+00
 Coeff-Com: -0.299D-04-0.813D-02-0.508D-01-0.542D-02 0.354D+00 0.710D+00
 Coeff:     -0.299D-04-0.813D-02-0.508D-01-0.542D-02 0.354D+00 0.710D+00
 Gap=     0.225 Goal=   None    Shift=    0.000
 Gap=     0.136 Goal=   None    Shift=    0.000
 RMSDP=1.92D-08 MaxDP=1.24D-07 DE=-1.76D-12 OVMax= 1.95D-07

 Cycle  12  Pass 1  IDiag  1:
 E= -343.650899151844     Delta-E=       -0.000000000000 Rises=F Damp=F
 DIIS: error= 3.97D-09 at cycle   7 NSaved=   7.
 NSaved= 7 IEnMin= 7 EnMin= -343.650899151844     IErMin= 7 ErrMin= 3.97D-09
 ErrMax= 3.97D-09  0.00D+00 EMaxC= 1.00D-01 BMatC= 1.29D-15 BMatP= 2.58D-13
 IDIUse=1 WtCom= 1.00D+00 WtEn= 0.00D+00
 Coeff-Com:  0.304D-03 0.698D-03 0.253D-02-0.322D-02-0.387D-01-0.277D-01
 Coeff-Com:  0.107D+01
 Coeff:      0.304D-03 0.698D-03 0.253D-02-0.322D-02-0.387D-01-0.277D-01
 Coeff:      0.107D+01
 Gap=     0.225 Goal=   None    Shift=    0.000
 Gap=     0.136 Goal=   None    Shift=    0.000
 RMSDP=2.20D-09 MaxDP=1.38D-08 DE=-1.14D-13 OVMax= 2.38D-08

 SCF Done:  E(UTPSS-TPSS) =  -343.650899152     A.U. after   12 cycles
            NFock= 12  Conv=0.22D-08     -V/T= 2.0021
 <Sx>= 0.0000 <Sy>= 0.0000 <Sz>= 0.5000 <S**2>= 0.7585 S= 0.5043
 <L.S>= 0.000000000000E+00
 KE= 3.429213264427D+02 PE=-8.586069449146D+02 EE= 1.510841520311D+02
 Annihilation of the first spin contaminant:
 S**2 before annihilation     0.7585,   after     0.7500
 Leave Link  502 at Wed Oct  7 13:08:14 2020, MaxMem=  2684354560 cpu:              48.6 elap:               5.5
 (Enter /udrive/faculty/rpeverati/g16/g16/l508.exe)
 QCSCF skips out because SCF is already converged.
 Leave Link  508 at Wed Oct  7 13:08:15 2020, MaxMem=  2684354560 cpu:               0.8 elap:               0.5
 (Enter /udrive/faculty/rpeverati/g16/g16/l701.exe)
 ... and contract with generalized density number  0.
 Compute integral first derivatives.
 R6Disp: Adding Grimme-D3(BJ) dispersion energy 1st derivatives to the gradient.
 Leave Link  701 at Wed Oct  7 13:08:16 2020, MaxMem=  2684354560 cpu:               5.4 elap:               0.9
 (Enter /udrive/faculty/rpeverati/g16/g16/l702.exe)
 L702 exits ... SP integral derivatives will be done elsewhere.
 Leave Link  702 at Wed Oct  7 13:08:17 2020, MaxMem=  2684354560 cpu:               2.1 elap:               0.6
 (Enter /udrive/faculty/rpeverati/g16/g16/l703.exe)
 Integral derivatives from FoFJK, PRISM(SPDF).
 Compute integral first derivatives, UseDBF=F ICtDFT=           0.
 Calling FoFJK, ICntrl=      2527 FMM=F ISym2X=0 I1Cent= 0 IOpClX= 0 NMat=1 NMatS=1 NMatT=0.
 FoFJK:  IHMeth= 1 ICntrl=    2527 DoSepK=F KAlg= 0 I1Cent=           0 FoldK=F
 IRaf=         0 NMat=       1 IRICut=       1 DoRegI=T DoRafI=F ISym2E= 0 IDoP0=0 IntGTp=1.
 FoFCou: FMM=F IPFlag=           0 FMFlag=      100000 FMFlg1=         800
         NFxFlg=           0 DoJE=F BraDBF=F KetDBF=F FulRan=T
         wScrn=  0.000000 ICntrl=      2527 IOpCl=  0 I1Cent=           0 NGrid=           0
         NMat0=    1 NMatS0=      1 NMatT0=    0 NMatD0=    1 NMtDS0=    0 NMtDT0=    0
 Symmetry not used in FoFCou.
 Leave Link  703 at Wed Oct  7 13:08:18 2020, MaxMem=  2684354560 cpu:              10.3 elap:               1.3
 (Enter /udrive/faculty/rpeverati/g16/g16/l716.exe)
 Dipole        = 3.38439311D-02-3.56480836D-03 3.22479784D-01
 ***** Axes restored to original set *****
 -------------------------------------------------------------------
 Center     Atomic                   Forces (Hartrees/Bohr)
 Number     Number              X              Y              Z
 -------------------------------------------------------------------
      1       15           0.007088004    0.000408759   -0.004522084
      2        1          -0.000198018    0.001593481    0.002048362
      3        1          -0.000427440   -0.001553787    0.001919078
      4        1          -0.011276502   -0.001233013    0.001761253
      5        1           0.004813955    0.000784560   -0.001206609
 -------------------------------------------------------------------
 Cartesian Forces:  Max     0.011276502 RMS     0.004007805
 Leave Link  716 at Wed Oct  7 13:08:20 2020, MaxMem=  2684354560 cpu:               2.4 elap:               0.9
 (Enter /udrive/faculty/rpeverati/g16/g16/l103.exe)

 GradGradGradGradGradGradGradGradGradGradGradGradGradGradGradGradGradGrad
 Berny optimization.
 Optmz: redundant internal coordinate code flag= 1
 Red2BG:  D1=  1.71D-01 OD1=  4.82D-02 B2RMS=  0.00D+00 IAprox=0
 FormGI is forming the generalized inverse of G from B-inverse, IUseBI=4.
 Internal  Forces:  Max     0.006474949 RMS     0.002876032
 Search for a saddle point.
 Step number   2 out of a maximum of   50
 All quantities printed in internal units (Hartrees-Bohrs-Radians)
 Swapping is turned off.
 Update second derivatives using D2CorX and points    1    2
 The second derivative matrix:
                          R1        R2        R3        R4        A1
           R1           0.21284
           R2           0.00001   0.21292
           R3          -0.00093  -0.00087   0.17210
           R4           0.00150   0.00147   0.00438   0.09023
           A1           0.00018   0.00017   0.00064  -0.00077   0.15989
           A2           0.00001  -0.00000   0.00035  -0.00056  -0.00007
           A3           0.00038   0.00038   0.00089  -0.00085  -0.00015
           A4           0.00031   0.00071  -0.00677   0.01181   0.00129
           A5           0.00016   0.00075  -0.01046   0.01773   0.00199
           D1           0.00012   0.00015  -0.00023   0.00059   0.00005
                          A2        A3        A4        A5        D1
           A2           0.15999
           A3          -0.00014   0.15987
           A4          -0.00011   0.00309   0.00986
           A5          -0.00005   0.00456   0.00863   0.01136
           D1          -0.00005   0.00018   0.00138   0.00186   0.00245
 ITU=  0  0
 Eigenvectors of the second derivative matrix:
                           1         2         3         4         5
     Eigenvalues --     0.00171   0.01234   0.08074   0.09610   0.15989
   1         R1         0.00093   0.00075  -0.00110   0.01313  -0.00484
   2         R2         0.00017  -0.00263  -0.00100   0.01450  -0.00491
   3         R3         0.01994   0.07960  -0.00659   0.01151  -0.03672
   4         R4        -0.05846  -0.25918   0.05597  -0.96164  -0.00825
   5         A1        -0.00158  -0.00338   0.70290   0.04249  -0.06380
   6         A2        -0.00037   0.00014   0.03214  -0.00693   0.79133
   7         A3        -0.00837  -0.03616   0.03316   0.01199   0.60637
   8         A4        -0.67435   0.72052   0.01285  -0.15382   0.01348
   9         A5         0.73578   0.63718   0.02019  -0.21738   0.01986
  10         D1         0.00197   0.00498  -0.70714  -0.04279   0.00150
                           6         7         8         9
     Eigenvalues --     0.16019   0.17318   0.21286   0.21300
   1         R1         0.00596   0.02243   0.88993  -0.45529
   2         R2         0.00662   0.02213  -0.45595  -0.88957
   3         R3         0.00922   0.99531  -0.01016   0.03020
   4         R4        -0.00445   0.03368   0.00511  -0.01675
   5         A1         0.00940   0.00201  -0.00001   0.00039
   6         A2         0.60922   0.02382   0.00006   0.00058
   7         A3        -0.79216   0.03317   0.00277  -0.00957
   8         A4        -0.01889  -0.04138   0.00043  -0.00625
   9         A5        -0.02661  -0.06186   0.00009  -0.00720
  10         D1        -0.00167  -0.00456  -0.00011   0.00000
 Eigenvalue     1 is   1.71D-03 should be less than     0.000000 Eigenvector:
                          A5        A4        R4        R3        A3
   1                    0.73578  -0.67435  -0.05846   0.01994  -0.00837
                          D1        A1        R1        A2        R2
   1                    0.00197  -0.00158   0.00093  -0.00037   0.00017
 RLam0= 1.72D-03.
 Iter=   1 RLamda= 0.00000000D+00 Sum=-6.69599043D-04.
 Iter=   2 RLamda=-6.69599043D-04 Sum=-6.62503305D-04.
 Iter=   3 RLamda=-6.62503305D-04 Sum=-6.62576184D-04.
 Iter=   4 RLamda=-6.62576184D-04 Sum=-6.62575435D-04.
 RFO step:  Lambda0=1.716316183D-03 Lambda=-6.62576184D-04.
 Linear search not attempted -- option 19 set.
 Maximum step size (   0.100) exceeded in Quadratic search.
    -- Step size scaled by   0.698
 Iteration  1 RMS(Cart)=  0.03210134 RMS(Int)=  0.00100252
 Iteration  2 RMS(Cart)=  0.00094658 RMS(Int)=  0.00000673
 Iteration  3 RMS(Cart)=  0.00000094 RMS(Int)=  0.00000670
 ITry= 1 IFail=0 DXMaxC= 5.49D-02 DCOld= 1.00D+10 DXMaxT= 1.00D-01 DXLimC= 3.00D+00 Rises=F
 Variable       Old X    -DE/DX   Delta X   Delta X   Delta X     New X
                                 (Linear)    (Quad)   (Total)
    R1        2.67870   0.00251   0.00000   0.00871   0.00871   2.68741
    R2        2.67877   0.00245   0.00000   0.00830   0.00830   2.68707
    R3        2.82159   0.00647   0.00000   0.03159   0.03159   2.85318
    R4        2.37263  -0.00499   0.00000  -0.05293  -0.05293   2.31970
    A1        1.62899  -0.00039   0.00000  -0.00442  -0.00443   1.62456
    A2        1.61248  -0.00068   0.00000  -0.00325  -0.00325   1.60923
    A3        1.61311  -0.00126   0.00000  -0.00786  -0.00786   1.60525
    A4        3.01589  -0.00033   0.00000  -0.01718  -0.01718   2.99871
    A5        3.41975  -0.00101   0.00000   0.07529   0.07529   3.49504
    D1       -1.63086   0.00048   0.00000   0.00492   0.00491  -1.62596
         Item               Value     Threshold  Converged?
 Maximum Force            0.006475     0.000450     NO 
 RMS     Force            0.002876     0.000300     NO 
 Maximum Displacement     0.054868     0.001800     NO 
 RMS     Displacement     0.032202     0.001200     NO 
 Predicted change in Energy=-2.922483D-04
 Lowest energy point so far.  Saving SCF results.
 Largest change from initial coordinates is atom    4       0.039 Angstoms.
 GradGradGradGradGradGradGradGradGradGradGradGradGradGradGradGradGradGrad

 Leave Link  103 at Wed Oct  7 13:08:21 2020, MaxMem=  2684354560 cpu:               2.3 elap:               0.7
 (Enter /udrive/faculty/rpeverati/g16/g16/l202.exe)
                          Input orientation:                          
 ---------------------------------------------------------------------
 Center     Atomic      Atomic             Coordinates (Angstroms)
 Number     Number       Type             X           Y           Z
 ---------------------------------------------------------------------
      1         15           0        0.224933   -0.000048   -0.116899
      2          1           0        0.273892    1.039288    0.852535
      3          1           0        0.213344   -1.024130    0.869523
      4          1           0       -1.283504    0.039655   -0.168378
      5          1           0       -2.472669   -0.055990    0.120707
 ---------------------------------------------------------------------
                    Distance matrix (angstroms):
                    1          2          3          4          5
     1  P    0.000000
     2  H    1.422118   0.000000
     3  H    1.421938   2.064376   0.000000
     4  H    1.509837   2.113531   2.109367   0.000000
     5  H    2.708624   3.046113   2.951727   1.227531   0.000000
 Stoichiometry    H4P(2)
 Framework group  C1[X(H4P)]
 Deg. of freedom     9
 Full point group                 C1      NOp   1
 RotChk:  IX=3 Diff= 2.41D-02
 Largest Abelian subgroup         C1      NOp   1
 Largest concise Abelian subgroup C1      NOp   1
                         Standard orientation:                         
 ---------------------------------------------------------------------
 Center     Atomic      Atomic             Coordinates (Angstroms)
 Number     Number       Type             X           Y           Z
 ---------------------------------------------------------------------
      1         15           0        0.220277   -0.000566   -0.111018
      2          1           0        0.285656    0.996600    0.900814
      3          1           0        0.176288   -1.063734    0.832193
      4          1           0       -1.286320    0.077294   -0.171931
      5          1           0       -2.479784   -0.001667    0.104189
 ---------------------------------------------------------------------
 Rotational constants (GHZ):         126.6308285          46.0158940          44.7771327
 Leave Link  202 at Wed Oct  7 13:08:22 2020, MaxMem=  2684354560 cpu:               1.5 elap:               0.6
 (Enter /udrive/faculty/rpeverati/g16/g16/l301.exe)
 Standard basis: 6-31G(d) (5D, 7F)
 Ernie: Thresh=  0.10000D-02 Tol=  0.10000D-05 Strict=F.
 There are    27 symmetry adapted cartesian basis functions of A   symmetry.
 There are    26 symmetry adapted basis functions of A   symmetry.
    26 basis functions,    68 primitive gaussians,    27 cartesian basis functions
    10 alpha electrons        9 beta electrons
       nuclear repulsion energy        20.8933414513 Hartrees.
 IExCor= 2523 DFT=T Ex=TPSS Corr=TPSS ExCW=0 ScaHFX=  0.000000
 ScaDFX=  1.000000  1.000000  1.000000  1.000000 ScalE2=  1.000000  1.000000
 IRadAn=      5 IRanWt=     -1 IRanGd=            0 ICorTp=0 IEmpDi=141
 NAtoms=    5 NActive=    5 NUniq=    5 SFac= 1.00D+00 NAtFMM=   60 NAOKFM=F Big=F
 Integral buffers will be    131072 words long.
 Raffenetti 2 integral format.
 Two-electron integral symmetry is turned on.
 R6Disp:  Grimme-D3(BJ) Dispersion energy=       -0.0026589823 Hartrees.
 Nuclear repulsion after empirical dispersion term =       20.8906824690 Hartrees.
 Leave Link  301 at Wed Oct  7 13:08:22 2020, MaxMem=  2684354560 cpu:               1.6 elap:               0.6
 (Enter /udrive/faculty/rpeverati/g16/g16/l302.exe)
 NPDir=0 NMtPBC=     1 NCelOv=     1 NCel=       1 NClECP=     1 NCelD=      1
         NCelK=      1 NCelE2=     1 NClLst=     1 CellRange=     0.0.
 One-electron integrals computed using PRISM.
 One-electron integral symmetry used in STVInt
 NBasis=    26 RedAO= T EigKep=  1.32D-02  NBF=    26
 NBsUse=    26 1.00D-06 EigRej= -1.00D+00 NBFU=    26
 Precomputing XC quadrature grid using
 IXCGrd= 4 IRadAn=           5 IRanWt=          -1 IRanGd=           0 AccXCQ= 0.00D+00.
 Generated NRdTot=       0 NPtTot=           0 NUsed=           0 NTot=          32
 NSgBfM=    27    27    27    27    27 MxSgAt=     5 MxSgA2=     5.
 Leave Link  302 at Wed Oct  7 13:08:24 2020, MaxMem=  2684354560 cpu:               6.5 elap:               1.3
 (Enter /udrive/faculty/rpeverati/g16/g16/l303.exe)
 DipDrv:  MaxL=1.
 Leave Link  303 at Wed Oct  7 13:08:25 2020, MaxMem=  2684354560 cpu:               3.5 elap:               1.0
 (Enter /udrive/faculty/rpeverati/g16/g16/l401.exe)
 Initial guess from the checkpoint file:  "MN_88_RKT12_BH76_TPSSDBJ_631Gs.chk"
 SCF N**3 symmetry information disabled.
 B after Tr=    -0.000000   -0.000000   -0.000000
         Rot=    0.999964   -0.006416    0.003700    0.004238 Ang=  -0.98 deg.
 Guess basis will be translated and rotated to current coordinates.
 JPrj=2 DoOrth=T DoCkMO=T.
 Initial guess <Sx>= 0.0000 <Sy>= 0.0000 <Sz>= 0.5000 <S**2>= 0.7585 S= 0.5043
 Generating alternative initial guess.
 ExpMin= 9.98D-02 ExpMax= 1.94D+04 ExpMxC= 2.91D+03 IAcc=2 IRadAn=         4 AccDes= 0.00D+00
 Harris functional with IExCor= 1009 and IRadAn=       4 diagonalized for initial guess.
 HarFok:  IExCor= 1009 AccDes= 0.00D+00 IRadAn=         4 IDoV= 1 UseB2=F ITyADJ=14
 ICtDFT=  3500011 ScaDFX=  1.000000  1.000000  1.000000  1.000000
 FoFCou: FMM=F IPFlag=           0 FMFlag=      100000 FMFlg1=           0
         NFxFlg=           0 DoJE=T BraDBF=F KetDBF=T FulRan=T
         wScrn=  0.000000 ICntrl=       500 IOpCl=  0 I1Cent=   200000004 NGrid=           0
         NMat0=    1 NMatS0=      1 NMatT0=    0 NMatD0=    1 NMtDS0=    0 NMtDT0=    0
 Petite list used in FoFCou.
 Harris En= -343.408568608923    
 Leave Link  401 at Wed Oct  7 13:08:27 2020, MaxMem=  2684354560 cpu:              11.9 elap:               1.6
 (Enter /udrive/faculty/rpeverati/g16/g16/l502.exe)
 Keep J ints in memory in canonical form, NReq=10417602.
 FoFCou: FMM=F IPFlag=           0 FMFlag=           0 FMFlg1=           0
         NFxFlg=           0 DoJE=F BraDBF=F KetDBF=F FulRan=T
         wScrn=  0.000000 ICntrl=       600 IOpCl=  0 I1Cent=           0 NGrid=           0
         NMat0=    1 NMatS0=    351 NMatT0=    0 NMatD0=    1 NMtDS0=    0 NMtDT0=    0
 Symmetry not used in FoFCou.
 Two-electron integral symmetry not used.
 UHF open shell SCF:
 Using DIIS extrapolation, IDIIS=  1040.
 NGot=  2684354560 LenX=  2684290484 LenY=  2684289314
 Requested convergence on RMS density matrix=1.00D-08 within 120 cycles.
 Requested convergence on MAX density matrix=1.00D-06.
 Requested convergence on             energy=1.00D-06.
 No special actions if energy rises.
 Integral accuracy reduced to 1.0D-05 until final iterations.

 Cycle   1  Pass 0  IDiag  1:
 E= -343.651082018876    
 DIIS: error= 1.82D-03 at cycle   1 NSaved=   1.
 NSaved= 1 IEnMin= 1 EnMin= -343.651082018876     IErMin= 1 ErrMin= 1.82D-03
 ErrMax= 1.82D-03  0.00D+00 EMaxC= 1.00D-01 BMatC= 2.75D-04 BMatP= 2.75D-04
 IDIUse=3 WtCom= 9.82D-01 WtEn= 1.82D-02
 Coeff-Com:  0.100D+01
 Coeff-En:   0.100D+01
 Coeff:      0.100D+01
 Gap=     0.459 Goal=   None    Shift=    0.000
 Gap=     0.395 Goal=   None    Shift=    0.000
 GapD=    0.395 DampG=1.000 DampE=1.000 DampFc=1.0000 IDamp=-1.
 RMSDP=9.67D-04 MaxDP=6.40D-03              OVMax= 1.32D-02

 Cycle   2  Pass 0  IDiag  1:
 E= -343.651285861078     Delta-E=       -0.000203842202 Rises=F Damp=F
 DIIS: error= 6.25D-04 at cycle   2 NSaved=   2.
 NSaved= 2 IEnMin= 2 EnMin= -343.651285861078     IErMin= 2 ErrMin= 6.25D-04
 ErrMax= 6.25D-04  0.00D+00 EMaxC= 1.00D-01 BMatC= 2.84D-05 BMatP= 2.75D-04
 IDIUse=3 WtCom= 9.94D-01 WtEn= 6.25D-03
 Coeff-Com:  0.101D+00 0.899D+00
 Coeff-En:   0.000D+00 0.100D+01
 Coeff:      0.100D+00 0.900D+00
 Gap=     0.221 Goal=   None    Shift=    0.000
 Gap=     0.139 Goal=   None    Shift=    0.000
 RMSDP=3.72D-04 MaxDP=4.01D-03 DE=-2.04D-04 OVMax= 3.94D-03

 Cycle   3  Pass 0  IDiag  1:
 E= -343.651290535088     Delta-E=       -0.000004674010 Rises=F Damp=F
 DIIS: error= 4.05D-04 at cycle   3 NSaved=   3.
 NSaved= 3 IEnMin= 3 EnMin= -343.651290535088     IErMin= 3 ErrMin= 4.05D-04
 ErrMax= 4.05D-04  0.00D+00 EMaxC= 1.00D-01 BMatC= 2.11D-05 BMatP= 2.84D-05
 IDIUse=3 WtCom= 9.96D-01 WtEn= 4.05D-03
 Coeff-Com: -0.226D-01 0.465D+00 0.557D+00
 Coeff-En:   0.000D+00 0.385D+00 0.615D+00
 Coeff:     -0.225D-01 0.465D+00 0.557D+00
 Gap=     0.221 Goal=   None    Shift=    0.000
 Gap=     0.138 Goal=   None    Shift=    0.000
 RMSDP=1.67D-04 MaxDP=1.46D-03 DE=-4.67D-06 OVMax= 2.32D-03

 Cycle   4  Pass 0  IDiag  1:
 E= -343.651300061168     Delta-E=       -0.000009526080 Rises=F Damp=F
 DIIS: error= 7.31D-05 at cycle   4 NSaved=   4.
 NSaved= 4 IEnMin= 4 EnMin= -343.651300061168     IErMin= 4 ErrMin= 7.31D-05
 ErrMax= 7.31D-05  0.00D+00 EMaxC= 1.00D-01 BMatC= 7.48D-07 BMatP= 2.11D-05
 IDIUse=1 WtCom= 1.00D+00 WtEn= 0.00D+00
 Coeff-Com: -0.922D-02 0.104D+00 0.197D+00 0.708D+00
 Coeff:     -0.922D-02 0.104D+00 0.197D+00 0.708D+00
 Gap=     0.221 Goal=   None    Shift=    0.000
 Gap=     0.138 Goal=   None    Shift=    0.000
 RMSDP=4.06D-05 MaxDP=4.35D-04 DE=-9.53D-06 OVMax= 5.65D-04

 Cycle   5  Pass 0  IDiag  1:
 E= -343.651300420660     Delta-E=       -0.000000359492 Rises=F Damp=F
 DIIS: error= 3.07D-05 at cycle   5 NSaved=   5.
 NSaved= 5 IEnMin= 5 EnMin= -343.651300420660     IErMin= 5 ErrMin= 3.07D-05
 ErrMax= 3.07D-05  0.00D+00 EMaxC= 1.00D-01 BMatC= 8.10D-08 BMatP= 7.48D-07
 IDIUse=1 WtCom= 1.00D+00 WtEn= 0.00D+00
 Coeff-Com:  0.168D-02-0.785D-01-0.640D-01 0.153D+00 0.987D+00
 Coeff:      0.168D-02-0.785D-01-0.640D-01 0.153D+00 0.987D+00
 Gap=     0.221 Goal=   None    Shift=    0.000
 Gap=     0.138 Goal=   None    Shift=    0.000
 RMSDP=1.86D-05 MaxDP=1.89D-04 DE=-3.59D-07 OVMax= 3.51D-04

 Cycle   6  Pass 0  IDiag  1:
 E= -343.651300478078     Delta-E=       -0.000000057418 Rises=F Damp=F
 DIIS: error= 8.24D-06 at cycle   6 NSaved=   6.
 NSaved= 6 IEnMin= 6 EnMin= -343.651300478078     IErMin= 6 ErrMin= 8.24D-06
 ErrMax= 8.24D-06  0.00D+00 EMaxC= 1.00D-01 BMatC= 9.83D-09 BMatP= 8.10D-08
 IDIUse=1 WtCom= 1.00D+00 WtEn= 0.00D+00
 Coeff-Com:  0.180D-02-0.353D-01-0.350D-01-0.315D-02 0.374D+00 0.697D+00
 Coeff:      0.180D-02-0.353D-01-0.350D-01-0.315D-02 0.374D+00 0.697D+00
 Gap=     0.221 Goal=   None    Shift=    0.000
 Gap=     0.138 Goal=   None    Shift=    0.000
 RMSDP=5.53D-06 MaxDP=5.10D-05 DE=-5.74D-08 OVMax= 7.20D-05

 Initial convergence to 1.0D-05 achieved.  Increase integral accuracy.
 Cycle   7  Pass 1  IDiag  1:
 E= -343.651305741326     Delta-E=       -0.000005263247 Rises=F Damp=F
 DIIS: error= 3.31D-06 at cycle   1 NSaved=   1.
 NSaved= 1 IEnMin= 1 EnMin= -343.651305741326     IErMin= 1 ErrMin= 3.31D-06
 ErrMax= 3.31D-06  0.00D+00 EMaxC= 1.00D-01 BMatC= 1.72D-09 BMatP= 1.72D-09
 IDIUse=1 WtCom= 1.00D+00 WtEn= 0.00D+00
 Coeff-Com:  0.100D+01
 Coeff:      0.100D+01
 Gap=     0.221 Goal=   None    Shift=    0.000
 Gap=     0.138 Goal=   None    Shift=    0.000
 RMSDP=5.53D-06 MaxDP=5.10D-05 DE=-5.26D-06 OVMax= 1.45D-05

 Cycle   8  Pass 1  IDiag  1:
 E= -343.651305742103     Delta-E=       -0.000000000778 Rises=F Damp=F
 DIIS: error= 1.28D-06 at cycle   2 NSaved=   2.
 NSaved= 2 IEnMin= 2 EnMin= -343.651305742103     IErMin= 2 ErrMin= 1.28D-06
 ErrMax= 1.28D-06  0.00D+00 EMaxC= 1.00D-01 BMatC= 2.33D-10 BMatP= 1.72D-09
 IDIUse=1 WtCom= 1.00D+00 WtEn= 0.00D+00
 Coeff-Com:  0.187D+00 0.813D+00
 Coeff:      0.187D+00 0.813D+00
 Gap=     0.221 Goal=   None    Shift=    0.000
 Gap=     0.138 Goal=   None    Shift=    0.000
 RMSDP=7.84D-07 MaxDP=5.07D-06 DE=-7.78D-10 OVMax= 8.46D-06

 Cycle   9  Pass 1  IDiag  1:
 E= -343.651305742184     Delta-E=       -0.000000000081 Rises=F Damp=F
 DIIS: error= 6.11D-07 at cycle   3 NSaved=   3.
 NSaved= 3 IEnMin= 3 EnMin= -343.651305742184     IErMin= 3 ErrMin= 6.11D-07
 ErrMax= 6.11D-07  0.00D+00 EMaxC= 1.00D-01 BMatC= 6.38D-11 BMatP= 2.33D-10
 IDIUse=1 WtCom= 1.00D+00 WtEn= 0.00D+00
 Coeff-Com: -0.157D-01 0.323D+00 0.693D+00
 Coeff:     -0.157D-01 0.323D+00 0.693D+00
 Gap=     0.221 Goal=   None    Shift=    0.000
 Gap=     0.138 Goal=   None    Shift=    0.000
 RMSDP=3.31D-07 MaxDP=2.18D-06 DE=-8.09D-11 OVMax= 4.25D-06

 Cycle  10  Pass 1  IDiag  1:
 E= -343.651305742215     Delta-E=       -0.000000000031 Rises=F Damp=F
 DIIS: error= 1.43D-07 at cycle   4 NSaved=   4.
 NSaved= 4 IEnMin= 4 EnMin= -343.651305742215     IErMin= 4 ErrMin= 1.43D-07
 ErrMax= 1.43D-07  0.00D+00 EMaxC= 1.00D-01 BMatC= 2.44D-12 BMatP= 6.38D-11
 IDIUse=1 WtCom= 1.00D+00 WtEn= 0.00D+00
 Coeff-Com: -0.148D-01 0.161D-01 0.152D+00 0.847D+00
 Coeff:     -0.148D-01 0.161D-01 0.152D+00 0.847D+00
 Gap=     0.221 Goal=   None    Shift=    0.000
 Gap=     0.138 Goal=   None    Shift=    0.000
 RMSDP=7.07D-08 MaxDP=6.81D-07 DE=-3.09D-11 OVMax= 8.81D-07

 Cycle  11  Pass 1  IDiag  1:
 E= -343.651305742216     Delta-E=       -0.000000000001 Rises=F Damp=F
 DIIS: error= 5.89D-08 at cycle   5 NSaved=   5.
 NSaved= 5 IEnMin= 5 EnMin= -343.651305742216     IErMin= 5 ErrMin= 5.89D-08
 ErrMax= 5.89D-08  0.00D+00 EMaxC= 1.00D-01 BMatC= 5.06D-13 BMatP= 2.44D-12
 IDIUse=1 WtCom= 1.00D+00 WtEn= 0.00D+00
 Coeff-Com: -0.317D-02-0.427D-01-0.491D-01 0.293D+00 0.802D+00
 Coeff:     -0.317D-02-0.427D-01-0.491D-01 0.293D+00 0.802D+00
 Gap=     0.221 Goal=   None    Shift=    0.000
 Gap=     0.138 Goal=   None    Shift=    0.000
 RMSDP=4.25D-08 MaxDP=5.58D-07 DE=-6.82D-13 OVMax= 5.28D-07

 Cycle  12  Pass 1  IDiag  1:
 E= -343.651305742217     Delta-E=       -0.000000000001 Rises=F Damp=F
 DIIS: error= 2.62D-08 at cycle   6 NSaved=   6.
 NSaved= 6 IEnMin= 6 EnMin= -343.651305742217     IErMin= 6 ErrMin= 2.62D-08
 ErrMax= 2.62D-08  0.00D+00 EMaxC= 1.00D-01 BMatC= 9.02D-14 BMatP= 5.06D-13
 IDIUse=1 WtCom= 1.00D+00 WtEn= 0.00D+00
 Coeff-Com: -0.240D-03-0.224D-01-0.387D-01 0.607D-01 0.382D+00 0.619D+00
 Coeff:     -0.240D-03-0.224D-01-0.387D-01 0.607D-01 0.382D+00 0.619D+00
 Gap=     0.221 Goal=   None    Shift=    0.000
 Gap=     0.138 Goal=   None    Shift=    0.000
 RMSDP=1.30D-08 MaxDP=1.33D-07 DE=-8.53D-13 OVMax= 2.46D-07

 Cycle  13  Pass 1  IDiag  1:
 E= -343.651305742217     Delta-E=       -0.000000000000 Rises=F Damp=F
 DIIS: error= 6.30D-09 at cycle   7 NSaved=   7.
 NSaved= 7 IEnMin= 7 EnMin= -343.651305742217     IErMin= 7 ErrMin= 6.30D-09
 ErrMax= 6.30D-09  0.00D+00 EMaxC= 1.00D-01 BMatC= 4.65D-15 BMatP= 9.02D-14
 IDIUse=1 WtCom= 1.00D+00 WtEn= 0.00D+00
 Coeff-Com:  0.239D-03-0.188D-02-0.671D-02-0.154D-01 0.181D-01 0.198D+00
 Coeff-Com:  0.807D+00
 Coeff:      0.239D-03-0.188D-02-0.671D-02-0.154D-01 0.181D-01 0.198D+00
 Coeff:      0.807D+00
 Gap=     0.221 Goal=   None    Shift=    0.000
 Gap=     0.138 Goal=   None    Shift=    0.000
 RMSDP=3.33D-09 MaxDP=3.22D-08 DE=-5.68D-14 OVMax= 4.66D-08

 SCF Done:  E(UTPSS-TPSS) =  -343.651305742     A.U. after   13 cycles
            NFock= 13  Conv=0.33D-08     -V/T= 2.0022
 <Sx>= 0.0000 <Sy>= 0.0000 <Sz>= 0.5000 <S**2>= 0.7597 S= 0.5048
 <L.S>= 0.000000000000E+00
 KE= 3.429051510287D+02 PE=-8.584680763354D+02 EE= 1.510209370955D+02
 Annihilation of the first spin contaminant:
 S**2 before annihilation     0.7597,   after     0.7500
 Leave Link  502 at Wed Oct  7 13:08:31 2020, MaxMem=  2684354560 cpu:              34.3 elap:               3.6
 (Enter /udrive/faculty/rpeverati/g16/g16/l508.exe)
 QCSCF skips out because SCF is already converged.
[...]
     13 6                                                              55       6                               4          8         
 
     XX X                                                              XX       X                               X          X         
     XX X                                                              XX                                       X          X         
     XX X                                                              XX                                                  X         
     XX X                                                                                                                            
     XX X                                                                                                                            
     XX X                                                                                                                            
     XX X                                                                                                                            
     XX X                                                                                                                            
     XX X                                                                                                                            
     XX X                                                                                                                            
     XX X                                                                                                                            
     XX X                                                                                                                            
     XX X                                                                                                                            
     X                                                                                                                               
     X                                                                                                                               
     X                                                                                                                               
     X                                                                                                                               
     X                                                                                                                               
     X                                                                                                                               
     X                                                                                                                               
 
 ***** Axes restored to original set *****
 -------------------------------------------------------------------
 Center     Atomic                   Forces (Hartrees/Bohr)
 Number     Number              X              Y              Z
 -------------------------------------------------------------------
      1       15          -0.000002554    0.000000035   -0.000003766
      2        1           0.000002444   -0.000000068   -0.000002710
      3        1           0.000002375    0.000000052   -0.000002811
      4        1          -0.000003753   -0.000000102    0.000001801
      5        1           0.000001488    0.000000084    0.000007485
 -------------------------------------------------------------------
 Cartesian Forces:  Max     0.000007485 RMS     0.000002865
 Force constants in Cartesian coordinates: 
                1             2             3             4             5 
      1  0.234157D+00
      2  0.794471D-04  0.257556D+00
      3  0.577317D-02 -0.591477D-04  0.252263D+00
      4 -0.352970D-01  0.593830D-01  0.433870D-01  0.344372D-01
      5  0.343775D-01 -0.117754D+00 -0.767020D-01 -0.387732D-01  0.132386D+00
      6  0.269527D-01 -0.901857D-01 -0.976837D-01 -0.290014D-01  0.881573D-01
      7 -0.354644D-01 -0.586309D-01  0.447263D-01 -0.100409D-02  0.484682D-02
      8 -0.339648D-01 -0.114183D+00  0.769604D-01 -0.492320D-02 -0.141406D-01
      9  0.278108D-01  0.904742D-01 -0.101086D+00 -0.255107D-02 -0.107933D-01
     10 -0.159753D+00 -0.832298D-03 -0.936163D-01  0.228841D-02 -0.440337D-03
     11 -0.536419D-03 -0.258511D-01 -0.201790D-03 -0.154038D-01 -0.323135D-03
     12 -0.645453D-01 -0.227954D-03 -0.539492D-01 -0.116509D-01 -0.498943D-03
     13 -0.364249D-02  0.000000D+00 -0.270193D-03 -0.424554D-03 -0.107432D-04
     14  0.442591D-04  0.231914D-03  0.251486D-05 -0.282808D-03 -0.169027D-03
     15  0.400870D-02 -0.131577D-05  0.456398D-03 -0.183657D-03 -0.163126D-03
                6             7             8             9            10 
      6  0.981251D-01
      7 -0.263066D-02  0.345757D-01
      8  0.112613D-01  0.383457D-01  0.128647D+00
      9  0.861923D-02 -0.299455D-01 -0.887271D-01  0.101726D+00
     10  0.425788D-02  0.231681D-02  0.522501D-03  0.426466D-02  0.155878D+00
     11 -0.929271D-02  0.151589D-01 -0.155686D-03  0.910573D-02  0.770246D-03
     12 -0.894834D-02 -0.119611D-01  0.340880D-03 -0.914409D-02  0.871116D-01
     13  0.421525D-03 -0.424047D-03  0.197874D-04  0.421113D-03 -0.729402D-03
     14  0.598534D-04  0.279471D-03 -0.167443D-03 -0.594858D-04 -0.201113D-04
     15 -0.112337D-03 -0.189077D-03  0.164580D-03 -0.114462D-03 -0.201788D-02
               11            12            13            14            15 
     11  0.266035D-01
     12  0.388184D-03  0.724360D-01
     13  0.110480D-04  0.104564D-02  0.522049D-02
     14 -0.273618D-03 -0.216615D-05 -0.208104D-04  0.378175D-03
     15  0.000000D+00 -0.394387D-03 -0.161809D-02  0.000000D+00  0.164789D-03
 FormGI is forming the generalized inverse of G from B-inverse, IUseBI=4.
 Force constants in internal coordinates: 
                1             2             3             4             5 
      1  0.217757D+00
      2 -0.287150D-03  0.217716D+00
      3 -0.385375D-03 -0.390147D-03  0.210800D+00
      4 -0.647664D-03 -0.383461D-03  0.513013D-02  0.472930D-02
      5  0.420365D-02  0.423131D-02  0.155402D-02  0.333000D-03  0.435912D-01
      6  0.905439D-02  0.298854D-02  0.109797D-01  0.778888D-03 -0.139128D-01
      7  0.303193D-02  0.933024D-02  0.107908D-01  0.225726D-04 -0.128945D-01
      8 -0.724933D-03 -0.413949D-03 -0.105308D-03  0.724725D-02  0.618006D-03
      9  0.227977D-03  0.144316D-03  0.348105D-03 -0.420273D-02 -0.191592D-02
     10 -0.508663D-02 -0.513100D-02 -0.311592D-02 -0.391809D-03 -0.418839D-01
                6             7             8             9            10 
      6  0.170831D+00
      7 -0.947593D-02  0.169741D+00
      8  0.482621D-02  0.159065D-02  0.882683D-02
      9  0.278144D-03 -0.339607D-02 -0.178901D-02  0.659296D-02
     10  0.245708D-02  0.151210D-02 -0.107914D-02  0.214764D-02  0.417992D-01
 Leave Link  716 at Wed Oct  7 13:18:05 2020, MaxMem=  2684354560 cpu:               6.3 elap:               1.1
 (Enter /udrive/faculty/rpeverati/g16/g16/l103.exe)

 GradGradGradGradGradGradGradGradGradGradGradGradGradGradGradGradGradGrad
 Berny optimization.
 Optmz: redundant internal coordinate code flag= 1
 Red2BG:  D1=  9.41D-02 OD1=  7.60D-16 B2RMS=  0.00D+00 IAprox=1
 Red2BG is reusing G-inverse.
 Internal  Forces:  Max     0.000001095 RMS     0.000000456
 Search for a local minimum.
 Step number   1 out of a maximum of    2
 All quantities printed in internal units (Hartrees-Bohrs-Radians)
 Second derivative matrix not updated -- analytic derivatives used.
 The second derivative matrix:
                          R1        R2        R3        R4        A1
           R1           0.21776
           R2          -0.00029   0.21772
           R3          -0.00039  -0.00039   0.21080
           R4          -0.00065  -0.00038   0.00513   0.00473
           A1           0.00420   0.00423   0.00155   0.00033   0.04359
           A2           0.00905   0.00299   0.01098   0.00078  -0.01391
           A3           0.00303   0.00933   0.01079   0.00002  -0.01289
           A4          -0.00072  -0.00041  -0.00011   0.00725   0.00062
           A5           0.00023   0.00014   0.00035  -0.00420  -0.00192
           D1          -0.00509  -0.00513  -0.00312  -0.00039  -0.04188
                          A2        A3        A4        A5        D1
           A2           0.17083
           A3          -0.00948   0.16974
           A4           0.00483   0.00159   0.00883
           A5           0.00028  -0.00340  -0.00179   0.00659
           D1           0.00246   0.00151  -0.00108   0.00215   0.04180
 ITU=  0
 Eigenvectors of the second derivative matrix:
                           1         2         3         4         5
     Eigenvalues --    -0.00164   0.00549   0.01574   0.08055   0.15896
   1         R1        -0.00096   0.00037  -0.00775  -0.05952   0.10914
   2         R2        -0.00111  -0.00080  -0.00553  -0.05970   0.11731
   3         R3        -0.02178  -0.00123   0.01125  -0.04946   0.26209
   4         R4         0.80059  -0.01492  -0.59839   0.01128   0.00388
   5         A1         0.01112   0.01680   0.02747   0.67573   0.20298
   6         A2         0.01352  -0.01346   0.02792   0.14983  -0.62539
   7         A3         0.01393   0.01386   0.01995   0.13739  -0.67837
   8         A4        -0.51193   0.50063  -0.69662   0.03277  -0.02664
   9         A5         0.30957   0.86499   0.39185  -0.04553   0.01094
  10         D1        -0.01313  -0.01690  -0.03102  -0.69945  -0.11085
                           6         7         8         9
     Eigenvalues --     0.17889   0.21412   0.21900   0.22129
   1         R1        -0.11140   0.29589   0.70057   0.62748
   2         R2         0.10883   0.28769  -0.69632   0.63495
   3         R3        -0.01819  -0.89301   0.00586   0.36115
   4         R4         0.00297  -0.02397  -0.00036   0.00647
   5         A1        -0.01314   0.02836  -0.00104   0.01458
   6         A2         0.71987  -0.12981   0.11164   0.18774
   7         A3        -0.67565  -0.11762  -0.10880   0.18826
   8         A4         0.01419  -0.00584   0.00065   0.00261
   9         A5         0.01444   0.00094   0.00219  -0.00175
  10         D1         0.01004  -0.01083   0.00084  -0.04150
 Eigenvalue     1 is  -1.64D-03 should be greater than     0.000000 Eigenvector:
                          R4        A4        A5        R3        A3
   1                    0.80059  -0.51193   0.30957  -0.02178   0.01393
                          A2        D1        A1        R2        R1
   1                    0.01352  -0.01313   0.01112  -0.00111  -0.00096
 Angle between quadratic step and forces=  59.31 degrees.
 Linear search not attempted -- first point.
 Iteration  1 RMS(Cart)=  0.00002196 RMS(Int)=  0.00000000
 Iteration  2 RMS(Cart)=  0.00000000 RMS(Int)=  0.00000000
 ITry= 1 IFail=0 DXMaxC= 5.60D-05 DCOld= 1.00D+10 DXMaxT= 3.00D-01 DXLimC= 3.00D+00 Rises=F
 Variable       Old X    -DE/DX   Delta X   Delta X   Delta X     New X
                                 (Linear)    (Quad)   (Total)
    R1        2.68588  -0.00000   0.00000  -0.00000  -0.00000   2.68588
    R2        2.68588  -0.00000   0.00000  -0.00000  -0.00000   2.68588
    R3        2.69349  -0.00000   0.00000  -0.00000  -0.00000   2.69348
    R4        3.82341  -0.00000   0.00000  -0.00004  -0.00004   3.82337
    A1        1.63822   0.00000   0.00000   0.00000   0.00000   1.63822
    A2        1.63713  -0.00000   0.00000   0.00000   0.00000   1.63713
    A3        1.63713  -0.00000   0.00000  -0.00000  -0.00000   1.63713
    A4        2.14057  -0.00000   0.00000  -0.00002  -0.00002   2.14055
    A5        3.91344   0.00000   0.00000   0.00000   0.00000   3.91344
    D1       -1.64294  -0.00000   0.00000  -0.00000  -0.00000  -1.64294
         Item               Value     Threshold  Converged?
 Maximum Force            0.000001     0.000450     YES
 RMS     Force            0.000000     0.000300     YES
 Maximum Displacement     0.000056     0.001800     YES
 RMS     Displacement     0.000022     0.001200     YES
 Predicted change in Energy=-1.705960D-11
 Optimization completed.
    -- Stationary point found.
                           ----------------------------
                           !   Optimized Parameters   !
                           ! (Angstroms and Degrees)  !
 --------------------------                            --------------------------
 ! Name  Definition              Value          Derivative Info.                !
 --------------------------------------------------------------------------------
 ! R1    R(1,2)                  1.4213         -DE/DX =    0.0                 !
 ! R2    R(1,3)                  1.4213         -DE/DX =    0.0                 !
 ! R3    R(1,4)                  1.4253         -DE/DX =    0.0                 !
 ! R4    R(4,5)                  2.0233         -DE/DX =    0.0                 !
 ! A1    A(2,1,3)               93.863          -DE/DX =    0.0                 !
 ! A2    A(2,1,4)               93.8006         -DE/DX =    0.0                 !
 ! A3    A(3,1,4)               93.8007         -DE/DX =    0.0                 !
 ! A4    L(1,4,5,2,-1)         122.6454         -DE/DX =    0.0                 !
 ! A5    L(1,4,5,2,-2)         224.2235         -DE/DX =    0.0                 !
 ! D1    D(2,1,4,3)            -94.1335         -DE/DX =    0.0                 !
 --------------------------------------------------------------------------------
 GradGradGradGradGradGradGradGradGradGradGradGradGradGradGradGradGradGrad

 Leave Link  103 at Wed Oct  7 13:18:07 2020, MaxMem=  2684354560 cpu:               9.8 elap:               1.4
 (Enter /udrive/faculty/rpeverati/g16/g16/l9999.exe)

 ----------------------------------------------------------------------

 Electric dipole moment (input orientation):
 (Debye = 10**-18 statcoulomb cm , SI units = C m)
                  (au)            (Debye)         (10**-30 SI)
   Tot        0.122851D+00      0.312257D+00      0.104158D+01
   x         -0.404015D-01     -0.102690D+00     -0.342538D+00
   y          0.121811D-02      0.309613D-02      0.103276D-01
   z          0.116012D+00      0.294872D+00      0.983589D+00

 Dipole polarizability, Alpha (input orientation).
 (esu units = cm**3 , SI units = C**2 m**2 J**-1)
 Alpha(0;0):
               (au)            (10**-24 esu)      (10**-40 SI)
   iso        0.259943D+02      0.385196D+01      0.428588D+01
   aniso      0.131559D+02      0.194950D+01      0.216911D+01
   xx         0.343387D+02      0.508847D+01      0.566168D+01
   yx        -0.350938D-01     -0.520036D-02     -0.578618D-02
   yy         0.216543D+02      0.320884D+01      0.357032D+01
   zx        -0.233277D+01     -0.345680D+00     -0.384621D+00
   zy         0.548886D-02      0.813364D-03      0.904990D-03
   zz         0.219899D+02      0.325857D+01      0.362565D+01

 ----------------------------------------------------------------------

 Dipole orientation:
    15          0.61940316         -0.00697339         -0.26039822
     1          0.46520568          1.95502047          1.56737510
     1          0.46842656         -1.96925136          1.56733948
     1         -2.03032122         -0.00914019         -0.74396672
     1         -3.98716216         -0.01080079          2.54072667

 Electric dipole moment (dipole orientation):
 (Debye = 10**-18 statcoulomb cm , SI units = C m)
                  (au)            (Debye)         (10**-30 SI)
   Tot        0.122851D+00      0.312257D+00      0.104158D+01
   x          0.000000D+00      0.000000D+00      0.000000D+00
   y          0.000000D+00      0.000000D+00      0.000000D+00
   z          0.122851D+00      0.312257D+00      0.104158D+01

 Dipole polarizability, Alpha (dipole orientation).
 (esu units = cm**3 , SI units = C**2 m**2 J**-1)
 Alpha(0;0):
               (au)            (10**-24 esu)      (10**-40 SI)
   iso        0.259943D+02      0.385196D+01      0.428588D+01
   aniso      0.131559D+02      0.194950D+01      0.216911D+01
   xx         0.315540D+02      0.467582D+01      0.520255D+01
   yx         0.821676D-02      0.121760D-02      0.135476D-02
   yy         0.216543D+02      0.320883D+01      0.357031D+01
   zx        -0.566351D+01     -0.839246D+00     -0.933787D+00
   zy        -0.471687D-02     -0.698968D-03     -0.777707D-03
   zz         0.247747D+02      0.367123D+01      0.408479D+01

 ----------------------------------------------------------------------

 Test job not archived.
 1\1\GINC-NODE56\Freq\UTPSSTPSS\6-31G(d)\H4P1(2)\RPEVERATI\07-Oct-2020\
 0\\#P Freq TPSSTPSS/6-31G* 5D 7F Integral=UltraFineGrid SCF=(NoSymm,XQ
 C,MaxCyc=120) EmpiricalDispersion=GD3BJ IOp(1/33=1) Geom=Check Guess=R
 ead\\TS search on BH76.\\0,2\P,0.3548520915,-0.004506567,-0.02229527\H
 ,-0.0385483429,1.0431367816,0.8539420458\H,-0.0404152224,-1.0333907638
 ,0.8750752766\H,-0.885174539,-0.0105419556,-0.7250552091\H,-2.43471857
 8,0.0040773527,0.5758212823\\Version=ES64L-G16RevA.03\State=2-A\HF=-34
 3.6466877\S2=0.750571\S2-1=0.\S2A=0.75\RMSD=8.167e-10\RMSF=2.865e-06\Z
 eroPoint=0.0253968\Thermal=0.0292161\Dipole=-0.0404015,0.0012181,0.116
 0118\DipoleDeriv=0.1631215,0.0004536,0.0286547,0.0006144,0.3443225,-0.
 0000958,0.0444019,-0.0001099,0.3374277,-0.0176506,0.1570588,0.095919,0
 .0319955,-0.1267757,-0.0682892,0.0152104,-0.1387838,-0.1396497,-0.0179
 891,-0.1552643,0.0992196,-0.0318689,-0.1222312,0.0677625,0.0161098,0.1
 384046,-0.1438555,-0.225359,-0.0017048,-0.1839435,-0.0003246,-0.039346
 8,0.0005328,-0.0483304,0.0004105,-0.0032609,0.0978772,-0.0005433,-0.03
 98499,-0.0004164,-0.0559688,0.0000897,-0.0273916,0.0000785,-0.0506617\
 Polar=34.3386678,-0.0350938,21.6543464,-2.3327655,0.0054889,21.9899483
 \Quadrupole=-1.7994893,1.1314731,0.6680161,0.0136944,1.0873855,-0.0056
 951\PG=C01 [X(H4P1)]\NImag=1\\0.23415717,0.00007945,0.25755613,0.00577
 317,-0.00005915,0.25226277,-0.03529698,0.05938304,0.04338702,0.0344372
 1,0.03437750,-0.11775375,-0.07670198,-0.03877324,0.13238648,0.02695267
 ,-0.09018574,-0.09768368,-0.02900141,0.08815734,0.09812512,-0.03546436
 ,-0.05863090,0.04472630,-0.00100409,0.00484682,-0.00263066,0.03457569,
 -0.03396479,-0.11418322,0.07696040,-0.00492320,-0.01414057,0.01126126,
 0.03834571,0.12864691,0.02781075,0.09047416,-0.10108630,-0.00255107,-0
 .01079329,0.00861923,-0.02994545,-0.08872712,0.10172562,-0.15975333,-0
 .00083230,-0.09361629,0.00228841,-0.00044034,0.00425788,0.00231681,0.0
 0052250,0.00426466,0.15587752,-0.00053642,-0.02585108,-0.00020179,-0.0
 1540378,-0.00032314,-0.00929271,0.01515891,-0.00015569,0.00910573,0.00
 077025,0.02660351,-0.06454529,-0.00022795,-0.05394919,-0.01165088,-0.0
 0049894,-0.00894834,-0.01196111,0.00034088,-0.00914409,0.08711164,0.00
 038818,0.07243601,-0.00364249,0.00000072,-0.00027019,-0.00042455,-0.00
 001074,0.00042153,-0.00042405,0.00001979,0.00042111,-0.00072940,0.0000
 1105,0.00104564,0.00522049,0.00004426,0.00023191,0.00000251,-0.0002828
 1,-0.00016903,0.00005985,0.00027947,-0.00016744,-0.00005949,-0.0000201
 1,-0.00027362,-0.00000217,-0.00002081,0.00037817,0.00400870,-0.0000013
 2,0.00045640,-0.00018366,-0.00016313,-0.00011234,-0.00018908,0.0001645
 8,-0.00011446,-0.00201788,0.00000058,-0.00039439,-0.00161809,-0.000000
 72,0.00016479\\0.00000255,-0.00000004,0.00000377,-0.00000244,0.0000000
 7,0.00000271,-0.00000238,-0.00000005,0.00000281,0.00000375,0.00000010,
 -0.00000180,-0.00000149,-0.00000008,-0.00000749\\\@


 MISERY NO LONGER LOVES COMPANY.  NOWADAYS IT INSISTS ON IT.

                                              -- BAKER'S LAW
 Job cpu time:       0 days  0 hours  3 minutes 10.5 seconds.
 Elapsed time:       0 days  0 hours  0 minutes 30.6 seconds.
 File lengths (MBytes):  RWF=      5 Int=      0 D2E=      0 Chk=      1 Scr=      1
 Normal termination of Gaussian 16 at Wed Oct  7 13:18:09 2020.
