 Entering Gaussian System, Link 0=g16
 Input=MN_94_RKT20_BH76_TPSSDBJ_631Gs.in
 Output=MN_94_RKT20_BH76_TPSSDBJ_631Gs.log
 Initial command:
 /udrive/faculty/rpeverati/g16/g16/l1.exe "/udrive/scratch-directories/gaussian09/rpeverati/Gau-31304.inp" -scrdir="/udrive/scratch-directories/gaussian09/rpeverati/"
 Entering Link 1 = /udrive/faculty/rpeverati/g16/g16/l1.exe PID=     31321.
  
 Copyright (c) 1988,1990,1992,1993,1995,1998,2003,2009,2016,
            Gaussian, Inc.  All Rights Reserved.
  
 This is part of the Gaussian(R) 16 program.  It is based on
 the Gaussian(R) 09 system (copyright 2009, Gaussian, Inc.),
 the Gaussian(R) 03 system (copyright 2003, Gaussian, Inc.),
 the Gaussian(R) 98 system (copyright 1998, Gaussian, Inc.),
 the Gaussian(R) 94 system (copyright 1995, Gaussian, Inc.),
 the Gaussian 92(TM) system (copyright 1992, Gaussian, Inc.),
 the Gaussian 90(TM) system (copyright 1990, Gaussian, Inc.),
 the Gaussian 88(TM) system (copyright 1988, Gaussian, Inc.),
 the Gaussian 86(TM) system (copyright 1986, Carnegie Mellon
 University), and the Gaussian 82(TM) system (copyright 1983,
 Carnegie Mellon University). Gaussian is a federally registered
 trademark of Gaussian, Inc.
  
 This software contains proprietary and confidential information,
 including trade secrets, belonging to Gaussian, Inc.
  
 This software is provided under written license and may be
 used, copied, transmitted, or stored only in accord with that
 written license.
  
 The following legend is applicable only to US Government
 contracts under FAR:
  
                    RESTRICTED RIGHTS LEGEND
  
 Use, reproduction and disclosure by the US Government is
 subject to restrictions as set forth in subparagraphs (a)
 and (c) of the Commercial Computer Software - Restricted
 Rights clause in FAR 52.227-19.
  
 Gaussian, Inc.
 340 Quinnipiac St., Bldg. 40, Wallingford CT 06492
  
  
 ---------------------------------------------------------------
 Warning -- This program may not be used in any manner that
 competes with the business of Gaussian, Inc. or will provide
 assistance to any competitor of Gaussian, Inc.  The licensee
 of this program is prohibited from giving any competitor of
 Gaussian, Inc. access to this program.  By using this program,
 the user acknowledges that Gaussian, Inc. is engaged in the
 business of creating and licensing software in the field of
 computational chemistry and represents and warrants to the
 licensee that it is not a competitor of Gaussian, Inc. and that
 it will not use this program in any manner prohibited above.
 ---------------------------------------------------------------
  

 Cite this work as:
 Gaussian 16, Revision A.03,
 M. J. Frisch, G. W. Trucks, H. B. Schlegel, G. E. Scuseria, 
 M. A. Robb, J. R. Cheeseman, G. Scalmani, V. Barone, 
 G. A. Petersson, H. Nakatsuji, X. Li, M. Caricato, A. V. Marenich, 
 J. Bloino, B. G. Janesko, R. Gomperts, B. Mennucci, H. P. Hratchian, 
 J. V. Ortiz, A. F. Izmaylov, J. L. Sonnenberg, D. Williams-Young, 
 F. Ding, F. Lipparini, F. Egidi, J. Goings, B. Peng, A. Petrone, 
 T. Henderson, D. Ranasinghe, V. G. Zakrzewski, J. Gao, N. Rega, 
 G. Zheng, W. Liang, M. Hada, M. Ehara, K. Toyota, R. Fukuda, 
 J. Hasegawa, M. Ishida, T. Nakajima, Y. Honda, O. Kitao, H. Nakai, 
 T. Vreven, K. Throssell, J. A. Montgomery, Jr., J. E. Peralta, 
 F. Ogliaro, M. J. Bearpark, J. J. Heyd, E. N. Brothers, K. N. Kudin, 
 V. N. Staroverov, T. A. Keith, R. Kobayashi, J. Normand, 
 K. Raghavachari, A. P. Rendell, J. C. Burant, S. S. Iyengar, 
 J. Tomasi, M. Cossi, J. M. Millam, M. Klene, C. Adamo, R. Cammi, 
 J. W. Ochterski, R. L. Martin, K. Morokuma, O. Farkas, 
 J. B. Foresman, and D. J. Fox, Gaussian, Inc., Wallingford CT, 2016.
 
 ******************************************
 Gaussian 16:  ES64L-G16RevA.03 25-Dec-2016
                11-Oct-2020 
 ******************************************
 %NoSave
 %nproc=12
 Will use up to   12 processors via shared memory.
 %mem=20GB
 %chk=MN_94_RKT20_BH76_TPSSDBJ_631Gs
 ----------------------------------------------------------------------
 #P Opt(TS,MaxCyc=50,NoEigenTest,MaxStep=10,AddRedundant) TPSSTPSS/6-31
 G* 5D 7F Integral=UltraFineGrid SCF=(NoSymm,XQC,MaxCyc=120) EmpiricalD
 ispersion=GD3BJ IOp(1/33=1)
 ----------------------------------------------------------------------
 1/5=1,6=50,8=10,11=1,18=120,26=4,33=1,38=1/1,3;
 2/9=110,12=2,17=6,18=5,40=1/2;
 3/5=1,6=6,7=1,8=11,11=2,25=1,30=1,71=1,74=2523,75=-5,124=41/1,2,3;
 4/9=2/1;
 5/5=2,7=120,8=3,13=1,38=5/2,8;
 6/7=2,8=2,9=2,10=2,28=1/1;
 7//1,2,3,16;
 1/5=1,6=50,8=10,11=1,18=20,26=4,33=1/3(2);
 2/9=110/2;
 99//99;
 2/9=110/2;
 3/5=1,6=6,7=1,8=11,11=2,25=1,30=1,71=1,74=2523,75=-5,124=41/1,2,3;
 4/5=5,9=2,16=3,69=1/1;
 5/5=2,7=120,8=3,13=1,38=5/2,8;
 7//1,2,3,16;
 1/5=1,6=50,8=10,11=1,18=20,26=4,33=1/3(-5);
 2/9=110/2;
 6/7=2,8=2,9=2,10=2,19=2,28=1/1;
 99/9=1/99;
 Leave Link    1 at Sun Oct 11 11:45:01 2020, MaxMem=  2684354560 cpu:               6.2 elap:               0.6
 (Enter /udrive/faculty/rpeverati/g16/g16/l101.exe)
 ONIOM results not found on unit 2.
 ------------------
 TS search on BH76.
 ------------------
 TstMul:  ICh=     0
 TstMul:  Mul=     2
 TstMul:  ICh=     0
 TstMul:  Mul=     2
 Symbolic Z-matrix:
 Charge =  0 Multiplicity = 2
 C                    -1.4857   -0.44816  -0.00002 
 C                    -0.50504   0.70174   0.00003 
 N                     1.86516  -0.34017  -0.00006 
 H                    -1.35419  -1.07651  -0.8805 
 H                    -1.35416  -1.07661   0.88039 
 H                    -2.51703  -0.08617   0.00003 
 H                    -0.52222   1.31612  -0.89722 
 H                    -0.52221   1.31603   0.89734 
 H                     0.66505   0.14796  -0.00003 
 H                     2.24664   0.15972  -0.8048 
 H                     2.24644   0.15913   0.80515 
 
 RdStrC is calling ZToCFu for IStruc=1 NZ=    11.
 PrtBox:  NBox=     2 Levels=  1 BoxLen=    8.00 SMaxX=        9.00
          Shift=            4.756490            2.034500            1.695500
 Box      1 Number                   0 centers from      1 to      8:
 Box      2 Number                   4 centers from      9 to     11:
 After GenITR:
 ITRead=  0  0  0  0  0  0  0  0  0  0  0
 MicOpt= -1 -1 -1 -1 -1 -1 -1 -1 -1 -1 -1
 Add virtual bond connecting atoms H9         and N3         Dist= 2.45D+00.
 The following ModRedundant input section has been read:
 B       2       9 D                                                           
 B       3       9 D                                                           
 
 ITRead=  0  0  0  0  0  0  0  0  0  0  0
 MicOpt= -1 -1 -1 -1 -1 -1 -1 -1 -1 -1 -1
 NAtoms=     11 NQM=       11 NQMF=       0 NMMI=      0 NMMIF=      0
                NMic=       0 NMicF=      0.
                    Isotopes and Nuclear Properties:
 (Nuclear quadrupole moments (NQMom) in fm**2, nuclear magnetic moments (NMagM)
  in nuclear magnetons)

  Atom         1           2           3           4           5           6           7           8           9          10
 IAtWgt=          12          12          14           1           1           1           1           1           1           1
 AtmWgt=  12.0000000  12.0000000  14.0030740   1.0078250   1.0078250   1.0078250   1.0078250   1.0078250   1.0078250   1.0078250
 NucSpn=           0           0           2           1           1           1           1           1           1           1
 AtZEff=   0.0000000   0.0000000   0.0000000   0.0000000   0.0000000   0.0000000   0.0000000   0.0000000   0.0000000   0.0000000
 NQMom=    0.0000000   0.0000000   2.0440000   0.0000000   0.0000000   0.0000000   0.0000000   0.0000000   0.0000000   0.0000000
 NMagM=    0.0000000   0.0000000   0.4037610   2.7928460   2.7928460   2.7928460   2.7928460   2.7928460   2.7928460   2.7928460
 AtZNuc=   6.0000000   6.0000000   7.0000000   1.0000000   1.0000000   1.0000000   1.0000000   1.0000000   1.0000000   1.0000000

  Atom        11
 IAtWgt=           1
 AtmWgt=   1.0078250
 NucSpn=           1
 AtZEff=   0.0000000
 NQMom=    0.0000000
 NMagM=    2.7928460
 AtZNuc=   1.0000000
 No MM parameters found.
 Leave Link  101 at Sun Oct 11 11:45:02 2020, MaxMem=  2684354560 cpu:               9.8 elap:               0.8
 (Enter /udrive/faculty/rpeverati/g16/g16/l103.exe)

 GradGradGradGradGradGradGradGradGradGradGradGradGradGradGradGradGradGrad
 Berny optimization.
 Optmz: redundant internal coordinate code flag= 1
 Initialization pass.
                           ----------------------------
                           !    Initial Parameters    !
                           ! (Angstroms and Degrees)  !
 --------------------------                            --------------------------
 ! Name  Definition              Value          Derivative Info.                !
 --------------------------------------------------------------------------------
 ! R1    R(1,2)                  1.5113         estimate D2E/DX2                !
 ! R2    R(1,4)                  1.0897         estimate D2E/DX2                !
 ! R3    R(1,5)                  1.0897         estimate D2E/DX2                !
 ! R4    R(1,6)                  1.093          estimate D2E/DX2                !
 ! R5    R(2,7)                  1.0876         estimate D2E/DX2                !
 ! R6    R(2,8)                  1.0876         estimate D2E/DX2                !
 ! R7    R(2,9)                  1.2945         calc D2E/DXDY, step=    0.0026  !
 ! R8    R(3,9)                  1.2956         calc D2E/DXDY, step=    0.0026  !
 ! R9    R(3,10)                 1.0213         estimate D2E/DX2                !
 ! R10   R(3,11)                 1.0213         estimate D2E/DX2                !
 ! A1    A(2,1,4)              111.1289         estimate D2E/DX2                !
 ! A2    A(2,1,5)              111.1291         estimate D2E/DX2                !
 ! A3    A(2,1,6)              111.1178         estimate D2E/DX2                !
 ! A4    A(4,1,5)              107.8011         estimate D2E/DX2                !
 ! A5    A(4,1,6)              107.7512         estimate D2E/DX2                !
 ! A6    A(5,1,6)              107.7509         estimate D2E/DX2                !
 ! A7    A(1,2,7)              114.806          estimate D2E/DX2                !
 ! A8    A(1,2,8)              114.8063         estimate D2E/DX2                !
 ! A9    A(1,2,9)              105.1311         estimate D2E/DX2                !
 ! A10   A(7,2,8)              111.1832         estimate D2E/DX2                !
 ! A11   A(7,2,9)              104.8269         estimate D2E/DX2                !
 ! A12   A(8,2,9)              104.8288         estimate D2E/DX2                !
 ! A13   A(9,3,10)              99.3002         estimate D2E/DX2                !
 ! A14   A(9,3,11)              99.3005         estimate D2E/DX2                !
 ! A15   A(10,3,11)            104.0346         estimate D2E/DX2                !
 ! A16   L(2,9,3,5,-1)         182.9059         estimate D2E/DX2                !
 ! A17   L(2,9,3,5,-2)         181.5726         estimate D2E/DX2                !
 ! D1    D(4,1,2,7)             54.623          estimate D2E/DX2                !
 ! D2    D(4,1,2,8)           -174.6717         estimate D2E/DX2                !
 ! D3    D(4,1,2,9)            -60.0232         estimate D2E/DX2                !
 ! D4    D(5,1,2,7)            174.6701         estimate D2E/DX2                !
 ! D5    D(5,1,2,8)            -54.6247         estimate D2E/DX2                !
 ! D6    D(5,1,2,9)             60.0239         estimate D2E/DX2                !
 ! D7    D(6,1,2,7)            -65.3536         estimate D2E/DX2                !
 ! D8    D(6,1,2,8)             65.3516         estimate D2E/DX2                !
 ! D9    D(6,1,2,9)           -179.9998         estimate D2E/DX2                !
 ! D10   D(1,2,3,10)           127.2114         estimate D2E/DX2                !
 ! D11   D(1,2,3,11)          -127.1723         estimate D2E/DX2                !
 ! D12   D(7,2,3,10)             5.451          estimate D2E/DX2                !
 ! D13   D(7,2,3,11)           111.0674         estimate D2E/DX2                !
 ! D14   D(8,2,3,10)          -111.0278         estimate D2E/DX2                !
 ! D15   D(8,2,3,11)            -5.4114         estimate D2E/DX2                !
 --------------------------------------------------------------------------------
 Maximum allowed force set to 1.00D+20.
 Trust Radius=1.00D-01 FncErr=1.00D-07 GrdErr=1.00D-06 EigMax=2.50D+02 EigMin=1.00D-04
 Number of steps in this run=     50 maximum allowed number of steps=    100.
 Search for a saddle point of order  1.
 GradGradGradGradGradGradGradGradGradGradGradGradGradGradGradGradGradGrad

 Leave Link  103 at Sun Oct 11 11:45:02 2020, MaxMem=  2684354560 cpu:               0.2 elap:               0.1
 (Enter /udrive/faculty/rpeverati/g16/g16/l202.exe)
                          Input orientation:                          
 ---------------------------------------------------------------------
 Center     Atomic      Atomic             Coordinates (Angstroms)
 Number     Number       Type             X           Y           Z
 ---------------------------------------------------------------------
      1          6           0       -1.485702   -0.448156   -0.000019
      2          6           0       -0.505042    0.701742    0.000029
      3          7           0        1.865159   -0.340167   -0.000057
      4          1           0       -1.354191   -1.076505   -0.880503
      5          1           0       -1.354159   -1.076611    0.880387
      6          1           0       -2.517026   -0.086173    0.000025
      7          1           0       -0.522224    1.316117   -0.897220
      8          1           0       -0.522205    1.316032    0.897336
      9          1           0        0.665049    0.147961   -0.000034
     10          1           0        2.246643    0.159717   -0.804804
     11          1           0        2.246442    0.159133    0.805154
 ---------------------------------------------------------------------
                    Distance matrix (angstroms):
                    1          2          3          4          5
     1  C    0.000000
     2  C    1.511277   0.000000
     3  N    3.352601   2.589098   0.000000
     4  H    1.089665   2.158368   3.417835   0.000000
     5  H    1.089667   2.158372   3.417827   1.760890   0.000000
     6  H    1.093006   2.160761   4.389540   1.763030   1.763027
     7  H    2.201344   1.087569   3.041016   2.533197   3.094697
     8  H    2.201348   1.087569   3.041023   3.094697   2.533214
     9  H    2.231834   1.294521   1.295583   2.520292   2.520301
    10  H    3.866211   2.917759   1.021290   3.807884   4.163431
    11  H    3.866006   2.917758   1.021294   4.163268   3.807499
                    6          7          8          9         10
     6  H    0.000000
     7  H    2.598211   0.000000
     8  H    2.598202   1.794556   0.000000
     9  H    3.190677   1.891863   1.891887   0.000000
    10  H    4.837433   3.002070   3.449763   1.774608   0.000000
    11  H    4.837255   3.449957   3.002053   1.774614   1.609958
                   11
    11  H    0.000000
 Stoichiometry    C2H8N(2)
 Framework group  C1[X(C2H8N)]
 Deg. of freedom    27
 Full point group                 C1      NOp   1
 Largest Abelian subgroup         C1      NOp   1
 Largest concise Abelian subgroup C1      NOp   1
                         Standard orientation:                         
 ---------------------------------------------------------------------
 Center     Atomic      Atomic             Coordinates (Angstroms)
 Number     Number       Type             X           Y           Z
 ---------------------------------------------------------------------
      1          6           0       -1.485701   -0.448157   -0.000019
      2          6           0       -0.505041    0.701741    0.000029
      3          7           0        1.865160   -0.340168   -0.000057
      4          1           0       -1.354190   -1.076506   -0.880503
      5          1           0       -1.354158   -1.076612    0.880387
      6          1           0       -2.517025   -0.086173    0.000025
      7          1           0       -0.522224    1.316116   -0.897220
      8          1           0       -0.522204    1.316031    0.897336
      9          1           0        0.665050    0.147961   -0.000034
     10          1           0        2.246644    0.159717   -0.804804
     11          1           0        2.246443    0.159132    0.805154
 ---------------------------------------------------------------------
 Rotational constants (GHZ):          24.9609656           4.8569038           4.3824954
 Leave Link  202 at Sun Oct 11 11:45:02 2020, MaxMem=  2684354560 cpu:               0.3 elap:               0.1
 (Enter /udrive/faculty/rpeverati/g16/g16/l301.exe)
 Standard basis: 6-31G(d) (5D, 7F)
 Ernie: Thresh=  0.10000D-02 Tol=  0.10000D-05 Strict=F.
 There are    61 symmetry adapted cartesian basis functions of A   symmetry.
 There are    58 symmetry adapted basis functions of A   symmetry.
    58 basis functions,   116 primitive gaussians,    61 cartesian basis functions
    14 alpha electrons       13 beta electrons
       nuclear repulsion energy        78.7849072939 Hartrees.
 IExCor= 2523 DFT=T Ex=TPSS Corr=TPSS ExCW=0 ScaHFX=  0.000000
 ScaDFX=  1.000000  1.000000  1.000000  1.000000 ScalE2=  1.000000  1.000000
 IRadAn=      5 IRanWt=     -1 IRanGd=            0 ICorTp=0 IEmpDi=141
 NAtoms=   11 NActive=   11 NUniq=   11 SFac= 1.00D+00 NAtFMM=   60 NAOKFM=F Big=F
 Integral buffers will be    131072 words long.
 Raffenetti 2 integral format.
 Two-electron integral symmetry is turned on.
 R6Disp:  Grimme-D3(BJ) Dispersion energy=       -0.0066019300 Hartrees.
 Nuclear repulsion after empirical dispersion term =       78.7783053638 Hartrees.
 Leave Link  301 at Sun Oct 11 11:45:02 2020, MaxMem=  2684354560 cpu:               0.9 elap:               0.1
 (Enter /udrive/faculty/rpeverati/g16/g16/l302.exe)
 NPDir=0 NMtPBC=     1 NCelOv=     1 NCel=       1 NClECP=     1 NCelD=      1
         NCelK=      1 NCelE2=     1 NClLst=     1 CellRange=     0.0.
 One-electron integrals computed using PRISM.
 One-electron integral symmetry used in STVInt
 NBasis=    58 RedAO= T EigKep=  6.29D-03  NBF=    58
 NBsUse=    58 1.00D-06 EigRej= -1.00D+00 NBFU=    58
 Precomputing XC quadrature grid using
 IXCGrd= 4 IRadAn=           5 IRanWt=          -1 IRanGd=           0 AccXCQ= 0.00D+00.
 Generated NRdTot=       0 NPtTot=           0 NUsed=           0 NTot=          32
 NSgBfM=    61    61    61    61    61 MxSgAt=    11 MxSgA2=    11.
 Leave Link  302 at Sun Oct 11 11:45:03 2020, MaxMem=  2684354560 cpu:               3.3 elap:               0.3
 (Enter /udrive/faculty/rpeverati/g16/g16/l303.exe)
 DipDrv:  MaxL=1.
 Leave Link  303 at Sun Oct 11 11:45:03 2020, MaxMem=  2684354560 cpu:               0.6 elap:               0.1
 (Enter /udrive/faculty/rpeverati/g16/g16/l401.exe)
 SCF N**3 symmetry information disabled.
 ExpMin= 1.61D-01 ExpMax= 4.17D+03 ExpMxC= 6.27D+02 IAcc=3 IRadAn=         5 AccDes= 0.00D+00
 Harris functional with IExCor= 1009 and IRadAn=       5 diagonalized for initial guess.
 HarFok:  IExCor= 1009 AccDes= 0.00D+00 IRadAn=         5 IDoV= 1 UseB2=F ITyADJ=14
 ICtDFT=  3500011 ScaDFX=  1.000000  1.000000  1.000000  1.000000
 FoFCou: FMM=F IPFlag=           0 FMFlag=      100000 FMFlg1=           0
         NFxFlg=           0 DoJE=T BraDBF=F KetDBF=T FulRan=T
         wScrn=  0.000000 ICntrl=       500 IOpCl=  0 I1Cent=   200000004 NGrid=           0
         NMat0=    1 NMatS0=      1 NMatT0=    0 NMatD0=    1 NMtDS0=    0 NMtDT0=    0
 Petite list used in FoFCou.
 Harris En= -135.582631450257    
 JPrj=0 DoOrth=F DoCkMO=F.
 Initial guess <Sx>= 0.0000 <Sy>= 0.0000 <Sz>= 0.5000 <S**2>= 0.7500 S= 0.5000
 Leave Link  401 at Sun Oct 11 11:45:03 2020, MaxMem=  2684354560 cpu:               7.5 elap:               0.7
 (Enter /udrive/faculty/rpeverati/g16/g16/l502.exe)
 Keep J ints in memory in canonical form, NReq=12081231.
 FoFCou: FMM=F IPFlag=           0 FMFlag=           0 FMFlg1=           0
         NFxFlg=           0 DoJE=F BraDBF=F KetDBF=F FulRan=T
         wScrn=  0.000000 ICntrl=       600 IOpCl=  0 I1Cent=           0 NGrid=           0
         NMat0=    1 NMatS0=   1711 NMatT0=    0 NMatD0=    1 NMtDS0=    0 NMtDT0=    0
 Symmetry not used in FoFCou.
 Two-electron integral symmetry not used.
 UHF open shell SCF:
 Using DIIS extrapolation, IDIIS=  1040.
 NGot=  2684354560 LenX=  2682880805 LenY=  2682876643
 Requested convergence on RMS density matrix=1.00D-08 within 120 cycles.
 Requested convergence on MAX density matrix=1.00D-06.
 Requested convergence on             energy=1.00D-06.
 No special actions if energy rises.
 Integral accuracy reduced to 1.0D-05 until final iterations.

 Cycle   1  Pass 0  IDiag  1:
 E= -135.582195005959    
 DIIS: error= 5.40D-02 at cycle   1 NSaved=   1.
 NSaved= 1 IEnMin= 1 EnMin= -135.582195005959     IErMin= 1 ErrMin= 5.40D-02
 ErrMax= 5.40D-02  0.00D+00 EMaxC= 1.00D-01 BMatC= 4.69D-01 BMatP= 4.69D-01
 IDIUse=3 WtCom= 4.60D-01 WtEn= 5.40D-01
 Coeff-Com:  0.100D+01
 Coeff-En:   0.100D+01
 Coeff:      0.100D+01
 Gap=     0.170 Goal=   None    Shift=    0.000
 Gap=     0.122 Goal=   None    Shift=    0.000
 GapD=    0.122 DampG=1.000 DampE=0.500 DampFc=0.5000 IDamp=-1.
 Damping current iteration by 5.00D-01
 RMSDP=1.48D-02 MaxDP=1.68D-01              OVMax= 1.85D-01

 Cycle   2  Pass 0  IDiag  1:
 E= -135.632372501149     Delta-E=       -0.050177495190 Rises=F Damp=T
 DIIS: error= 9.51D-03 at cycle   2 NSaved=   2.
 NSaved= 2 IEnMin= 2 EnMin= -135.632372501149     IErMin= 2 ErrMin= 9.51D-03
 ErrMax= 9.51D-03  0.00D+00 EMaxC= 1.00D-01 BMatC= 2.59D-02 BMatP= 4.69D-01
 IDIUse=3 WtCom= 9.05D-01 WtEn= 9.51D-02
 Coeff-Com:  0.147D+00 0.853D+00
 Coeff-En:   0.239D+00 0.761D+00
 Coeff:      0.155D+00 0.845D+00
 Gap=     0.241 Goal=   None    Shift=    0.000
 Gap=     0.120 Goal=   None    Shift=    0.000
 RMSDP=2.35D-03 MaxDP=3.88D-02 DE=-5.02D-02 OVMax= 1.01D-01

 Cycle   3  Pass 0  IDiag  1:
 E= -135.711224280518     Delta-E=       -0.078851779369 Rises=F Damp=F
 DIIS: error= 4.09D-03 at cycle   3 NSaved=   3.
 NSaved= 3 IEnMin= 3 EnMin= -135.711224280518     IErMin= 3 ErrMin= 4.09D-03
 ErrMax= 4.09D-03  0.00D+00 EMaxC= 1.00D-01 BMatC= 2.60D-03 BMatP= 2.59D-02
 IDIUse=3 WtCom= 9.59D-01 WtEn= 4.09D-02
 Coeff-Com:  0.330D-01 0.196D+00 0.771D+00
 Coeff-En:   0.000D+00 0.000D+00 0.100D+01
 Coeff:      0.317D-01 0.188D+00 0.780D+00
 Gap=     0.247 Goal=   None    Shift=    0.000
 Gap=     0.115 Goal=   None    Shift=    0.000
 RMSDP=1.02D-03 MaxDP=1.45D-02 DE=-7.89D-02 OVMax= 3.43D-02

 Cycle   4  Pass 0  IDiag  1:
 E= -135.710770152549     Delta-E=        0.000454127969 Rises=F Damp=F
 DIIS: error= 5.93D-03 at cycle   4 NSaved=   4.
 NSaved= 4 IEnMin= 3 EnMin= -135.711224280518     IErMin= 3 ErrMin= 4.09D-03
 ErrMax= 5.93D-03  0.00D+00 EMaxC= 1.00D-01 BMatC= 4.49D-03 BMatP= 2.60D-03
 IDIUse=3 WtCom= 1.15D-01 WtEn= 8.85D-01
 Coeff-Com:  0.596D-02 0.197D-01 0.566D+00 0.409D+00
 Coeff-En:   0.000D+00 0.000D+00 0.599D+00 0.401D+00
 Coeff:      0.685D-03 0.227D-02 0.595D+00 0.402D+00
 Gap=     0.247 Goal=   None    Shift=    0.000
 Gap=     0.121 Goal=   None    Shift=    0.000
 RMSDP=6.55D-04 MaxDP=9.13D-03 DE= 4.54D-04 OVMax= 2.54D-02

 Cycle   5  Pass 0  IDiag  1:
 E= -135.711970087438     Delta-E=       -0.001199934889 Rises=F Damp=F
 DIIS: error= 5.70D-04 at cycle   5 NSaved=   5.
 NSaved= 5 IEnMin= 5 EnMin= -135.711970087438     IErMin= 5 ErrMin= 5.70D-04
 ErrMax= 5.70D-04  0.00D+00 EMaxC= 1.00D-01 BMatC= 7.30D-05 BMatP= 2.60D-03
 IDIUse=3 WtCom= 9.94D-01 WtEn= 5.70D-03
 Coeff-Com: -0.381D-02-0.192D-01 0.141D+00 0.133D+00 0.749D+00
 Coeff-En:   0.000D+00 0.000D+00 0.000D+00 0.000D+00 0.100D+01
 Coeff:     -0.379D-02-0.191D-01 0.141D+00 0.132D+00 0.750D+00
 Gap=     0.247 Goal=   None    Shift=    0.000
 Gap=     0.121 Goal=   None    Shift=    0.000
 RMSDP=1.02D-04 MaxDP=1.51D-03 DE=-1.20D-03 OVMax= 2.38D-03

 Cycle   6  Pass 0  IDiag  1:
 E= -135.711991489470     Delta-E=       -0.000021402032 Rises=F Damp=F
 DIIS: error= 1.04D-04 at cycle   6 NSaved=   6.
 NSaved= 6 IEnMin= 6 EnMin= -135.711991489470     IErMin= 6 ErrMin= 1.04D-04
 ErrMax= 1.04D-04  0.00D+00 EMaxC= 1.00D-01 BMatC= 3.92D-06 BMatP= 7.30D-05
 IDIUse=3 WtCom= 9.99D-01 WtEn= 1.04D-03
 Coeff-Com: -0.963D-03-0.250D-02-0.392D-01-0.242D-01 0.457D-01 0.102D+01
 Coeff-En:   0.000D+00 0.000D+00 0.000D+00 0.000D+00 0.000D+00 0.100D+01
 Coeff:     -0.962D-03-0.250D-02-0.392D-01-0.242D-01 0.457D-01 0.102D+01
 Gap=     0.247 Goal=   None    Shift=    0.000
 Gap=     0.121 Goal=   None    Shift=    0.000
 RMSDP=3.58D-05 MaxDP=4.29D-04 DE=-2.14D-05 OVMax= 8.64D-04

 Cycle   7  Pass 0  IDiag  1:
 E= -135.711993202634     Delta-E=       -0.000001713164 Rises=F Damp=F
 DIIS: error= 6.52D-05 at cycle   7 NSaved=   7.
 NSaved= 7 IEnMin= 7 EnMin= -135.711993202634     IErMin= 7 ErrMin= 6.52D-05
 ErrMax= 6.52D-05  0.00D+00 EMaxC= 1.00D-01 BMatC= 1.05D-06 BMatP= 3.92D-06
 IDIUse=1 WtCom= 1.00D+00 WtEn= 0.00D+00
 Coeff-Com: -0.602D-04 0.995D-03-0.296D-01-0.226D-01-0.599D-01 0.412D+00
 Coeff-Com:  0.699D+00
 Coeff:     -0.602D-04 0.995D-03-0.296D-01-0.226D-01-0.599D-01 0.412D+00
 Coeff:      0.699D+00
 Gap=     0.247 Goal=   None    Shift=    0.000
 Gap=     0.121 Goal=   None    Shift=    0.000
 RMSDP=1.26D-05 MaxDP=1.38D-04 DE=-1.71D-06 OVMax= 2.11D-04

 Cycle   8  Pass 0  IDiag  1:
 E= -135.711993508783     Delta-E=       -0.000000306149 Rises=F Damp=F
 DIIS: error= 2.66D-05 at cycle   8 NSaved=   8.
 NSaved= 8 IEnMin= 8 EnMin= -135.711993508783     IErMin= 8 ErrMin= 2.66D-05
 ErrMax= 2.66D-05  0.00D+00 EMaxC= 1.00D-01 BMatC= 9.99D-08 BMatP= 1.05D-06
 IDIUse=1 WtCom= 1.00D+00 WtEn= 0.00D+00
 Coeff-Com:  0.333D-04 0.618D-03-0.102D-01-0.825D-02-0.298D-01 0.115D+00
 Coeff-Com:  0.290D+00 0.643D+00
 Coeff:      0.333D-04 0.618D-03-0.102D-01-0.825D-02-0.298D-01 0.115D+00
 Coeff:      0.290D+00 0.643D+00
 Gap=     0.247 Goal=   None    Shift=    0.000
 Gap=     0.121 Goal=   None    Shift=    0.000
 RMSDP=3.19D-06 MaxDP=4.93D-05 DE=-3.06D-07 OVMax= 7.14D-05

 Initial convergence to 1.0D-05 achieved.  Increase integral accuracy.
 Cycle   9  Pass 1  IDiag  1:
 E= -135.712004785438     Delta-E=       -0.000011276654 Rises=F Damp=F
 DIIS: error= 1.00D-05 at cycle   1 NSaved=   1.
 NSaved= 1 IEnMin= 1 EnMin= -135.712004785438     IErMin= 1 ErrMin= 1.00D-05
 ErrMax= 1.00D-05  0.00D+00 EMaxC= 1.00D-01 BMatC= 1.54D-08 BMatP= 1.54D-08
 IDIUse=1 WtCom= 1.00D+00 WtEn= 0.00D+00
 Coeff-Com:  0.100D+01
 Coeff:      0.100D+01
 Gap=     0.247 Goal=   None    Shift=    0.000
 Gap=     0.121 Goal=   None    Shift=    0.000
 RMSDP=3.19D-06 MaxDP=4.93D-05 DE=-1.13D-05 OVMax= 4.11D-05

 Cycle  10  Pass 1  IDiag  1:
 E= -135.712004786099     Delta-E=       -0.000000000661 Rises=F Damp=F
 DIIS: error= 1.13D-05 at cycle   2 NSaved=   2.
 NSaved= 2 IEnMin= 2 EnMin= -135.712004786099     IErMin= 1 ErrMin= 1.00D-05
 ErrMax= 1.13D-05  0.00D+00 EMaxC= 1.00D-01 BMatC= 1.92D-08 BMatP= 1.54D-08
 IDIUse=1 WtCom= 1.00D+00 WtEn= 0.00D+00
 Coeff-Com:  0.532D+00 0.468D+00
 Coeff:      0.532D+00 0.468D+00
 Gap=     0.247 Goal=   None    Shift=    0.000
 Gap=     0.121 Goal=   None    Shift=    0.000
 RMSDP=1.16D-06 MaxDP=1.76D-05 DE=-6.61D-10 OVMax= 2.36D-05

 Cycle  11  Pass 1  IDiag  1:
 E= -135.712004790998     Delta-E=       -0.000000004898 Rises=F Damp=F
 DIIS: error= 2.11D-06 at cycle   3 NSaved=   3.
 NSaved= 3 IEnMin= 3 EnMin= -135.712004790998     IErMin= 3 ErrMin= 2.11D-06
 ErrMax= 2.11D-06  0.00D+00 EMaxC= 1.00D-01 BMatC= 7.36D-10 BMatP= 1.54D-08
 IDIUse=1 WtCom= 1.00D+00 WtEn= 0.00D+00
 Coeff-Com: -0.216D-01 0.961D-01 0.926D+00
 Coeff:     -0.216D-01 0.961D-01 0.926D+00
 Gap=     0.247 Goal=   None    Shift=    0.000
 Gap=     0.121 Goal=   None    Shift=    0.000
 RMSDP=4.94D-07 MaxDP=6.53D-06 DE=-4.90D-09 OVMax= 1.45D-05

 Cycle  12  Pass 1  IDiag  1:
 E= -135.712004791073     Delta-E=       -0.000000000076 Rises=F Damp=F
 DIIS: error= 2.97D-06 at cycle   4 NSaved=   4.
 NSaved= 4 IEnMin= 4 EnMin= -135.712004791073     IErMin= 3 ErrMin= 2.11D-06
 ErrMax= 2.97D-06  0.00D+00 EMaxC= 1.00D-01 BMatC= 8.32D-10 BMatP= 7.36D-10
 IDIUse=1 WtCom= 1.00D+00 WtEn= 0.00D+00
 Coeff-Com: -0.116D+00-0.198D-01 0.665D+00 0.470D+00
 Coeff:     -0.116D+00-0.198D-01 0.665D+00 0.470D+00
 Gap=     0.247 Goal=   None    Shift=    0.000
 Gap=     0.121 Goal=   None    Shift=    0.000
 RMSDP=3.21D-07 MaxDP=4.85D-06 DE=-7.58D-11 OVMax= 1.32D-05

 Cycle  13  Pass 1  IDiag  1:
 E= -135.712004791295     Delta-E=       -0.000000000222 Rises=F Damp=F
 DIIS: error= 7.98D-07 at cycle   5 NSaved=   5.
 NSaved= 5 IEnMin= 5 EnMin= -135.712004791295     IErMin= 5 ErrMin= 7.98D-07
 ErrMax= 7.98D-07  0.00D+00 EMaxC= 1.00D-01 BMatC= 6.51D-11 BMatP= 7.36D-10
 IDIUse=1 WtCom= 1.00D+00 WtEn= 0.00D+00
 Coeff-Com: -0.570D-01-0.328D-01 0.139D+00 0.247D+00 0.704D+00
 Coeff:     -0.570D-01-0.328D-01 0.139D+00 0.247D+00 0.704D+00
 Gap=     0.247 Goal=   None    Shift=    0.000
 Gap=     0.121 Goal=   None    Shift=    0.000
 RMSDP=1.01D-07 MaxDP=1.05D-06 DE=-2.22D-10 OVMax= 1.61D-06

 Cycle  14  Pass 1  IDiag  1:
 E= -135.712004791315     Delta-E=       -0.000000000020 Rises=F Damp=F
 DIIS: error= 1.01D-07 at cycle   6 NSaved=   6.
 NSaved= 6 IEnMin= 6 EnMin= -135.712004791315     IErMin= 6 ErrMin= 1.01D-07
 ErrMax= 1.01D-07  0.00D+00 EMaxC= 1.00D-01 BMatC= 2.64D-12 BMatP= 6.51D-11
 IDIUse=1 WtCom= 1.00D+00 WtEn= 0.00D+00
 Coeff-Com:  0.393D-03-0.587D-02-0.529D-01 0.592D-03 0.179D+00 0.879D+00
 Coeff:      0.393D-03-0.587D-02-0.529D-01 0.592D-03 0.179D+00 0.879D+00
 Gap=     0.247 Goal=   None    Shift=    0.000
 Gap=     0.121 Goal=   None    Shift=    0.000
 RMSDP=2.40D-08 MaxDP=2.69D-07 DE=-1.98D-11 OVMax= 4.06D-07

 Cycle  15  Pass 1  IDiag  1:
 E= -135.712004791316     Delta-E=       -0.000000000001 Rises=F Damp=F
 DIIS: error= 2.58D-08 at cycle   7 NSaved=   7.
 NSaved= 7 IEnMin= 7 EnMin= -135.712004791316     IErMin= 7 ErrMin= 2.58D-08
 ErrMax= 2.58D-08  0.00D+00 EMaxC= 1.00D-01 BMatC= 1.50D-13 BMatP= 2.64D-12
 IDIUse=1 WtCom= 1.00D+00 WtEn= 0.00D+00
 Coeff-Com:  0.276D-02-0.162D-03-0.208D-01-0.111D-01 0.180D-01 0.255D+00
 Coeff-Com:  0.757D+00
 Coeff:      0.276D-02-0.162D-03-0.208D-01-0.111D-01 0.180D-01 0.255D+00
 Coeff:      0.757D+00
 Gap=     0.247 Goal=   None    Shift=    0.000
 Gap=     0.121 Goal=   None    Shift=    0.000
 RMSDP=5.20D-09 MaxDP=6.85D-08 DE=-7.11D-13 OVMax= 9.15D-08

 SCF Done:  E(UTPSS-TPSS) =  -135.712004791     A.U. after   15 cycles
            NFock= 15  Conv=0.52D-08     -V/T= 2.0055
 <Sx>= 0.0000 <Sy>= 0.0000 <Sz>= 0.5000 <S**2>= 0.7567 S= 0.5033
 <L.S>= 0.000000000000E+00
 KE= 1.349683424387D+02 PE=-4.724964675107D+02 EE= 1.230378149169D+02
 Annihilation of the first spin contaminant:
 S**2 before annihilation     0.7567,   after     0.7500
 Leave Link  502 at Sun Oct 11 11:45:13 2020, MaxMem=  2684354560 cpu:             112.7 elap:               9.5
 (Enter /udrive/faculty/rpeverati/g16/g16/l508.exe)
 QCSCF skips out because SCF is already converged.
 Leave Link  508 at Sun Oct 11 11:45:13 2020, MaxMem=  2684354560 cpu:               0.0 elap:               0.0
 (Enter /udrive/faculty/rpeverati/g16/g16/l601.exe)
 Copying SCF densities to generalized density rwf, IOpCl= 1 IROHF=0.

 **********************************************************************

            Population analysis using the SCF density.

 **********************************************************************

 Orbital symmetries:
 Alpha Orbitals:
       Occupied  (A) (A) (A) (A) (A) (A) (A) (A) (A) (A) (A) (A)
                 (A) (A)
       Virtual   (A) (A) (A) (A) (A) (A) (A) (A) (A) (A) (A) (A)
                 (A) (A) (A) (A) (A) (A) (A) (A) (A) (A) (A) (A)
                 (A) (A) (A) (A) (A) (A) (A) (A) (A) (A) (A) (A)
                 (A) (A) (A) (A) (A) (A) (A) (A)
 Beta  Orbitals:
       Occupied  (A) (A) (A) (A) (A) (A) (A) (A) (A) (A) (A) (A)
                 (A)
       Virtual   (A) (A) (A) (A) (A) (A) (A) (A) (A) (A) (A) (A)
                 (A) (A) (A) (A) (A) (A) (A) (A) (A) (A) (A) (A)
                 (A) (A) (A) (A) (A) (A) (A) (A) (A) (A) (A) (A)
                 (A) (A) (A) (A) (A) (A) (A) (A) (A)
 The electronic state is 2-A.
 Alpha  occ. eigenvalues --  -14.10294  -9.99305  -9.98289  -0.78401  -0.69843
 Alpha  occ. eigenvalues --   -0.56694  -0.41292  -0.41113  -0.39850  -0.34485
 Alpha  occ. eigenvalues --   -0.33246  -0.31292  -0.24191  -0.17396
 Alpha virt. eigenvalues --    0.07344   0.11195   0.13548   0.13941   0.15425
 Alpha virt. eigenvalues --    0.16206   0.18324   0.21918   0.28866   0.47981
 Alpha virt. eigenvalues --    0.50914   0.53682   0.58043   0.59062   0.64143
 Alpha virt. eigenvalues --    0.70070   0.76028   0.76153   0.85775   0.86198
 Alpha virt. eigenvalues --    0.88711   0.89202   0.91850   0.92207   0.94774
 Alpha virt. eigenvalues --    0.98722   1.17625   1.38940   1.46134   1.50727
 Alpha virt. eigenvalues --    1.56667   1.63980   1.65491   1.79268   1.92121
 Alpha virt. eigenvalues --    1.92167   2.00003   2.10574   2.25239   2.31332
 Alpha virt. eigenvalues --    2.35746   2.36717   2.42054   2.57870
  Beta  occ. eigenvalues --  -14.09013  -9.98425  -9.98314  -0.75733  -0.68907
  Beta  occ. eigenvalues --   -0.55647  -0.40730  -0.39483  -0.39364  -0.33302
  Beta  occ. eigenvalues --   -0.32760  -0.31107  -0.22280
  Beta virt. eigenvalues --   -0.10143   0.08101   0.11638   0.14033   0.14669
  Beta virt. eigenvalues --    0.15791   0.16499   0.18853   0.22705   0.30383
  Beta virt. eigenvalues --    0.48534   0.51244   0.54375   0.59363   0.61171
  Beta virt. eigenvalues --    0.65240   0.73995   0.76716   0.77580   0.86700
  Beta virt. eigenvalues --    0.86766   0.89819   0.90557   0.92957   0.94750
  Beta virt. eigenvalues --    0.96207   0.99393   1.18809   1.40218   1.47770
  Beta virt. eigenvalues --    1.52884   1.58704   1.68490   1.68538   1.82605
  Beta virt. eigenvalues --    1.93698   1.94197   2.02281   2.14141   2.26716
  Beta virt. eigenvalues --    2.32128   2.37556   2.41711   2.44506   2.59871
          Condensed to atoms (all electrons):
               1          2          3          4          5          6
     1  C    5.042767   0.350414   0.002624   0.383694   0.383693   0.376833
     2  C    0.350414   5.378457  -0.119291  -0.035586  -0.035587  -0.035790
     3  N    0.002624  -0.119291   7.168286   0.001311   0.001311  -0.000066
     4  H    0.383694  -0.035586   0.001311   0.548365  -0.028817  -0.032321
     5  H    0.383693  -0.035587   0.001311  -0.028817   0.548373  -0.032322
     6  H    0.376833  -0.035790  -0.000066  -0.032321  -0.032322   0.566109
     7  H   -0.035339   0.367087   0.001555  -0.003360   0.004510  -0.002630
     8  H   -0.035340   0.367084   0.001555   0.004510  -0.003360  -0.002630
     9  H   -0.022716   0.205325   0.159574  -0.003949  -0.003950   0.002937
    10  H    0.000009   0.011779   0.271199  -0.000020  -0.000031  -0.000005
    11  H    0.000009   0.011779   0.271199  -0.000032  -0.000020  -0.000005
               7          8          9         10         11
     1  C   -0.035339  -0.035340  -0.022716   0.000009   0.000009
     2  C    0.367087   0.367084   0.205325   0.011779   0.011779
     3  N    0.001555   0.001555   0.159574   0.271199   0.271199
     4  H   -0.003360   0.004510  -0.003949  -0.000020  -0.000032
     5  H    0.004510  -0.003360  -0.003950  -0.000031  -0.000020
     6  H   -0.002630  -0.002630   0.002937  -0.000005  -0.000005
     7  H    0.556040  -0.032121  -0.017513  -0.000634  -0.000024
     8  H   -0.032121   0.556048  -0.017512  -0.000024  -0.000634
     9  H   -0.017513  -0.017512   0.488651  -0.028672  -0.028672
    10  H   -0.000634  -0.000024  -0.028672   0.480527  -0.028094
    11  H   -0.000024  -0.000634  -0.028672  -0.028094   0.480529
          Atomic-Atomic Spin Densities.
               1          2          3          4          5          6
     1  C   -0.012647  -0.036079   0.006519   0.004371   0.004371   0.004356
     2  C   -0.036079   0.678943  -0.123767  -0.005491  -0.005492  -0.007956
     3  N    0.006519  -0.123767   0.778983   0.000939   0.000939  -0.000295
     4  H    0.004371  -0.005491   0.000939   0.006433   0.001425  -0.004323
     5  H    0.004371  -0.005492   0.000939   0.001425   0.006435  -0.004324
     6  H    0.004356  -0.007956  -0.000295  -0.004323  -0.004324   0.046644
     7  H    0.003760  -0.016994   0.004337   0.000761   0.000220  -0.001627
     8  H    0.003760  -0.016991   0.004336   0.000220   0.000761  -0.001627
     9  H   -0.000695   0.037562  -0.038457  -0.000132  -0.000132   0.000055
    10  H   -0.000210   0.005025  -0.013151  -0.000046  -0.000019   0.000009
    11  H   -0.000210   0.005025  -0.013151  -0.000019  -0.000047   0.000009
               7          8          9         10         11
     1  C    0.003760   0.003760  -0.000695  -0.000210  -0.000210
     2  C   -0.016994  -0.016991   0.037562   0.005025   0.005025
     3  N    0.004337   0.004336  -0.038457  -0.013151  -0.013151
     4  H    0.000761   0.000220  -0.000132  -0.000046  -0.000019
     5  H    0.000220   0.000761  -0.000132  -0.000019  -0.000047
     6  H   -0.001627  -0.001627   0.000055   0.000009   0.000009
     7  H   -0.008871   0.003465   0.001887  -0.000353  -0.000158
     8  H    0.003465  -0.008874   0.001888  -0.000158  -0.000353
     9  H    0.001887   0.001888  -0.089119   0.003335   0.003335
    10  H   -0.000353  -0.000158   0.003335  -0.012652   0.003276
    11  H   -0.000158  -0.000353   0.003335   0.003276  -0.012652
 Mulliken charges and spin densities:
               1          2
     1  C   -0.446647  -0.022704
     2  C   -0.465670   0.513784
     3  N   -0.759258   0.607231
     4  H    0.166205   0.004137
     5  H    0.166198   0.004138
     6  H    0.159890   0.030921
     7  H    0.162429  -0.013573
     8  H    0.162425  -0.013574
     9  H    0.266496  -0.080473
    10  H    0.293967  -0.014944
    11  H    0.293965  -0.014944
 Sum of Mulliken charges =  -0.00000   1.00000
 Mulliken charges and spin densities with hydrogens summed into heavy atoms:
               1          2
     1  C    0.045646   0.016492
     2  C    0.125679   0.406164
     3  N   -0.171325   0.577343
 Electronic spatial extent (au):  <R**2>=            316.7734
 Charge=             -0.0000 electrons
 Dipole moment (field-independent basis, Debye):
    X=             -0.1716    Y=              1.7081    Z=              0.0006  Tot=              1.7167
 Quadrupole moment (field-independent basis, Debye-Ang):
   XX=            -20.2550   YY=            -23.2072   ZZ=            -19.9713
   XY=              3.4767   XZ=              0.0013   YZ=             -0.0009
 Traceless Quadrupole moment (field-independent basis, Debye-Ang):
   XX=              0.8895   YY=             -2.0627   ZZ=              1.1732
   XY=              3.4767   XZ=              0.0013   YZ=             -0.0009
 Octapole moment (field-independent basis, Debye-Ang**2):
  XXX=              7.7713  YYY=              1.5641  ZZZ=              0.0011  XYY=             -1.8111
  XXY=              6.7734  XXZ=              0.0022  XZZ=              3.7773  YZZ=              0.5337
  YYZ=              0.0002  XYZ=             -0.0019
 Hexadecapole moment (field-independent basis, Debye-Ang**3):
 XXXX=           -283.7069 YYYY=            -76.2349 ZZZZ=            -37.0669 XXXY=             13.0520
 XXXZ=              0.0038 YYYX=              3.8671 YYYZ=             -0.0013 ZZZX=              0.0025
 ZZZY=             -0.0006 XXYY=            -69.2437 XXZZ=            -50.7767 YYZZ=            -16.9225
 XXYZ=             -0.0042 YYXZ=              0.0004 ZZXY=              1.4535
 N-N= 7.877830536383D+01 E-N=-4.724964693827D+02  KE= 1.349683424387D+02
                          Isotropic Fermi Contact Couplings
        Atom                 a.u.       MegaHertz       Gauss      10(-4) cm-1
     1  C(13)             -0.01029     -11.57325      -4.12962      -3.86042
     2  C(13)              0.17050     191.66989      68.39258      63.93419
     3  N(14)              0.11352      36.67746      13.08743      12.23428
     4  H(1)               0.00229      10.21619       3.64539       3.40775
     5  H(1)               0.00229      10.21774       3.64594       3.40827
     6  H(1)               0.01660      74.19634      26.47510      24.74924
     7  H(1)              -0.00450     -20.12859      -7.18238      -6.71417
     8  H(1)              -0.00450     -20.13051      -7.18307      -6.71481
     9  H(1)              -0.02680    -119.80044     -42.74778     -39.96113
    10  H(1)              -0.00816     -36.46441     -13.01141     -12.16322
    11  H(1)              -0.00816     -36.46435     -13.01139     -12.16320
 --------------------------------------------------------
       Center         ----  Spin Dipole Couplings  ----
                      3XX-RR        3YY-RR        3ZZ-RR
 --------------------------------------------------------
     1   Atom        0.021346     -0.007506     -0.013840
     2   Atom        0.439418     -0.144591     -0.294827
     3   Atom        0.743577     -0.072746     -0.670832
     4   Atom        0.001260      0.003020     -0.004280
     5   Atom        0.001260      0.003021     -0.004281
     6   Atom        0.007938     -0.001252     -0.006685
     7   Atom       -0.008636     -0.007490      0.016127
     8   Atom       -0.008636     -0.007497      0.016133
     9   Atom        0.179040     -0.066120     -0.112920
    10   Atom       -0.006578     -0.020742      0.027320
    11   Atom       -0.006600     -0.020816      0.027416
 --------------------------------------------------------
                        XY            XZ            YZ
 --------------------------------------------------------
     1   Atom        0.010854      0.000000      0.000000
     2   Atom       -0.331530     -0.000021      0.000010
     3   Atom       -0.942404     -0.000165      0.000099
     4   Atom        0.006168      0.004394      0.005612
     5   Atom        0.006168     -0.004393     -0.005612
     6   Atom        0.002328     -0.000000      0.000000
     7   Atom       -0.012625     -0.000748     -0.034039
     8   Atom       -0.012625      0.000747      0.034037
     9   Atom       -0.116603     -0.000006      0.000003
    10   Atom        0.001765     -0.043579     -0.051047
    11   Atom        0.001720      0.043571      0.051012
 --------------------------------------------------------


 ---------------------------------------------------------------------------------
              Anisotropic Spin Dipole Couplings in Principal Axis System
 ---------------------------------------------------------------------------------

       Atom             a.u.   MegaHertz   Gauss  10(-4) cm-1        Axes

              Baa    -0.0138    -1.857    -0.663    -0.619  0.0000 -0.0000  1.0000
     1 C(13)  Bbb    -0.0111    -1.494    -0.533    -0.498 -0.3169  0.9484  0.0000
              Bcc     0.0250     3.351     1.196     1.118  0.9484  0.3169  0.0000
 
              Baa    -0.2948   -39.563   -14.117   -13.197 -0.0001 -0.0003  1.0000
     2 C(13)  Bbb    -0.2944   -39.503   -14.096   -13.177  0.4117  0.9113  0.0003
              Bcc     0.5892    79.066    28.213    26.373  0.9113 -0.4117 -0.0000
 
              Baa    -0.6916   -26.673    -9.517    -8.897  0.5489  0.8359  0.0004
     3 N(14)  Bbb    -0.6708   -25.872    -9.232    -8.630 -0.0001 -0.0004  1.0000
              Bcc     1.3624    52.545    18.749    17.527  0.8359 -0.5489 -0.0001
 
              Baa    -0.0075    -4.006    -1.430    -1.336 -0.1949 -0.3700  0.9084
     4 H(1)   Bbb    -0.0041    -2.166    -0.773    -0.723  0.7831 -0.6163 -0.0830
              Bcc     0.0116     6.173     2.203     2.059  0.5906  0.6951  0.4099
 
              Baa    -0.0075    -4.006    -1.430    -1.336  0.1949  0.3699  0.9084
     5 H(1)   Bbb    -0.0041    -2.166    -0.773    -0.723  0.7831 -0.6163  0.0829
              Bcc     0.0116     6.173     2.203     2.059  0.5906  0.6952 -0.4098
 
              Baa    -0.0067    -3.567    -1.273    -1.190  0.0000 -0.0001  1.0000
     6 H(1)   Bbb    -0.0018    -0.965    -0.344    -0.322 -0.2323  0.9726  0.0001
              Bcc     0.0085     4.532     1.617     1.512  0.9726  0.2323 -0.0000
 
              Baa    -0.0360   -19.209    -6.854    -6.407  0.3715  0.7749  0.5113
     7 H(1)   Bbb    -0.0053    -2.815    -1.004    -0.939  0.9182 -0.2251 -0.3259
              Bcc     0.0413    22.024     7.859     7.347  0.1375 -0.5906  0.7952
 
              Baa    -0.0360   -19.209    -6.854    -6.407  0.3715  0.7750 -0.5113
     8 H(1)   Bbb    -0.0053    -2.815    -1.005    -0.939  0.9182 -0.2251  0.3259
              Bcc     0.0413    22.024     7.859     7.347 -0.1375  0.5905  0.7952
 
              Baa    -0.1129   -60.249   -21.498   -20.097 -0.0009 -0.0024  1.0000
     9 H(1)   Bbb    -0.1127   -60.143   -21.460   -20.061  0.3711  0.9286  0.0026
              Bcc     0.2256   120.391    42.959    40.158  0.9286 -0.3711 -0.0000
 
              Baa    -0.0636   -33.950   -12.114   -11.325  0.4292  0.6842  0.5897
    10 H(1)   Bbb    -0.0138    -7.366    -2.628    -2.457  0.7975 -0.5936  0.1082
              Bcc     0.0774    41.316    14.743    13.782 -0.4241 -0.4238  0.8004
 
              Baa    -0.0636   -33.950   -12.114   -11.324  0.4294  0.6846 -0.5890
    11 H(1)   Bbb    -0.0138    -7.366    -2.628    -2.457  0.7975 -0.5935 -0.1085
              Bcc     0.0774    41.316    14.743    13.782  0.4239  0.4232  0.8008
 

 ---------------------------------------------------------------------------------

 No NMR shielding tensors so no spin-rotation constants.
 Leave Link  601 at Sun Oct 11 11:45:13 2020, MaxMem=  2684354560 cpu:               5.3 elap:               0.5
 (Enter /udrive/faculty/rpeverati/g16/g16/l701.exe)
 ... and contract with generalized density number  0.
 Compute integral first derivatives.
 R6Disp: Adding Grimme-D3(BJ) dispersion energy 1st derivatives to the gradient.
 Leave Link  701 at Sun Oct 11 11:45:14 2020, MaxMem=  2684354560 cpu:               2.8 elap:               0.3
 (Enter /udrive/faculty/rpeverati/g16/g16/l702.exe)
 L702 exits ... SP integral derivatives will be done elsewhere.
 Leave Link  702 at Sun Oct 11 11:45:14 2020, MaxMem=  2684354560 cpu:               0.6 elap:               0.1
 (Enter /udrive/faculty/rpeverati/g16/g16/l703.exe)
 Integral derivatives from FoFJK, PRISM(SPDF).
 Compute integral first derivatives, UseDBF=F ICtDFT=           0.
 Calling FoFJK, ICntrl=      2527 FMM=F ISym2X=0 I1Cent= 0 IOpClX= 0 NMat=1 NMatS=1 NMatT=0.
 FoFJK:  IHMeth= 1 ICntrl=    2527 DoSepK=F KAlg= 0 I1Cent=           0 FoldK=F
 IRaf=         0 NMat=       1 IRICut=       1 DoRegI=T DoRafI=F ISym2E= 0 IDoP0=0 IntGTp=1.
 FoFCou: FMM=F IPFlag=           0 FMFlag=      100000 FMFlg1=         800
         NFxFlg=           0 DoJE=F BraDBF=F KetDBF=F FulRan=T
         wScrn=  0.000000 ICntrl=      2527 IOpCl=  0 I1Cent=           0 NGrid=           0
         NMat0=    1 NMatS0=      1 NMatT0=    0 NMatD0=    1 NMtDS0=    0 NMtDT0=    0
 Symmetry not used in FoFCou.
 Leave Link  703 at Sun Oct 11 11:45:16 2020, MaxMem=  2684354560 cpu:              19.7 elap:               1.7
 (Enter /udrive/faculty/rpeverati/g16/g16/l716.exe)
 Dipole        =-6.75003998D-02 6.72016310D-01 2.53256257D-04
 ***** Axes restored to original set *****
 -------------------------------------------------------------------
 Center     Atomic                   Forces (Hartrees/Bohr)
 Number     Number              X              Y              Z
 -------------------------------------------------------------------
      1        6           0.002274748    0.001449836    0.000000810
      2        6           0.000633524   -0.001204020    0.000000379
      3        7          -0.003947399   -0.013331005   -0.000002725
      4        1           0.000520333   -0.003133117   -0.004557215
      5        1           0.000520510   -0.003133276    0.004556364
      6        1          -0.005967348    0.001930528    0.000000015
      7        1          -0.000542275    0.003516562   -0.004752021
      8        1          -0.000542232    0.003515855    0.004752332
      9        1          -0.004172455   -0.001914202   -0.000001014
     10        1           0.005613044    0.006155023   -0.007623739
     11        1           0.005609550    0.006147815    0.007626813
 -------------------------------------------------------------------
 Cartesian Forces:  Max     0.013331005 RMS     0.004438004
 Leave Link  716 at Sun Oct 11 11:45:16 2020, MaxMem=  2684354560 cpu:               0.6 elap:               0.1
 (Enter /udrive/faculty/rpeverati/g16/g16/l103.exe)

 GradGradGradGradGradGradGradGradGradGradGradGradGradGradGradGradGradGrad
 Berny optimization.
 Optmz: redundant internal coordinate code flag= 1
 FormGI is forming the generalized inverse of G from B-inverse, IUseBI=4.
 Internal  Forces:  Max     0.011116484 RMS     0.003510069
 Numerically estimating second derivatives.
 Iteration  1 RMS(Cart)=  0.00116150 RMS(Int)=  0.00000168
 Iteration  2 RMS(Cart)=  0.00000019 RMS(Int)=  0.00000167
 Largest change from initial coordinates is atom    3       0.002 Angstoms.
 GradGradGradGradGradGradGradGradGradGradGradGradGradGradGradGradGradGrad

 Leave Link  103 at Sun Oct 11 11:45:16 2020, MaxMem=  2684354560 cpu:               0.5 elap:               0.1
 (Enter /udrive/faculty/rpeverati/g16/g16/l202.exe)
                          Input orientation:                          
 ---------------------------------------------------------------------
 Center     Atomic      Atomic             Coordinates (Angstroms)
 Number     Number       Type             X           Y           Z
 ---------------------------------------------------------------------
      1          6           0       -1.486447   -0.448077   -0.000019
      2          6           0       -0.506065    0.702059    0.000030
      3          7           0        1.866779   -0.340410   -0.000059
      4          1           0       -1.354780   -1.076396   -0.880502
      5          1           0       -1.354755   -1.076498    0.880389
      6          1           0       -2.517858   -0.086344    0.000020
      7          1           0       -0.523390    1.316430   -0.897218
      8          1           0       -0.523380    1.316348    0.897336
      9          1           0        0.666552    0.147432   -0.000026
     10          1           0        2.248138    0.159568   -0.804808
     11          1           0        2.247948    0.158977    0.805152
 ---------------------------------------------------------------------
                    Distance matrix (angstroms):
                    1          2          3          4          5
     1  C    0.000000
     2  C    1.511277   0.000000
     3  N    3.354954   2.591743   0.000000
     4  H    1.089665   2.158368   3.419839   0.000000
     5  H    1.089667   2.158372   3.419839   1.760890   0.000000
     6  H    1.093006   2.160761   4.391992   1.763030   1.763027
     7  H    2.201347   1.087569   3.043505   2.533200   3.094698
     8  H    2.201349   1.087569   3.043522   3.094698   2.533216
     9  H    2.233838   1.297167   1.295583   2.521661   2.521670
    10  H    3.868338   2.920222   1.021290   3.809771   4.165164
    11  H    3.868141   2.920231   1.021294   4.164999   3.809400
                    6          7          8          9         10
     6  H    0.000000
     7  H    2.598213   0.000000
     8  H    2.598204   1.794554   0.000000
     9  H    3.192980   1.894063   1.894086   0.000000
    10  H    4.839726   3.004703   3.452064   1.774609   0.000000
    11  H    4.839559   3.452257   3.004707   1.774615   1.609960
                   11
    11  H    0.000000
 Stoichiometry    C2H8N(2)
 Framework group  C1[X(C2H8N)]
 Deg. of freedom    27
 Full point group                 C1      NOp   1
 RotChk:  IX=0 Diff= 3.79D-04
 Largest Abelian subgroup         C1      NOp   1
 Largest concise Abelian subgroup C1      NOp   1
                         Standard orientation:                         
 ---------------------------------------------------------------------
 Center     Atomic      Atomic             Coordinates (Angstroms)
 Number     Number       Type             X           Y           Z
 ---------------------------------------------------------------------
      1          6           0       -1.486358   -0.448496   -0.000019
      2          6           0       -0.506285    0.701903    0.000031
      3          7           0        1.866839   -0.339929   -0.000059
      4          1           0       -1.354523   -1.076779   -0.880501
      5          1           0       -1.354498   -1.076882    0.880389
      6          1           0       -2.517867   -0.087039    0.000020
      7          1           0       -0.523775    1.316270   -0.897218
      8          1           0       -0.523765    1.316187    0.897336
      9          1           0        0.666481    0.147591   -0.000026
     10          1           0        2.248064    0.160151   -0.804808
     11          1           0        2.247873    0.159560    0.805152
 ---------------------------------------------------------------------
 Rotational constants (GHZ):          24.9530098           4.8498919           4.3765408
 Leave Link  202 at Sun Oct 11 11:45:16 2020, MaxMem=  2684354560 cpu:               0.1 elap:               0.0
 (Enter /udrive/faculty/rpeverati/g16/g16/l301.exe)
 Standard basis: 6-31G(d) (5D, 7F)
 Ernie: Thresh=  0.10000D-02 Tol=  0.10000D-05 Strict=F.
 There are    61 symmetry adapted cartesian basis functions of A   symmetry.
 There are    58 symmetry adapted basis functions of A   symmetry.
    58 basis functions,   116 primitive gaussians,    61 cartesian basis functions
    14 alpha electrons       13 beta electrons
       nuclear repulsion energy        78.7568701604 Hartrees.
 IExCor= 2523 DFT=T Ex=TPSS Corr=TPSS ExCW=0 ScaHFX=  0.000000
 ScaDFX=  1.000000  1.000000  1.000000  1.000000 ScalE2=  1.000000  1.000000
 IRadAn=      5 IRanWt=     -1 IRanGd=            0 ICorTp=0 IEmpDi=141
 NAtoms=   11 NActive=   11 NUniq=   11 SFac= 1.00D+00 NAtFMM=   60 NAOKFM=F Big=F
 Integral buffers will be    131072 words long.
 Raffenetti 2 integral format.
 Two-electron integral symmetry is turned on.
 R6Disp:  Grimme-D3(BJ) Dispersion energy=       -0.0065994159 Hartrees.
 Nuclear repulsion after empirical dispersion term =       78.7502707445 Hartrees.
 Leave Link  301 at Sun Oct 11 11:45:16 2020, MaxMem=  2684354560 cpu:               0.9 elap:               0.1
 (Enter /udrive/faculty/rpeverati/g16/g16/l302.exe)
 NPDir=0 NMtPBC=     1 NCelOv=     1 NCel=       1 NClECP=     1 NCelD=      1
         NCelK=      1 NCelE2=     1 NClLst=     1 CellRange=     0.0.
 One-electron integrals computed using PRISM.
 One-electron integral symmetry used in STVInt
 NBasis=    58 RedAO= T EigKep=  6.32D-03  NBF=    58
 NBsUse=    58 1.00D-06 EigRej= -1.00D+00 NBFU=    58
 Precomputing XC quadrature grid using
 IXCGrd= 4 IRadAn=           5 IRanWt=          -1 IRanGd=           0 AccXCQ= 0.00D+00.
 Generated NRdTot=       0 NPtTot=           0 NUsed=           0 NTot=          32
 NSgBfM=    61    61    61    61    61 MxSgAt=    11 MxSgA2=    11.
 Leave Link  302 at Sun Oct 11 11:45:16 2020, MaxMem=  2684354560 cpu:               3.3 elap:               0.3
 (Enter /udrive/faculty/rpeverati/g16/g16/l303.exe)
 DipDrv:  MaxL=1.
 Leave Link  303 at Sun Oct 11 11:45:16 2020, MaxMem=  2684354560 cpu:               0.6 elap:               0.1
 (Enter /udrive/faculty/rpeverati/g16/g16/l401.exe)
 Initial guess from the checkpoint file:  "MN_94_RKT20_BH76_TPSSDBJ_631Gs.chk"
 SCF N**3 symmetry information disabled.
 B after Tr=     0.000000   -0.000000   -0.000000
         Rot=    1.000000   -0.000000   -0.000000   -0.000142 Ang=  -0.02 deg.
 Guess basis will be translated and rotated to current coordinates.
 JPrj=2 DoOrth=T DoCkMO=T.
 Initial guess <Sx>= 0.0000 <Sy>= 0.0000 <Sz>= 0.5000 <S**2>= 0.7567 S= 0.5033
 Generating alternative initial guess.
 ExpMin= 1.61D-01 ExpMax= 4.17D+03 ExpMxC= 6.27D+02 IAcc=2 IRadAn=         4 AccDes= 0.00D+00
 Harris functional with IExCor= 1009 and IRadAn=       4 diagonalized for initial guess.
 HarFok:  IExCor= 1009 AccDes= 0.00D+00 IRadAn=         4 IDoV= 1 UseB2=F ITyADJ=14
 ICtDFT=  3500011 ScaDFX=  1.000000  1.000000  1.000000  1.000000
 FoFCou: FMM=F IPFlag=           0 FMFlag=      100000 FMFlg1=           0
         NFxFlg=           0 DoJE=T BraDBF=F KetDBF=T FulRan=T
         wScrn=  0.000000 ICntrl=       500 IOpCl=  0 I1Cent=   200000004 NGrid=           0
         NMat0=    1 NMatS0=      1 NMatT0=    0 NMatD0=    1 NMtDS0=    0 NMtDT0=    0
 Petite list used in FoFCou.
 Harris En= -135.582310742342    
 Leave Link  401 at Sun Oct 11 11:45:17 2020, MaxMem=  2684354560 cpu:               6.4 elap:               0.6
 (Enter /udrive/faculty/rpeverati/g16/g16/l502.exe)
 Keep J ints in memory in canonical form, NReq=12081231.
 FoFCou: FMM=F IPFlag=           0 FMFlag=           0 FMFlg1=           0
         NFxFlg=           0 DoJE=F BraDBF=F KetDBF=F FulRan=T
         wScrn=  0.000000 ICntrl=       600 IOpCl=  0 I1Cent=           0 NGrid=           0
         NMat0=    1 NMatS0=   1711 NMatT0=    0 NMatD0=    1 NMtDS0=    0 NMtDT0=    0
 Symmetry not used in FoFCou.
 Two-electron integral symmetry not used.
 UHF open shell SCF:
 Using DIIS extrapolation, IDIIS=  1040.
 NGot=  2684354560 LenX=  2682880805 LenY=  2682876643
 Requested convergence on RMS density matrix=1.00D-08 within 120 cycles.
 Requested convergence on MAX density matrix=1.00D-06.
 Requested convergence on             energy=1.00D-06.
 No special actions if energy rises.
 Integral accuracy reduced to 1.0D-05 until final iterations.

 Cycle   1  Pass 0  IDiag  1:
 E= -135.712011522595    
 DIIS: error= 7.34D-05 at cycle   1 NSaved=   1.
 NSaved= 1 IEnMin= 1 EnMin= -135.712011522595     IErMin= 1 ErrMin= 7.34D-05
 ErrMax= 7.34D-05  0.00D+00 EMaxC= 1.00D-01 BMatC= 2.38D-06 BMatP= 2.38D-06
 IDIUse=1 WtCom= 1.00D+00 WtEn= 0.00D+00
 Coeff-Com:  0.100D+01
 Coeff:      0.100D+01
 Gap=     0.463 Goal=   None    Shift=    0.000
 Gap=     0.531 Goal=   None    Shift=    0.000
 RMSDP=3.36D-05 MaxDP=4.55D-04              OVMax= 1.12D-03

 Cycle   2  Pass 0  IDiag  1:
 E= -135.712012020454     Delta-E=       -0.000000497859 Rises=F Damp=F
 DIIS: error= 1.19D-04 at cycle   2 NSaved=   2.
 NSaved= 2 IEnMin= 2 EnMin= -135.712012020454     IErMin= 1 ErrMin= 7.34D-05
 ErrMax= 1.19D-04  0.00D+00 EMaxC= 1.00D-01 BMatC= 2.57D-06 BMatP= 2.38D-06
 IDIUse=3 WtCom= 9.99D-01 WtEn= 1.19D-03
 Coeff-Com:  0.515D+00 0.485D+00
 Coeff-En:   0.244D+00 0.756D+00
 Coeff:      0.514D+00 0.486D+00
 Gap=     0.247 Goal=   None    Shift=    0.000
 Gap=     0.121 Goal=   None    Shift=    0.000
 RMSDP=2.30D-05 MaxDP=3.12D-04 DE=-4.98D-07 OVMax= 8.48D-04

 Cycle   3  Pass 0  IDiag  1:
 E= -135.712012494946     Delta-E=       -0.000000474492 Rises=F Damp=F
 DIIS: error= 8.18D-05 at cycle   3 NSaved=   3.
 NSaved= 3 IEnMin= 3 EnMin= -135.712012494946     IErMin= 1 ErrMin= 7.34D-05
 ErrMax= 8.18D-05  0.00D+00 EMaxC= 1.00D-01 BMatC= 8.28D-07 BMatP= 2.38D-06
 IDIUse=1 WtCom= 1.00D+00 WtEn= 0.00D+00
 Coeff-Com:  0.352D-01 0.352D+00 0.613D+00
 Coeff:      0.352D-01 0.352D+00 0.613D+00
 Gap=     0.248 Goal=   None    Shift=    0.000
 Gap=     0.121 Goal=   None    Shift=    0.000
 RMSDP=8.43D-06 MaxDP=1.52D-04 DE=-4.74D-07 OVMax= 3.72D-04

 Initial convergence to 1.0D-05 achieved.  Increase integral accuracy.
 Cycle   4  Pass 1  IDiag  1:
 E= -135.712023937173     Delta-E=       -0.000011442228 Rises=F Damp=F
 DIIS: error= 1.55D-05 at cycle   1 NSaved=   1.
 NSaved= 1 IEnMin= 1 EnMin= -135.712023937173     IErMin= 1 ErrMin= 1.55D-05
 ErrMax= 1.55D-05  0.00D+00 EMaxC= 1.00D-01 BMatC= 2.80D-08 BMatP= 2.80D-08
 IDIUse=1 WtCom= 1.00D+00 WtEn= 0.00D+00
 Coeff-Com:  0.100D+01
 Coeff:      0.100D+01
 Gap=     0.247 Goal=   None    Shift=    0.000
 Gap=     0.121 Goal=   None    Shift=    0.000
 RMSDP=8.43D-06 MaxDP=1.52D-04 DE=-1.14D-05 OVMax= 6.75D-05

 Cycle   5  Pass 1  IDiag  1:
 E= -135.712023929652     Delta-E=        0.000000007521 Rises=F Damp=F
 DIIS: error= 2.64D-05 at cycle   2 NSaved=   2.
 NSaved= 2 IEnMin= 1 EnMin= -135.712023937173     IErMin= 1 ErrMin= 1.55D-05
 ErrMax= 2.64D-05  0.00D+00 EMaxC= 1.00D-01 BMatC= 6.13D-08 BMatP= 2.80D-08
 IDIUse=1 WtCom= 1.00D+00 WtEn= 0.00D+00
 Coeff-Com:  0.602D+00 0.398D+00
 Coeff:      0.602D+00 0.398D+00
 Gap=     0.247 Goal=   None    Shift=    0.000
 Gap=     0.121 Goal=   None    Shift=    0.000
 RMSDP=2.59D-06 MaxDP=4.05D-05 DE= 7.52D-09 OVMax= 7.84D-05

 Cycle   6  Pass 1  IDiag  1:
 E= -135.712023944168     Delta-E=       -0.000000014516 Rises=F Damp=F
 DIIS: error= 4.86D-06 at cycle   3 NSaved=   3.
 NSaved= 3 IEnMin= 3 EnMin= -135.712023944168     IErMin= 3 ErrMin= 4.86D-06
 ErrMax= 4.86D-06  0.00D+00 EMaxC= 1.00D-01 BMatC= 3.60D-09 BMatP= 2.80D-08
 IDIUse=1 WtCom= 1.00D+00 WtEn= 0.00D+00
 Coeff-Com:  0.286D+00 0.247D+00 0.467D+00
 Coeff:      0.286D+00 0.247D+00 0.467D+00
 Gap=     0.247 Goal=   None    Shift=    0.000
 Gap=     0.121 Goal=   None    Shift=    0.000
 RMSDP=6.38D-07 MaxDP=8.61D-06 DE=-1.45D-08 OVMax= 2.21D-05

 Cycle   7  Pass 1  IDiag  1:
 E= -135.712023945057     Delta-E=       -0.000000000889 Rises=F Damp=F
 DIIS: error= 1.14D-06 at cycle   4 NSaved=   4.
 NSaved= 4 IEnMin= 4 EnMin= -135.712023945057     IErMin= 4 ErrMin= 1.14D-06
 ErrMax= 1.14D-06  0.00D+00 EMaxC= 1.00D-01 BMatC= 2.50D-10 BMatP= 3.60D-09
 IDIUse=1 WtCom= 1.00D+00 WtEn= 0.00D+00
 Coeff-Com:  0.366D-03 0.357D-01 0.202D+00 0.762D+00
 Coeff:      0.366D-03 0.357D-01 0.202D+00 0.762D+00
 Gap=     0.247 Goal=   None    Shift=    0.000
 Gap=     0.121 Goal=   None    Shift=    0.000
 RMSDP=1.95D-07 MaxDP=3.40D-06 DE=-8.89D-10 OVMax= 8.12D-06

 Cycle   8  Pass 1  IDiag  1:
 E= -135.712023945137     Delta-E=       -0.000000000080 Rises=F Damp=F
 DIIS: error= 4.27D-07 at cycle   5 NSaved=   5.
 NSaved= 5 IEnMin= 5 EnMin= -135.712023945137     IErMin= 5 ErrMin= 4.27D-07
 ErrMax= 4.27D-07  0.00D+00 EMaxC= 1.00D-01 BMatC= 4.43D-11 BMatP= 2.50D-10
 IDIUse=1 WtCom= 1.00D+00 WtEn= 0.00D+00
 Coeff-Com: -0.421D-01-0.222D-01-0.208D-01 0.298D+00 0.787D+00
 Coeff:     -0.421D-01-0.222D-01-0.208D-01 0.298D+00 0.787D+00
 Gap=     0.247 Goal=   None    Shift=    0.000
 Gap=     0.121 Goal=   None    Shift=    0.000
 RMSDP=1.01D-07 MaxDP=1.83D-06 DE=-8.03D-11 OVMax= 2.31D-06

 Cycle   9  Pass 1  IDiag  1:
 E= -135.712023945152     Delta-E=       -0.000000000015 Rises=F Damp=F
 DIIS: error= 8.89D-08 at cycle   6 NSaved=   6.
 NSaved= 6 IEnMin= 6 EnMin= -135.712023945152     IErMin= 6 ErrMin= 8.89D-08
 ErrMax= 8.89D-08  0.00D+00 EMaxC= 1.00D-01 BMatC= 2.05D-12 BMatP= 4.43D-11
 IDIUse=1 WtCom= 1.00D+00 WtEn= 0.00D+00
 Coeff-Com: -0.690D-02-0.767D-02-0.311D-01-0.268D-01 0.129D+00 0.943D+00
 Coeff:     -0.690D-02-0.767D-02-0.311D-01-0.268D-01 0.129D+00 0.943D+00
 Gap=     0.247 Goal=   None    Shift=    0.000
 Gap=     0.121 Goal=   None    Shift=    0.000
 RMSDP=2.28D-08 MaxDP=2.25D-07 DE=-1.50D-11 OVMax= 4.50D-07

 Cycle  10  Pass 1  IDiag  1:
 E= -135.712023945153     Delta-E=       -0.000000000001 Rises=F Damp=F
 DIIS: error= 2.57D-08 at cycle   7 NSaved=   7.
 NSaved= 7 IEnMin= 7 EnMin= -135.712023945153     IErMin= 7 ErrMin= 2.57D-08
 ErrMax= 2.57D-08  0.00D+00 EMaxC= 1.00D-01 BMatC= 1.98D-13 BMatP= 2.05D-12
 IDIUse=1 WtCom= 1.00D+00 WtEn= 0.00D+00
 Coeff-Com:  0.236D-02 0.335D-03-0.591D-02-0.330D-01-0.381D-01 0.242D+00
 Coeff-Com:  0.833D+00
 Coeff:      0.236D-02 0.335D-03-0.591D-02-0.330D-01-0.381D-01 0.242D+00
 Coeff:      0.833D+00
 Gap=     0.247 Goal=   None    Shift=    0.000
 Gap=     0.121 Goal=   None    Shift=    0.000
 RMSDP=6.05D-09 MaxDP=8.90D-08 DE=-9.09D-13 OVMax= 1.30D-07

 SCF Done:  E(UTPSS-TPSS) =  -135.712023945     A.U. after   10 cycles
            NFock= 10  Conv=0.61D-08     -V/T= 2.0055
 <Sx>= 0.0000 <Sy>= 0.0000 <Sz>= 0.5000 <S**2>= 0.7567 S= 0.5033
 <L.S>= 0.000000000000E+00
 KE= 1.349658325079D+02 PE=-4.724383335458D+02 EE= 1.230102063482D+02
 Annihilation of the first spin contaminant:
 S**2 before annihilation     0.7567,   after     0.7500
 Leave Link  502 at Sun Oct 11 11:45:25 2020, MaxMem=  2684354560 cpu:              92.1 elap:               7.7
 (Enter /udrive/faculty/rpeverati/g16/g16/l508.exe)
 QCSCF skips out because SCF is already converged.
 Leave Link  508 at Sun Oct 11 11:45:25 2020, MaxMem=  2684354560 cpu:               0.1 elap:               0.0
 (Enter /udrive/faculty/rpeverati/g16/g16/l701.exe)
 ... and contract with generalized density number  0.
 Compute integral first derivatives.
 R6Disp: Adding Grimme-D3(BJ) dispersion energy 1st derivatives to the gradient.
 Leave Link  701 at Sun Oct 11 11:45:25 2020, MaxMem=  2684354560 cpu:               2.9 elap:               0.3
 (Enter /udrive/faculty/rpeverati/g16/g16/l702.exe)
 L702 exits ... SP integral derivatives will be done elsewhere.
 Leave Link  702 at Sun Oct 11 11:45:25 2020, MaxMem=  2684354560 cpu:               0.5 elap:               0.1
 (Enter /udrive/faculty/rpeverati/g16/g16/l703.exe)
 Integral derivatives from FoFJK, PRISM(SPDF).
 Compute integral first derivatives, UseDBF=F ICtDFT=           0.
 Calling FoFJK, ICntrl=      2527 FMM=F ISym2X=0 I1Cent= 0 IOpClX= 0 NMat=1 NMatS=1 NMatT=0.
 FoFJK:  IHMeth= 1 ICntrl=    2527 DoSepK=F KAlg= 0 I1Cent=           0 FoldK=F
 IRaf=         0 NMat=       1 IRICut=       1 DoRegI=T DoRafI=F ISym2E= 0 IDoP0=0 IntGTp=1.
 FoFCou: FMM=F IPFlag=           0 FMFlag=      100000 FMFlg1=         800
         NFxFlg=           0 DoJE=F BraDBF=F KetDBF=F FulRan=T
         wScrn=  0.000000 ICntrl=      2527 IOpCl=  0 I1Cent=           0 NGrid=           0
         NMat0=    1 NMatS0=      1 NMatT0=    0 NMatD0=    1 NMtDS0=    0 NMtDT0=    0
 Symmetry not used in FoFCou.
 Leave Link  703 at Sun Oct 11 11:45:27 2020, MaxMem=  2684354560 cpu:              19.6 elap:               1.7
 (Enter /udrive/faculty/rpeverati/g16/g16/l716.exe)
 Dipole        =-6.95443360D-02 6.72446278D-01 2.54996791D-04
 ***** Axes restored to original set *****
 -------------------------------------------------------------------
 Center     Atomic                   Forces (Hartrees/Bohr)
 Number     Number              X              Y              Z
 -------------------------------------------------------------------
      1        6           0.002360475    0.001434477    0.000000693
      2        6           0.000867884   -0.001349686    0.000000719
      3        7          -0.004416677   -0.013112601   -0.000002548
      4        1           0.000513903   -0.003133788   -0.004557931
      5        1           0.000514051   -0.003133905    0.004557101
      6        1          -0.005972269    0.001942670   -0.000000015
      7        1          -0.000489119    0.003491598   -0.004758429
      8        1          -0.000489045    0.003491033    0.004758708
      9        1          -0.004117080   -0.001916502   -0.000001359
     10        1           0.005615613    0.006146960   -0.007617537
     11        1           0.005612265    0.006139743    0.007620597
 -------------------------------------------------------------------
 Cartesian Forces:  Max     0.013112601 RMS     0.004431939
 Leave Link  716 at Sun Oct 11 11:45:27 2020, MaxMem=  2684354560 cpu:               0.5 elap:               0.1
 (Enter /udrive/faculty/rpeverati/g16/g16/l103.exe)

 GradGradGradGradGradGradGradGradGradGradGradGradGradGradGradGradGradGrad
 Berny optimization.
 Optmz: redundant internal coordinate code flag= 1
 Red2BG:  D1=  5.23D-02 OD1=  3.26D-03 B2RMS=  0.00D+00 IAprox=0
 FormGI is forming the generalized inverse of G from B-inverse, IUseBI=4.
 Internal  Forces:  Max     0.011108496 RMS     0.003471850
 Numerically estimating second derivatives.
 Iteration  1 RMS(Cart)=  0.00109730 RMS(Int)=  0.00000155
 Iteration  2 RMS(Cart)=  0.00000013 RMS(Int)=  0.00000155
 Largest change from initial coordinates is atom    3       0.002 Angstoms.
 GradGradGradGradGradGradGradGradGradGradGradGradGradGradGradGradGradGrad

 Leave Link  103 at Sun Oct 11 11:45:27 2020, MaxMem=  2684354560 cpu:               0.4 elap:               0.1
 (Enter /udrive/faculty/rpeverati/g16/g16/l202.exe)
                          Input orientation:                          
 ---------------------------------------------------------------------
 Center     Atomic      Atomic             Coordinates (Angstroms)
 Number     Number       Type             X           Y           Z
 ---------------------------------------------------------------------
      1          6           0       -1.486275   -0.448134   -0.000019
      2          6           0       -0.505825    0.701943    0.000029
      3          7           0        1.867016   -0.340533   -0.000057
      4          1           0       -1.354649   -1.076459   -0.880503
      5          1           0       -1.354618   -1.076565    0.880387
      6          1           0       -2.517665   -0.086339    0.000025
      7          1           0       -0.523121    1.316313   -0.897221
      8          1           0       -0.523102    1.316228    0.897338
      9          1           0        0.664366    0.148375   -0.000034
     10          1           0        2.248409    0.159422   -0.804803
     11          1           0        2.248208    0.158838    0.805153
 ---------------------------------------------------------------------
                    Distance matrix (angstroms):
                    1          2          3          4          5
     1  C    0.000000
     2  C    1.511277   0.000000
     3  N    3.355017   2.591743   0.000000
     4  H    1.089665   2.158368   3.419927   0.000000
     5  H    1.089667   2.158372   3.419919   1.760890   0.000000
     6  H    1.093006   2.160761   4.392043   1.763030   1.763027
     7  H    2.201343   1.087569   3.043485   2.533195   3.094695
     8  H    2.201346   1.087569   3.043492   3.094696   2.533212
     9  H    2.231833   1.294521   1.298229   2.520291   2.520300
    10  H    3.868420   2.920255   1.021290   3.809877   4.165253
    11  H    3.868214   2.920255   1.021294   4.165090   3.809493
                    6          7          8          9         10
     6  H    0.000000
     7  H    2.598209   0.000000
     8  H    2.598201   1.794559   0.000000
     9  H    3.190676   1.891864   1.891888   0.000000
    10  H    4.839795   3.004716   3.452066   1.776786   0.000000
    11  H    4.839617   3.452259   3.004699   1.776792   1.609956
                   11
    11  H    0.000000
 Stoichiometry    C2H8N(2)
 Framework group  C1[X(C2H8N)]
 Deg. of freedom    27
 Full point group                 C1      NOp   1
 RotChk:  IX=0 Diff= 9.21D-06
 Largest Abelian subgroup         C1      NOp   1
 Largest concise Abelian subgroup C1      NOp   1
                         Standard orientation:                         
 ---------------------------------------------------------------------
 Center     Atomic      Atomic             Coordinates (Angstroms)
 Number     Number       Type             X           Y           Z
 ---------------------------------------------------------------------
      1          6           0       -1.486313   -0.448503   -0.000019
      2          6           0       -0.506179    0.701844    0.000029
      3          7           0        1.866949   -0.339981   -0.000057
      4          1           0       -1.354514   -1.076792   -0.880503
      5          1           0       -1.354482   -1.076898    0.880387
      6          1           0       -2.517802   -0.086991    0.000025
      7          1           0       -0.523644    1.316209   -0.897221
      8          1           0       -0.523625    1.316124    0.897338
      9          1           0        0.664165    0.148597   -0.000034
     10          1           0        2.248205    0.160079   -0.804803
     11          1           0        2.248004    0.159495    0.805153
 ---------------------------------------------------------------------
 Rotational constants (GHZ):          24.9536154           4.8498826           4.3765520
 Leave Link  202 at Sun Oct 11 11:45:27 2020, MaxMem=  2684354560 cpu:               0.1 elap:               0.0
 (Enter /udrive/faculty/rpeverati/g16/g16/l301.exe)
 Standard basis: 6-31G(d) (5D, 7F)
 Ernie: Thresh=  0.10000D-02 Tol=  0.10000D-05 Strict=F.
 There are    61 symmetry adapted cartesian basis functions of A   symmetry.
 There are    58 symmetry adapted basis functions of A   symmetry.
    58 basis functions,   116 primitive gaussians,    61 cartesian basis functions
    14 alpha electrons       13 beta electrons
       nuclear repulsion energy        78.7573595320 Hartrees.
 IExCor= 2523 DFT=T Ex=TPSS Corr=TPSS ExCW=0 ScaHFX=  0.000000
 ScaDFX=  1.000000  1.000000  1.000000  1.000000 ScalE2=  1.000000  1.000000
 IRadAn=      5 IRanWt=     -1 IRanGd=            0 ICorTp=0 IEmpDi=141
 NAtoms=   11 NActive=   11 NUniq=   11 SFac= 1.00D+00 NAtFMM=   60 NAOKFM=F Big=F
 Integral buffers will be    131072 words long.
 Raffenetti 2 integral format.
 Two-electron integral symmetry is turned on.
 R6Disp:  Grimme-D3(BJ) Dispersion energy=       -0.0066001687 Hartrees.
 Nuclear repulsion after empirical dispersion term =       78.7507593633 Hartrees.
 Leave Link  301 at Sun Oct 11 11:45:27 2020, MaxMem=  2684354560 cpu:               0.9 elap:               0.1
 (Enter /udrive/faculty/rpeverati/g16/g16/l302.exe)
 NPDir=0 NMtPBC=     1 NCelOv=     1 NCel=       1 NClECP=     1 NCelD=      1
         NCelK=      1 NCelE2=     1 NClLst=     1 CellRange=     0.0.
 One-electron integrals computed using PRISM.
 One-electron integral symmetry used in STVInt
 NBasis=    58 RedAO= T EigKep=  6.31D-03  NBF=    58
 NBsUse=    58 1.00D-06 EigRej= -1.00D+00 NBFU=    58
 Precomputing XC quadrature grid using
 IXCGrd= 4 IRadAn=           5 IRanWt=          -1 IRanGd=           0 AccXCQ= 0.00D+00.
 Generated NRdTot=       0 NPtTot=           0 NUsed=           0 NTot=          32
 NSgBfM=    61    61    61    61    61 MxSgAt=    11 MxSgA2=    11.
 Leave Link  302 at Sun Oct 11 11:45:28 2020, MaxMem=  2684354560 cpu:               3.3 elap:               0.3
 (Enter /udrive/faculty/rpeverati/g16/g16/l303.exe)
 DipDrv:  MaxL=1.
 Leave Link  303 at Sun Oct 11 11:45:28 2020, MaxMem=  2684354560 cpu:               0.6 elap:               0.1
 (Enter /udrive/faculty/rpeverati/g16/g16/l401.exe)
 Initial guess from the checkpoint file:  "MN_94_RKT20_BH76_TPSSDBJ_631Gs.chk"
 SCF N**3 symmetry information disabled.
 B after Tr=    -0.000000    0.000000    0.000000
         Rot=    1.000000    0.000000    0.000000    0.000001 Ang=   0.00 deg.
 Guess basis will be translated and rotated to current coordinates.
 JPrj=2 DoOrth=T DoCkMO=T.
 Initial guess <Sx>= 0.0000 <Sy>= 0.0000 <Sz>= 0.5000 <S**2>= 0.7567 S= 0.5033
 Generating alternative initial guess.
 ExpMin= 1.61D-01 ExpMax= 4.17D+03 ExpMxC= 6.27D+02 IAcc=2 IRadAn=         4 AccDes= 0.00D+00
 Harris functional with IExCor= 1009 and IRadAn=       4 diagonalized for initial guess.
 HarFok:  IExCor= 1009 AccDes= 0.00D+00 IRadAn=         4 IDoV= 1 UseB2=F ITyADJ=14
 ICtDFT=  3500011 ScaDFX=  1.000000  1.000000  1.000000  1.000000
 FoFCou: FMM=F IPFlag=           0 FMFlag=      100000 FMFlg1=           0
         NFxFlg=           0 DoJE=T BraDBF=F KetDBF=T FulRan=T
         wScrn=  0.000000 ICntrl=       500 IOpCl=  0 I1Cent=   200000004 NGrid=           0
         NMat0=    1 NMatS0=      1 NMatT0=    0 NMatD0=    1 NMtDS0=    0 NMtDT0=    0
 Petite list used in FoFCou.
 Harris En= -135.582281191818    
 Leave Link  401 at Sun Oct 11 11:45:28 2020, MaxMem=  2684354560 cpu:               6.4 elap:               0.6
 (Enter /udrive/faculty/rpeverati/g16/g16/l502.exe)
 Keep J ints in memory in canonical form, NReq=12081231.
 FoFCou: FMM=F IPFlag=           0 FMFlag=           0 FMFlg1=           0
         NFxFlg=           0 DoJE=F BraDBF=F KetDBF=F FulRan=T
         wScrn=  0.000000 ICntrl=       600 IOpCl=  0 I1Cent=           0 NGrid=           0
         NMat0=    1 NMatS0=   1711 NMatT0=    0 NMatD0=    1 NMtDS0=    0 NMtDT0=    0
 Symmetry not used in FoFCou.
 Two-electron integral symmetry not used.
 UHF open shell SCF:
 Using DIIS extrapolation, IDIIS=  1040.
 NGot=  2684354560 LenX=  2682880805 LenY=  2682876643
 Requested convergence on RMS density matrix=1.00D-08 within 120 cycles.
 Requested convergence on MAX density matrix=1.00D-06.
 Requested convergence on             energy=1.00D-06.
 No special actions if energy rises.
 Integral accuracy reduced to 1.0D-05 until final iterations.

 Cycle   1  Pass 0  IDiag  1:
 E= -135.712024626607    
 DIIS: error= 1.47D-04 at cycle   1 NSaved=   1.
 NSaved= 1 IEnMin= 1 EnMin= -135.712024626607     IErMin= 1 ErrMin= 1.47D-04
 ErrMax= 1.47D-04  0.00D+00 EMaxC= 1.00D-01 BMatC= 5.83D-06 BMatP= 5.83D-06
 IDIUse=3 WtCom= 9.99D-01 WtEn= 1.47D-03
 Coeff-Com:  0.100D+01
 Coeff-En:   0.100D+01
 Coeff:      0.100D+01
 Gap=     0.463 Goal=   None    Shift=    0.000
 Gap=     0.531 Goal=   None    Shift=    0.000
 RMSDP=5.68D-05 MaxDP=7.58D-04              OVMax= 2.38D-03

 Cycle   2  Pass 0  IDiag  1:
 E= -135.712026168345     Delta-E=       -0.000001541738 Rises=F Damp=F
 DIIS: error= 2.41D-04 at cycle   2 NSaved=   2.
 NSaved= 2 IEnMin= 2 EnMin= -135.712026168345     IErMin= 1 ErrMin= 1.47D-04
 ErrMax= 2.41D-04  0.00D+00 EMaxC= 1.00D-01 BMatC= 8.77D-06 BMatP= 5.83D-06
 IDIUse=3 WtCom= 3.92D-01 WtEn= 6.08D-01
 Coeff-Com:  0.577D+00 0.423D+00
 Coeff-En:   0.242D+00 0.758D+00
 Coeff:      0.373D+00 0.627D+00
 Gap=     0.248 Goal=   None    Shift=    0.000
 Gap=     0.121 Goal=   None    Shift=    0.000
 RMSDP=5.55D-05 MaxDP=7.67D-04 DE=-1.54D-06 OVMax= 1.87D-03

 Cycle   3  Pass 0  IDiag  1:
 E= -135.712026106302     Delta-E=        0.000000062044 Rises=F Damp=F
 DIIS: error= 2.63D-04 at cycle   3 NSaved=   3.
 NSaved= 3 IEnMin= 2 EnMin= -135.712026168345     IErMin= 1 ErrMin= 1.47D-04
 ErrMax= 2.63D-04  0.00D+00 EMaxC= 1.00D-01 BMatC= 8.87D-06 BMatP= 5.83D-06
 IDIUse=3 WtCom= 3.81D-01 WtEn= 6.19D-01
 Coeff-Com: -0.553D-03 0.502D+00 0.499D+00
 Coeff-En:   0.000D+00 0.505D+00 0.495D+00
 Coeff:     -0.211D-03 0.504D+00 0.497D+00
 Gap=     0.248 Goal=   None    Shift=    0.000
 Gap=     0.121 Goal=   None    Shift=    0.000
 RMSDP=2.64D-05 MaxDP=4.62D-04 DE= 6.20D-08 OVMax= 1.19D-03

 Cycle   4  Pass 0  IDiag  1:
 E= -135.712028509395     Delta-E=       -0.000002403094 Rises=F Damp=F
 DIIS: error= 2.10D-05 at cycle   4 NSaved=   4.
 NSaved= 4 IEnMin= 4 EnMin= -135.712028509395     IErMin= 4 ErrMin= 2.10D-05
 ErrMax= 2.10D-05  0.00D+00 EMaxC= 1.00D-01 BMatC= 5.03D-08 BMatP= 5.83D-06
 IDIUse=1 WtCom= 1.00D+00 WtEn= 0.00D+00
 Coeff-Com: -0.244D-01 0.116D+00 0.151D+00 0.758D+00
 Coeff:     -0.244D-01 0.116D+00 0.151D+00 0.758D+00
 Gap=     0.248 Goal=   None    Shift=    0.000
 Gap=     0.121 Goal=   None    Shift=    0.000
 RMSDP=3.39D-06 MaxDP=4.56D-05 DE=-2.40D-06 OVMax= 6.23D-05

 Initial convergence to 1.0D-05 achieved.  Increase integral accuracy.
 Cycle   5  Pass 1  IDiag  1:
 E= -135.712039789339     Delta-E=       -0.000011279944 Rises=F Damp=F
 DIIS: error= 8.07D-06 at cycle   1 NSaved=   1.
 NSaved= 1 IEnMin= 1 EnMin= -135.712039789339     IErMin= 1 ErrMin= 8.07D-06
 ErrMax= 8.07D-06  0.00D+00 EMaxC= 1.00D-01 BMatC= 1.51D-08 BMatP= 1.51D-08
 IDIUse=1 WtCom= 1.00D+00 WtEn= 0.00D+00
 Coeff-Com:  0.100D+01
 Coeff:      0.100D+01
 Gap=     0.248 Goal=   None    Shift=    0.000
 Gap=     0.121 Goal=   None    Shift=    0.000
[...]
    R6        2.07122  -0.00000   0.00000  -0.00002  -0.00002   2.07120
    R7        2.52723  -0.00001   0.00000  -0.00010  -0.00010   2.52713
    R8        2.42778   0.00000   0.00000   0.00006   0.00006   2.42784
    R9        1.95760   0.00001   0.00000   0.00003   0.00003   1.95763
   R10        1.95761   0.00001   0.00000   0.00002   0.00002   1.95763
    A1        1.94174  -0.00000   0.00000  -0.00001  -0.00001   1.94173
    A2        1.94172  -0.00000   0.00000  -0.00002  -0.00002   1.94170
    A3        1.93878   0.00001   0.00000   0.00009   0.00009   1.93887
    A4        1.88409  -0.00000   0.00000  -0.00003  -0.00003   1.88406
    A5        1.87731  -0.00000   0.00000  -0.00002  -0.00002   1.87729
    A6        1.87733  -0.00000   0.00000  -0.00001  -0.00001   1.87732
    A7        2.00504  -0.00000   0.00000  -0.00003  -0.00003   2.00501
    A8        2.00494   0.00000   0.00000   0.00005   0.00005   2.00498
    A9        1.83358  -0.00002   0.00000  -0.00025  -0.00025   1.83333
   A10        1.94219  -0.00000   0.00000   0.00002   0.00002   1.94222
   A11        1.82785   0.00001   0.00000   0.00014   0.00014   1.82798
   A12        1.82751   0.00001   0.00000   0.00007   0.00007   1.82758
   A13        1.74895  -0.00001   0.00000  -0.00005  -0.00005   1.74890
   A14        1.74892  -0.00000   0.00000  -0.00003  -0.00003   1.74889
   A15        1.79018  -0.00000   0.00000  -0.00005  -0.00005   1.79013
   A16        3.27266   0.00000   0.00000   0.00023   0.00023   3.27289
   A17        3.21782   0.00000   0.00000  -0.00063  -0.00063   3.21719
    D1        0.94797  -0.00000   0.00000  -0.00031  -0.00031   0.94766
    D2       -3.04895  -0.00000   0.00000  -0.00026  -0.00026  -3.04921
    D3       -1.05072   0.00000   0.00000  -0.00031  -0.00031  -1.05103
    D4        3.04941  -0.00000   0.00000  -0.00037  -0.00037   3.04903
    D5       -0.94751  -0.00000   0.00000  -0.00032  -0.00032  -0.94783
    D6        1.05072   0.00000   0.00000  -0.00037  -0.00037   1.05035
    D7       -1.14290  -0.00000   0.00000  -0.00034  -0.00034  -1.14324
    D8        1.14337  -0.00000   0.00000  -0.00029  -0.00029   1.14308
    D9       -3.14159   0.00000   0.00000  -0.00033  -0.00033   3.14126
   D10        2.23465  -0.00000   0.00000  -0.00350  -0.00350   2.23116
   D11       -2.23604  -0.00000   0.00000  -0.00356  -0.00356  -2.23960
   D12        0.10098   0.00000   0.00000  -0.00330  -0.00330   0.09768
   D13        1.91347   0.00000   0.00000  -0.00337  -0.00337   1.91011
   D14       -1.91509   0.00000   0.00000  -0.00340  -0.00340  -1.91849
   D15       -0.10259  -0.00000   0.00000  -0.00347  -0.00347  -0.10606
         Item               Value     Threshold  Converged?
 Maximum Force            0.000019     0.000450     YES
 RMS     Force            0.000005     0.000300     YES
 Maximum Displacement     0.004613     0.001800     NO 
 RMS     Displacement     0.001270     0.001200     NO 
 Predicted change in Energy=-7.990106D-09
                           ----------------------------
                           ! Non-Optimized Parameters !
                           ! (Angstroms and Degrees)  !
 --------------------------                            --------------------------
 ! Name  Definition              Value          Derivative Info.                !
 --------------------------------------------------------------------------------
 ! R1    R(1,2)                  1.5165         -DE/DX =    0.0                 !
 ! R2    R(1,4)                  1.0981         -DE/DX =    0.0                 !
 ! R3    R(1,5)                  1.0981         -DE/DX =    0.0                 !
 ! R4    R(1,6)                  1.1033         -DE/DX =    0.0                 !
 ! R5    R(2,7)                  1.096          -DE/DX =    0.0                 !
 ! R6    R(2,8)                  1.096          -DE/DX =    0.0                 !
 ! R7    R(2,9)                  1.3373         -DE/DX =    0.0                 !
 ! R8    R(3,9)                  1.2848         -DE/DX =    0.0                 !
 ! R9    R(3,10)                 1.0359         -DE/DX =    0.0                 !
 ! R10   R(3,11)                 1.0359         -DE/DX =    0.0                 !
 ! A1    A(2,1,4)              111.2529         -DE/DX =    0.0                 !
 ! A2    A(2,1,5)              111.2512         -DE/DX =    0.0                 !
 ! A3    A(2,1,6)              111.0889         -DE/DX =    0.0                 !
 ! A4    A(4,1,5)              107.9485         -DE/DX =    0.0                 !
 ! A5    A(4,1,6)              107.561          -DE/DX =    0.0                 !
 ! A6    A(5,1,6)              107.5624         -DE/DX =    0.0                 !
 ! A7    A(1,2,7)              114.8785         -DE/DX =    0.0                 !
 ! A8    A(1,2,8)              114.8771         -DE/DX =    0.0                 !
 ! A9    A(1,2,9)              105.0421         -DE/DX =    0.0                 !
 ! A10   A(7,2,8)              111.2808         -DE/DX =    0.0                 !
 ! A11   A(7,2,9)              104.7357         -DE/DX =    0.0                 !
 ! A12   A(8,2,9)              104.7127         -DE/DX =    0.0                 !
 ! A13   A(9,3,10)             100.2045         -DE/DX =    0.0                 !
 ! A14   A(9,3,11)             100.2038         -DE/DX =    0.0                 !
 ! A15   A(10,3,11)            102.5667         -DE/DX =    0.0                 !
 ! A16   L(2,9,3,5,-1)         187.5226         -DE/DX =    0.0                 !
 ! A17   L(2,9,3,5,-2)         184.3312         -DE/DX =    0.0                 !
 ! D1    D(4,1,2,7)             54.2968         -DE/DX =    0.0                 !
 ! D2    D(4,1,2,8)           -174.7067         -DE/DX =    0.0                 !
 ! D3    D(4,1,2,9)            -60.2193         -DE/DX =    0.0                 !
 ! D4    D(5,1,2,7)            174.6967         -DE/DX =    0.0                 !
 ! D5    D(5,1,2,8)            -54.3068         -DE/DX =    0.0                 !
 ! D6    D(5,1,2,9)             60.1806         -DE/DX =    0.0                 !
 ! D7    D(6,1,2,7)            -65.503          -DE/DX =    0.0                 !
 ! D8    D(6,1,2,8)             65.4935         -DE/DX =    0.0                 !
 ! D9    D(6,1,2,9)            179.9809         -DE/DX =    0.0                 !
 ! D10   D(1,2,3,10)           127.8358         -DE/DX =    0.0                 !
 ! D11   D(1,2,3,11)          -128.3196         -DE/DX =    0.0                 !
 ! D12   D(7,2,3,10)             5.5964         -DE/DX =    0.0                 !
 ! D13   D(7,2,3,11)           109.441          -DE/DX =    0.0                 !
 ! D14   D(8,2,3,10)          -109.9214         -DE/DX =    0.0                 !
 ! D15   D(8,2,3,11)            -6.0768         -DE/DX =    0.0                 !
 --------------------------------------------------------------------------------
 GradGradGradGradGradGradGradGradGradGradGradGradGradGradGradGradGradGrad

 Leave Link  103 at Sun Oct 11 11:47:46 2020, MaxMem=  2684354560 cpu:               0.7 elap:               0.1
 (Enter /udrive/faculty/rpeverati/g16/g16/l9999.exe)

 ----------------------------------------------------------------------

 Electric dipole moment (input orientation):
 (Debye = 10**-18 statcoulomb cm , SI units = C m)
                  (au)            (Debye)         (10**-30 SI)
   Tot        0.688356D+00      0.174963D+01      0.583612D+01
   x         -0.118280D+00     -0.300637D+00     -0.100282D+01
   y          0.678117D+00      0.172360D+01      0.574932D+01
   z         -0.348314D-03     -0.885327D-03     -0.295313D-02

 Dipole polarizability, Alpha (input orientation).
 (esu units = cm**3 , SI units = C**2 m**2 J**-1)
 Alpha(0;0):
               (au)            (10**-24 esu)      (10**-40 SI)
   iso        0.403464D+02      0.597872D+01      0.665223D+01
   aniso      0.275365D+02      0.408049D+01      0.454016D+01
   xx         0.581007D+02      0.860964D+01      0.957952D+01
   yx        -0.404048D+01     -0.598737D+00     -0.666185D+00
   yy         0.313403D+02      0.464415D+01      0.516732D+01
   zx         0.152912D-02      0.226592D-03      0.252118D-03
   zy         0.152433D-02      0.225882D-03      0.251328D-03
   zz         0.315983D+02      0.468238D+01      0.520985D+01

 ----------------------------------------------------------------------

 Dipole orientation:
     6         -2.92499448         -0.50981140         -0.34242722
     6         -0.70933417         -0.12468971          1.43397899
     7          3.39337238          0.59211099         -1.22636516
     1         -3.20784670          1.14506641         -1.56189929
     1         -2.63158478         -2.16150648         -1.56373139
     1         -4.69263812         -0.81843975          0.71922447
     1         -0.80518550          1.59329498          2.58689688
     1         -0.21780555         -1.77546879          2.58431476
     1          1.28831276          0.22427321         -0.07417341
     1          3.98023960          2.24519328         -0.35739494
     1          4.50597225         -0.76412707         -0.35747449

 Electric dipole moment (dipole orientation):
 (Debye = 10**-18 statcoulomb cm , SI units = C m)
                  (au)            (Debye)         (10**-30 SI)
   Tot        0.688356D+00      0.174963D+01      0.583612D+01
   x          0.000000D+00      0.000000D+00      0.000000D+00
   y          0.000000D+00      0.000000D+00      0.000000D+00
   z          0.688356D+00      0.174963D+01      0.583612D+01

 Dipole polarizability, Alpha (dipole orientation).
 (esu units = cm**3 , SI units = C**2 m**2 J**-1)
 Alpha(0;0):
               (au)            (10**-24 esu)      (10**-40 SI)
   iso        0.403464D+02      0.597872D+01      0.665223D+01
   aniso      0.275365D+02      0.408049D+01      0.454016D+01
   xx         0.552231D+02      0.818322D+01      0.910506D+01
   yx         0.412318D+01      0.610993D+00      0.679821D+00
   yy         0.323179D+02      0.478901D+01      0.532850D+01
   zx        -0.820743D+01     -0.121622D+01     -0.135322D+01
   zy        -0.143380D+01     -0.212468D+00     -0.236402D+00
   zz         0.334983D+02      0.496394D+01      0.552312D+01

 ----------------------------------------------------------------------

 Test job not archived.
 1\1\GINC-NODE06\Freq\UTPSSTPSS\6-31G(d)\C2H8N1(2)\RPEVERATI\11-Oct-202
 0\0\\#P Freq TPSSTPSS/6-31G* 5D 7F Integral=UltraFineGrid SCF=(NoSymm,
 XQC,MaxCyc=120) EmpiricalDispersion=GD3BJ IOp(1/33=1) Geom=Check Guess
 =Read\\TS search on BH76.\\0,2\C,-1.516670332,-0.44848384,-0.000104849
 6\C,-0.5058391287,0.6820555008,0.0001190906\N,1.9072268249,-0.32609683
 91,0.0002103827\H,-1.4027312125,-1.0841261315,-0.8881961892\H,-1.40296
 7015,-1.0842390911,0.8879408447\H,-2.5486288931,-0.0581980056,-0.00022
 78527\H,-0.5059281074,1.3008844386,-0.9045018681\H,-0.50595972,1.30042
 13812,0.9050668192\H,0.6884508569,0.0802388031,0.0002487645\H,2.277746
 8795,0.2048971766,-0.8084221084\H,2.2780427819,0.2057364112,0.80816022
 34\\Version=ES64L-G16RevA.03\State=2-A\HF=-135.7128284\S2=0.757027\S2-
 1=0.\S2A=0.750025\RMSD=3.824e-09\RMSF=7.012e-06\ZeroPoint=0.0922697\Th
 ermal=0.097282\Dipole=-0.1182798,0.6781174,-0.0003483\DipoleDeriv=-0.0
 995058,-0.04549,-0.0000141,0.1331721,0.082382,0.000009,-0.0000346,0.00
 00133,0.1058695,0.6940185,-0.1315257,0.0000306,-0.0863146,0.1330137,-0
 .0000192,0.00004,-0.0000223,0.150803,-0.1558114,0.0949137,-0.0000408,0
 .1863335,-0.2926919,0.0000515,-0.0001095,0.0000545,-0.1502539,0.059630
 2,-0.0006942,0.0245472,-0.0444261,-0.0329969,-0.0938505,0.0029961,-0.1
 086701,-0.0795715,0.059627,-0.0007267,-0.0245157,-0.0444374,-0.033021,
 0.0938325,-0.0029566,0.1086688,-0.0795395,-0.2094726,0.0457841,-0.0000
 301,-0.038318,0.0158629,0.0000017,-0.0000235,0.000002,0.0705778,-0.078
 445,0.0173827,-0.0107681,0.0059076,-0.0724127,0.0936876,0.0283396,0.09
 42297,-0.0865105,-0.078456,0.0173783,0.0107629,0.0059305,-0.0723424,-0
 .0936637,-0.0283342,-0.0942328,-0.0866278,-0.5847841,0.1787563,-0.0000
 05,0.1398862,0.0852447,-0.0000244,0.0000127,-0.0000135,0.0861087,0.196
 6186,-0.0878376,0.0551088,-0.1288339,0.0936332,0.1776526,0.0100755,0.1
 146737,0.0344061,0.1965807,-0.0879409,-0.0550758,-0.1288999,0.0933285,
 -0.1776771,-0.0100056,-0.1147033,0.034738\Polar=58.1007299,-4.0404779,
 31.3402913,0.0015291,0.0015243,31.598263\Quadrupole=0.4859613,-1.39555
 38,0.9095924,2.7523035,-0.0013463,0.0009005\PG=C01 [X(C2H8N1)]\NImag=2
 \\0.48863760,-0.03473947,0.50669957,-0.00000611,-0.00000713,0.56600887
 ,-0.11471145,-0.06890888,-0.00001134,0.22516151,-0.07966343,-0.1455790
 1,-0.00000885,0.10147717,0.45685803,-0.00001662,-0.00001439,-0.0829460
 3,0.00000934,-0.00004785,0.57821636,0.00954797,-0.00018881,0.00000112,
 -0.09619882,0.04895866,-0.00001409,0.19108518,-0.00322327,0.00010796,-
 0.00000076,0.03621231,-0.01669858,0.00000842,0.13546812,0.26130318,-0.
 00000047,0.00000134,-0.00037001,0.00000031,-0.00000018,0.00603753,-0.0
 0001104,0.00010296,0.51855371,-0.04960646,0.01827024,0.02474671,0.0004
 6524,-0.01392207,-0.02112049,-0.00043444,0.00048087,0.00037388,0.05403
 680,0.01744961,-0.13253994,-0.11887924,0.00227322,-0.01407441,-0.02083
 540,-0.00060814,0.00058608,0.00013501,-0.01569920,0.14368854,0.0243442
 2,-0.11810117,-0.22028216,-0.00159083,0.00054023,0.00138576,-0.0005755
 1,0.00035285,0.00008068,-0.02678418,0.13247748,0.23707011,-0.04959723,
 0.01824164,-0.02469806,0.00046080,-0.01392564,0.02111723,-0.00043462,0
 .00048055,-0.00037341,-0.00062396,-0.00263801,0.00375109,0.05402346,0.
 01742006,-0.13256782,0.11889108,0.00226900,-0.01408016,0.02083373,-0.0
 0060795,0.00058585,-0.00013540,-0.00263324,0.01257138,-0.01601412,-0.0
 1566639,0.14372173,-0.02429444,0.11811647,-0.22026367,0.00158847,-0.00
 054791,0.00139438,0.00057488,-0.00035238,0.00008031,-0.00374578,0.0160
 1745,-0.02096375,0.02673339,-0.13248854,0.23704860,-0.25594143,0.08988
 551,-0.00002381,-0.02326682,0.00223507,-0.00000322,-0.00061775,0.00098
 004,-0.00000012,-0.00335706,0.00168699,0.00003753,-0.00334898,0.001683
 54,-0.00003818,0.28431404,0.08201252,-0.07757106,0.00001067,-0.0243200
 2,0.00684466,-0.00000326,0.00050971,0.00012402,-0.00000029,0.01769498,
 -0.00742365,0.00103551,0.01769761,-0.00742448,-0.00103209,-0.09216531,
 0.08551746,-0.00002469,0.00001211,-0.04694970,-0.00000552,0.00000073,-
 0.00052184,-0.00000029,0.00000034,-0.00003487,0.02634745,-0.01004452,0
 .00024529,-0.02634588,0.01004311,0.00023951,0.00002800,-0.00001061,0.0
 4603796,0.00188960,-0.01405211,0.02078263,-0.03132580,-0.00155577,-0.0
 1052312,0.00317639,-0.00054139,0.00023300,0.00052786,0.00060039,-0.000
 67163,-0.00282206,-0.00384913,-0.00076577,0.00095844,0.00122482,-0.000
 22499,0.03593456,0.00304860,-0.01079981,0.01919554,-0.00902391,-0.1312
 8009,0.12575807,-0.00130165,0.00005716,-0.00075445,0.00091926,0.000719
 28,-0.00020370,-0.00438485,-0.00308089,-0.00025122,-0.00045227,0.00048
 991,-0.00002943,0.00774480,0.13735516,-0.00084931,-0.00132080,0.002316
 24,-0.00193574,0.12099947,-0.23492570,-0.00079669,-0.00027966,0.000508
 80,0.00058901,0.00046651,0.00082347,-0.00024526,-0.00072031,0.00165904
 ,0.00019735,-0.00007939,0.00015070,0.00262746,-0.13450307,0.24883409,0
 .00189185,-0.01404761,-0.02078878,-0.03131991,-0.00155856,0.01053143,0
 .00318532,-0.00054564,-0.00023291,-0.00282276,-0.00384825,0.00076400,0
 .00052827,0.00060103,0.00067171,0.00095733,0.00122466,0.00022561,0.001
 08957,-0.00061785,-0.00150260,0.03593878,0.00304763,-0.01079635,-0.019
 20196,-0.00902173,-0.13114535,-0.12569124,-0.00130571,0.00005832,0.000
 75561,-0.00438586,-0.00308180,0.00024839,0.00091962,0.00071989,0.00020
 335,-0.00045214,0.00048904,0.00002919,-0.00061953,0.01183242,0.0159802
 1,0.00773896,0.13721868,0.00085184,0.00131430,0.00230701,0.00193877,-0
 .12093580,-0.23503760,0.00079729,0.00027850,0.00050920,0.00024291,0.00
 071858,0.00165950,-0.00058847,-0.00046613,0.00082436,-0.00019737,0.000
 07975,0.00015024,0.00150344,-0.01596482,-0.01893198,-0.00263366,0.1344
 3531,0.24895604,-0.03094943,0.00500164,-0.00000279,0.07154229,-0.04043
 086,0.00001927,0.04810347,-0.04257395,0.00000309,0.00146020,0.00054355
 ,0.00047209,0.00145938,0.00054300,-0.00047095,-0.00013038,-0.00390487,
 0.00000036,-0.00971764,0.00393771,0.00217853,-0.00973669,0.00394923,-0
 .00217699,-0.05541003,-0.00665072,0.00317455,-0.00000021,-0.02789059,-
 0.01472276,-0.00000449,-0.01578335,-0.00380413,-0.00001197,-0.00076534
 ,-0.00026200,-0.00039777,-0.00076530,-0.00026216,0.00039748,-0.0032189
 5,-0.00120458,-0.00000075,0.01096641,-0.00559332,-0.00060698,0.0109704
 1,-0.00559479,0.00060313,0.05760508,0.03154569,-0.00000416,-0.00000056
 ,0.00003580,0.00000440,0.00000114,-0.03346553,-0.00000316,-0.00000956,
 -0.03648797,-0.00062517,-0.00005807,-0.00000808,0.00062521,0.00005866,
 -0.00000813,-0.00000026,-0.00000025,0.00071521,-0.01294255,0.00685488,
 -0.00066188,0.01294735,-0.00686024,-0.00066413,-0.00001742,0.00001578,
 0.07038126,-0.00058038,0.00026864,-0.00000564,-0.00040367,-0.00080702,
 -0.00009971,-0.07867467,-0.06329982,0.09389137,0.00003672,0.00000890,0
 .00007511,0.00031768,0.00023083,-0.00017798,0.00021622,0.00001292,-0.0
 0003317,-0.00004436,0.00040654,-0.00052736,0.00033308,-0.00027677,-0.0
 0026561,-0.00830637,-0.01222452,0.01829825,0.08153292,0.00064830,-0.00
 006347,0.00019204,-0.00153191,0.00193720,-0.00196088,-0.08249826,-0.12
 101649,0.16581339,-0.00008157,-0.00014093,-0.00003489,0.00012200,-0.00
 004255,-0.00009712,-0.00009133,0.00007901,-0.00003284,-0.00048427,0.00
 038281,0.00012234,0.00056689,-0.00008317,0.00005893,0.00766187,-0.0016
 3873,-0.00327583,0.07030354,0.11469063,-0.00051688,0.00039987,0.000071
 93,0.00190412,-0.00126251,-0.00006756,0.08167329,0.11269583,-0.2446168
 9,-0.00003871,-0.00008300,-0.00002681,-0.00001460,-0.00008523,0.000016
 09,-0.00011605,-0.00020578,-0.00001627,-0.00020495,0.00005008,0.000329
 39,-0.00018796,0.00015230,-0.00010168,-0.00337268,0.00209298,0.0000793
 8,-0.09513117,-0.13725047,0.27379611,-0.00058064,0.00026920,0.00000606
 ,-0.00040338,-0.00080754,0.00009999,-0.07873803,-0.06343782,-0.0938837
 2,0.00031786,0.00023094,0.00017811,0.00003725,0.00000924,-0.00007534,0
 .00021638,0.00001297,0.00003313,0.00033344,-0.00027638,0.00026462,-0.0
 0004483,0.00040631,0.00052784,-0.00831480,-0.01224313,-0.01828248,0.00
 557283,0.00538473,0.01600559,0.08160392,0.00065017,-0.00006462,-0.0001
 9117,-0.00153465,0.00194047,0.00195729,-0.08264262,-0.12130337,-0.1659
 0602,0.00012193,-0.00004255,0.00009719,-0.00008124,-0.00014080,0.00003
 451,-0.00009115,0.00007966,0.00003266,0.00056578,-0.00008263,-0.000058
 31,-0.00048403,0.00038310,-0.00012176,0.00766759,-0.00163777,0.0032740
 6,0.00537675,0.00589568,0.02349594,0.07045148,0.11497281,0.00051663,-0
 .00040005,0.00007173,-0.00190197,0.00126153,-0.00006977,-0.08164581,-0
 .11279654,-0.24426049,0.00001438,0.00008521,0.00001599,0.00003875,0.00
 008316,-0.00002674,0.00011613,0.00020574,-0.00001624,0.00018648,-0.000
 15186,-0.00010216,0.00020582,-0.00005092,0.00032904,0.00336749,-0.0020
 8719,0.00008407,-0.01602410,-0.02353467,-0.02946369,0.09512621,0.13738
 561,0.27343826\\-0.00001348,-0.00001158,0.00000137,-0.00000807,-0.0000
 0655,-0.00001935,0.00000306,0.00001490,-0.00000407,-0.00000034,0.00000
 285,0.00000273,-0.00000057,0.00000076,0.00000130,0.00000407,0.00000397
 ,-0.00000064,0.00000057,0.00000487,0.00000039,0.00000649,-0.00000197,0
 .00000616,0.00001195,0.00000682,0.00000989,-0.00000140,-0.00000760,0.0
 0000416,-0.00000228,-0.00000648,-0.00000195\\\@



 WE LOSE BECAUSE WE WIN

 GAMBLERS,

 RECOLLECTING WHICH,

 TOSS THEIR DICE AGAIN....


                          EMILY DICKINSON  BOLTS OF MELODY NO. 533
 Job cpu time:       0 days  0 hours 12 minutes 40.9 seconds.
 Elapsed time:       0 days  0 hours  1 minutes  4.2 seconds.
 File lengths (MBytes):  RWF=     15 Int=      0 D2E=      0 Chk=      2 Scr=      1
 Normal termination of Gaussian 16 at Sun Oct 11 11:47:46 2020.
