 Entering Gaussian System, Link 0=g16
 Input=MN_92_RKT18_BH76_TPSSDBJ_631Gs.in
 Output=MN_92_RKT18_BH76_TPSSDBJ_631Gs.log
 Initial command:
 /udrive/faculty/rpeverati/g16/g16/l1.exe "/udrive/scratch-directories/gaussian09/rpeverati/Gau-19623.inp" -scrdir="/udrive/scratch-directories/gaussian09/rpeverati/"
 Entering Link 1 = /udrive/faculty/rpeverati/g16/g16/l1.exe PID=     19635.
  
 Copyright (c) 1988,1990,1992,1993,1995,1998,2003,2009,2016,
            Gaussian, Inc.  All Rights Reserved.
  
 This is part of the Gaussian(R) 16 program.  It is based on
 the Gaussian(R) 09 system (copyright 2009, Gaussian, Inc.),
 the Gaussian(R) 03 system (copyright 2003, Gaussian, Inc.),
 the Gaussian(R) 98 system (copyright 1998, Gaussian, Inc.),
 the Gaussian(R) 94 system (copyright 1995, Gaussian, Inc.),
 the Gaussian 92(TM) system (copyright 1992, Gaussian, Inc.),
 the Gaussian 90(TM) system (copyright 1990, Gaussian, Inc.),
 the Gaussian 88(TM) system (copyright 1988, Gaussian, Inc.),
 the Gaussian 86(TM) system (copyright 1986, Carnegie Mellon
 University), and the Gaussian 82(TM) system (copyright 1983,
 Carnegie Mellon University). Gaussian is a federally registered
 trademark of Gaussian, Inc.
  
 This software contains proprietary and confidential information,
 including trade secrets, belonging to Gaussian, Inc.
  
 This software is provided under written license and may be
 used, copied, transmitted, or stored only in accord with that
 written license.
  
 The following legend is applicable only to US Government
 contracts under FAR:
  
                    RESTRICTED RIGHTS LEGEND
  
 Use, reproduction and disclosure by the US Government is
 subject to restrictions as set forth in subparagraphs (a)
 and (c) of the Commercial Computer Software - Restricted
 Rights clause in FAR 52.227-19.
  
 Gaussian, Inc.
 340 Quinnipiac St., Bldg. 40, Wallingford CT 06492
  
  
 ---------------------------------------------------------------
 Warning -- This program may not be used in any manner that
 competes with the business of Gaussian, Inc. or will provide
 assistance to any competitor of Gaussian, Inc.  The licensee
 of this program is prohibited from giving any competitor of
 Gaussian, Inc. access to this program.  By using this program,
 the user acknowledges that Gaussian, Inc. is engaged in the
 business of creating and licensing software in the field of
 computational chemistry and represents and warrants to the
 licensee that it is not a competitor of Gaussian, Inc. and that
 it will not use this program in any manner prohibited above.
 ---------------------------------------------------------------
  

 Cite this work as:
 Gaussian 16, Revision A.03,
 M. J. Frisch, G. W. Trucks, H. B. Schlegel, G. E. Scuseria, 
 M. A. Robb, J. R. Cheeseman, G. Scalmani, V. Barone, 
 G. A. Petersson, H. Nakatsuji, X. Li, M. Caricato, A. V. Marenich, 
 J. Bloino, B. G. Janesko, R. Gomperts, B. Mennucci, H. P. Hratchian, 
 J. V. Ortiz, A. F. Izmaylov, J. L. Sonnenberg, D. Williams-Young, 
 F. Ding, F. Lipparini, F. Egidi, J. Goings, B. Peng, A. Petrone, 
 T. Henderson, D. Ranasinghe, V. G. Zakrzewski, J. Gao, N. Rega, 
 G. Zheng, W. Liang, M. Hada, M. Ehara, K. Toyota, R. Fukuda, 
 J. Hasegawa, M. Ishida, T. Nakajima, Y. Honda, O. Kitao, H. Nakai, 
 T. Vreven, K. Throssell, J. A. Montgomery, Jr., J. E. Peralta, 
 F. Ogliaro, M. J. Bearpark, J. J. Heyd, E. N. Brothers, K. N. Kudin, 
 V. N. Staroverov, T. A. Keith, R. Kobayashi, J. Normand, 
 K. Raghavachari, A. P. Rendell, J. C. Burant, S. S. Iyengar, 
 J. Tomasi, M. Cossi, J. M. Millam, M. Klene, C. Adamo, R. Cammi, 
 J. W. Ochterski, R. L. Martin, K. Morokuma, O. Farkas, 
 J. B. Foresman, and D. J. Fox, Gaussian, Inc., Wallingford CT, 2016.
 
 ******************************************
 Gaussian 16:  ES64L-G16RevA.03 25-Dec-2016
                 7-Oct-2020 
 ******************************************
 %NoSave
 %nproc=12
 Will use up to   12 processors via shared memory.
 %mem=20GB
 %chk=MN_92_RKT18_BH76_TPSSDBJ_631Gs
 ----------------------------------------------------------------------
 #P Opt(TS,MaxCyc=50,NoEigenTest,MaxStep=10,AddRedundant) TPSSTPSS/6-31
 G* 5D 7F Integral=UltraFineGrid SCF=(NoSymm,XQC,MaxCyc=120) EmpiricalD
 ispersion=GD3BJ IOp(1/33=1)
 ----------------------------------------------------------------------
 1/5=1,6=50,8=10,11=1,18=120,26=4,33=1,38=1/1,3;
 2/9=110,12=2,17=6,18=5,40=1/2;
 3/5=1,6=6,7=1,8=11,11=2,25=1,30=1,71=1,74=2523,75=-5,124=41/1,2,3;
 4/9=2/1;
 5/5=2,7=120,8=3,13=1,38=5/2,8;
 6/7=2,8=2,9=2,10=2,28=1/1;
 7//1,2,3,16;
 1/5=1,6=50,8=10,11=1,18=20,26=4,33=1/3(2);
 2/9=110/2;
 99//99;
 2/9=110/2;
 3/5=1,6=6,7=1,8=11,11=2,25=1,30=1,71=1,74=2523,75=-5,124=41/1,2,3;
 4/5=5,9=2,16=3,69=1/1;
 5/5=2,7=120,8=3,13=1,38=5/2,8;
 7//1,2,3,16;
 1/5=1,6=50,8=10,11=1,18=20,26=4,33=1/3(-5);
 2/9=110/2;
 6/7=2,8=2,9=2,10=2,19=2,28=1/1;
 99/9=1/99;
 Leave Link    1 at Wed Oct  7 13:08:21 2020, MaxMem=  2684354560 cpu:               8.8 elap:               1.0
 (Enter /udrive/faculty/rpeverati/g16/g16/l101.exe)
 ONIOM data not found on unit 2.
 ------------------
 TS search on BH76.
 ------------------
 TstMul:  ICh=     0
 TstMul:  Mul=     3
 TstMul:  ICh=     0
 TstMul:  Mul=     3
 Symbolic Z-matrix:
 Charge =  0 Multiplicity = 3
 C                    -1.19958  -0.01113  -0.00003 
 N                     1.40072   0.12986   0.00002 
 H                    -1.42666  -0.51293   0.93306 
 H                    -1.41991  -0.59138  -0.88814 
 H                    -1.52024   1.0228   -0.04578 
 H                     0.18893   0.1269    0.001 
 H                     1.57034  -0.88767  -0.00005 
 
 RdStrC is calling ZToCFu for IStruc=1 NZ=     7.
 PrtBox:  NBox=     1 Levels=  1 BoxLen=    8.00 SMaxX=        5.84
          Shift=            2.872830            1.677450            1.678350
 Box      1 Number                   0 centers from      1 to      7:
 After GenITR:
 ITRead=  0  0  0  0  0  0  0
 MicOpt= -1 -1 -1 -1 -1 -1 -1
 Add virtual bond connecting atoms H6         and N2         Dist= 2.29D+00.
 Add virtual bond connecting atoms H6         and C1         Dist= 2.64D+00.
 The following ModRedundant input section has been read:
 
 ITRead=  0  0  0  0  0  0  0
 MicOpt= -1 -1 -1 -1 -1 -1 -1
 NAtoms=      7 NQM=        7 NQMF=       0 NMMI=      0 NMMIF=      0
                NMic=       0 NMicF=      0.
                    Isotopes and Nuclear Properties:
 (Nuclear quadrupole moments (NQMom) in fm**2, nuclear magnetic moments (NMagM)
  in nuclear magnetons)

  Atom         1           2           3           4           5           6           7
 IAtWgt=          12          14           1           1           1           1           1
 AtmWgt=  12.0000000  14.0030740   1.0078250   1.0078250   1.0078250   1.0078250   1.0078250
 NucSpn=           0           2           1           1           1           1           1
 AtZEff=   0.0000000   0.0000000   0.0000000   0.0000000   0.0000000   0.0000000   0.0000000
 NQMom=    0.0000000   2.0440000   0.0000000   0.0000000   0.0000000   0.0000000   0.0000000
 NMagM=    0.0000000   0.4037610   2.7928460   2.7928460   2.7928460   2.7928460   2.7928460
 AtZNuc=   6.0000000   7.0000000   1.0000000   1.0000000   1.0000000   1.0000000   1.0000000
 No MM parameters found.
 Leave Link  101 at Wed Oct  7 13:08:22 2020, MaxMem=  2684354560 cpu:              13.4 elap:               1.5
 (Enter /udrive/faculty/rpeverati/g16/g16/l103.exe)

 GradGradGradGradGradGradGradGradGradGradGradGradGradGradGradGradGradGrad
 Berny optimization.
 Optmz: redundant internal coordinate code flag= 1
 Initialization pass.
                           ----------------------------
                           !    Initial Parameters    !
                           ! (Angstroms and Degrees)  !
 --------------------------                            --------------------------
 ! Name  Definition              Value          Derivative Info.                !
 --------------------------------------------------------------------------------
 ! R1    R(1,3)                  1.0835         estimate D2E/DX2                !
 ! R2    R(1,4)                  1.0835         estimate D2E/DX2                !
 ! R3    R(1,5)                  1.0835         estimate D2E/DX2                !
 ! R4    R(1,6)                  1.3953         estimate D2E/DX2                !
 ! R5    R(2,6)                  1.2118         estimate D2E/DX2                !
 ! R6    R(2,7)                  1.0316         estimate D2E/DX2                !
 ! A1    A(3,1,4)              114.5334         estimate D2E/DX2                !
 ! A2    A(3,1,5)              114.6001         estimate D2E/DX2                !
 ! A3    A(3,1,6)              104.6982         estimate D2E/DX2                !
 ! A4    A(4,1,5)              114.5979         estimate D2E/DX2                !
 ! A5    A(4,1,6)              104.8289         estimate D2E/DX2                !
 ! A6    A(5,1,6)              101.5452         estimate D2E/DX2                !
 ! A7    A(6,2,7)               99.3239         estimate D2E/DX2                !
 ! A8    L(1,6,2,7,-1)         174.4634         estimate D2E/DX2                !
 ! A9    L(1,6,2,7,-2)         179.8668         estimate D2E/DX2                !
 ! D1    D(3,1,2,7)             62.3573         estimate D2E/DX2                !
 ! D2    D(4,1,2,7)            -57.4187         estimate D2E/DX2                !
 ! D3    D(5,1,2,7)           -177.5008         estimate D2E/DX2                !
 --------------------------------------------------------------------------------
 Maximum allowed force set to 1.00D+20.
 Trust Radius=1.00D-01 FncErr=1.00D-07 GrdErr=1.00D-06 EigMax=2.50D+02 EigMin=1.00D-04
 Number of steps in this run=     50 maximum allowed number of steps=    100.
 Search for a saddle point of order  1.
 GradGradGradGradGradGradGradGradGradGradGradGradGradGradGradGradGradGrad

 Leave Link  103 at Wed Oct  7 13:08:24 2020, MaxMem=  2684354560 cpu:               0.9 elap:               0.6
 (Enter /udrive/faculty/rpeverati/g16/g16/l202.exe)
                          Input orientation:                          
 ---------------------------------------------------------------------
 Center     Atomic      Atomic             Coordinates (Angstroms)
 Number     Number       Type             X           Y           Z
 ---------------------------------------------------------------------
      1          6           0       -1.199576   -0.011126   -0.000030
      2          7           0        1.400716    0.129862    0.000015
      3          1           0       -1.426662   -0.512932    0.933056
      4          1           0       -1.419909   -0.591382   -0.888145
      5          1           0       -1.520236    1.022804   -0.045783
      6          1           0        0.188926    0.126896    0.001001
      7          1           0        1.570339   -0.887668   -0.000053
 ---------------------------------------------------------------------
                    Distance matrix (angstroms):
                    1          2          3          4          5
     1  C    0.000000
     2  N    2.604112   0.000000
     3  H    1.083525   3.045951   0.000000
     4  H    1.083509   3.043838   1.822902   0.000000
     5  H    1.083480   3.054735   1.823559   1.823523   0.000000
     6  H    1.395346   1.211794   1.971860   1.973539   1.930305
     7  H    2.905297   1.031572   3.161191   3.133381   3.633683
                    6          7
     6  H    0.000000
     7  H    1.713955   0.000000
 Stoichiometry    CH5N(3)
 Framework group  C1[X(CH5N)]
 Deg. of freedom    15
 Full point group                 C1      NOp   1
 Largest Abelian subgroup         C1      NOp   1
 Largest concise Abelian subgroup C1      NOp   1
                         Standard orientation:                         
 ---------------------------------------------------------------------
 Center     Atomic      Atomic             Coordinates (Angstroms)
 Number     Number       Type             X           Y           Z
 ---------------------------------------------------------------------
      1          6           0       -1.199577   -0.011126   -0.000030
      2          7           0        1.400715    0.129862    0.000015
      3          1           0       -1.426663   -0.512932    0.933056
      4          1           0       -1.419910   -0.591382   -0.888145
      5          1           0       -1.520237    1.022804   -0.045783
      6          1           0        0.188925    0.126896    0.001001
      7          1           0        1.570338   -0.887668   -0.000053
 ---------------------------------------------------------------------
 Rotational constants (GHZ):         116.4476060           9.1611211           8.9994566
 Leave Link  202 at Wed Oct  7 13:08:25 2020, MaxMem=  2684354560 cpu:               1.5 elap:               0.7
 (Enter /udrive/faculty/rpeverati/g16/g16/l301.exe)
 Standard basis: 6-31G(d) (5D, 7F)
 Ernie: Thresh=  0.10000D-02 Tol=  0.10000D-05 Strict=F.
 There are    40 symmetry adapted cartesian basis functions of A   symmetry.
 There are    38 symmetry adapted basis functions of A   symmetry.
    38 basis functions,    76 primitive gaussians,    40 cartesian basis functions
    10 alpha electrons        8 beta electrons
       nuclear repulsion energy        33.4595449307 Hartrees.
 IExCor= 2523 DFT=T Ex=TPSS Corr=TPSS ExCW=0 ScaHFX=  0.000000
 ScaDFX=  1.000000  1.000000  1.000000  1.000000 ScalE2=  1.000000  1.000000
 IRadAn=      5 IRanWt=     -1 IRanGd=            0 ICorTp=0 IEmpDi=141
 NAtoms=    7 NActive=    7 NUniq=    7 SFac= 1.00D+00 NAtFMM=   60 NAOKFM=F Big=F
 Integral buffers will be    131072 words long.
 Raffenetti 2 integral format.
 Two-electron integral symmetry is turned on.
 R6Disp:  Grimme-D3(BJ) Dispersion energy=       -0.0030940809 Hartrees.
 Nuclear repulsion after empirical dispersion term =       33.4564508499 Hartrees.
 Leave Link  301 at Wed Oct  7 13:08:26 2020, MaxMem=  2684354560 cpu:               1.9 elap:               0.6
 (Enter /udrive/faculty/rpeverati/g16/g16/l302.exe)
 NPDir=0 NMtPBC=     1 NCelOv=     1 NCel=       1 NClECP=     1 NCelD=      1
         NCelK=      1 NCelE2=     1 NClLst=     1 CellRange=     0.0.
 One-electron integrals computed using PRISM.
 One-electron integral symmetry used in STVInt
 NBasis=    38 RedAO= T EigKep=  9.06D-03  NBF=    38
 NBsUse=    38 1.00D-06 EigRej= -1.00D+00 NBFU=    38
 Precomputing XC quadrature grid using
 IXCGrd= 4 IRadAn=           5 IRanWt=          -1 IRanGd=           0 AccXCQ= 0.00D+00.
 Generated NRdTot=       0 NPtTot=           0 NUsed=           0 NTot=          32
 NSgBfM=    40    40    40    40    40 MxSgAt=     7 MxSgA2=     7.
 Leave Link  302 at Wed Oct  7 13:08:27 2020, MaxMem=  2684354560 cpu:               6.9 elap:               1.3
 (Enter /udrive/faculty/rpeverati/g16/g16/l303.exe)
 DipDrv:  MaxL=1.
 Leave Link  303 at Wed Oct  7 13:08:29 2020, MaxMem=  2684354560 cpu:               3.2 elap:               0.8
 (Enter /udrive/faculty/rpeverati/g16/g16/l401.exe)
 SCF N**3 symmetry information disabled.
 ExpMin= 1.61D-01 ExpMax= 4.17D+03 ExpMxC= 6.27D+02 IAcc=3 IRadAn=         5 AccDes= 0.00D+00
 Harris functional with IExCor= 1009 and IRadAn=       5 diagonalized for initial guess.
 HarFok:  IExCor= 1009 AccDes= 0.00D+00 IRadAn=         5 IDoV= 1 UseB2=F ITyADJ=14
 ICtDFT=  3500011 ScaDFX=  1.000000  1.000000  1.000000  1.000000
 FoFCou: FMM=F IPFlag=           0 FMFlag=      100000 FMFlg1=           0
         NFxFlg=           0 DoJE=T BraDBF=F KetDBF=T FulRan=T
         wScrn=  0.000000 ICntrl=       500 IOpCl=  0 I1Cent=   200000004 NGrid=           0
         NMat0=    1 NMatS0=      1 NMatT0=    0 NMatD0=    1 NMtDS0=    0 NMtDT0=    0
 Petite list used in FoFCou.
 Harris En= -95.5668141413943    
 JPrj=0 DoOrth=F DoCkMO=F.
 Initial guess <Sx>= 0.0000 <Sy>= 0.0000 <Sz>= 1.0000 <S**2>= 2.0000 S= 1.0000
 Leave Link  401 at Wed Oct  7 13:08:30 2020, MaxMem=  2684354560 cpu:               5.6 elap:               0.9
 (Enter /udrive/faculty/rpeverati/g16/g16/l502.exe)
 Keep J ints in memory in canonical form, NReq=10640822.
 FoFCou: FMM=F IPFlag=           0 FMFlag=           0 FMFlg1=           0
         NFxFlg=           0 DoJE=F BraDBF=F KetDBF=F FulRan=T
         wScrn=  0.000000 ICntrl=       600 IOpCl=  0 I1Cent=           0 NGrid=           0
         NMat0=    1 NMatS0=    741 NMatT0=    0 NMatD0=    1 NMtDS0=    0 NMtDT0=    0
 Symmetry not used in FoFCou.
 Two-electron integral symmetry not used.
 UHF open shell SCF:
 Using DIIS extrapolation, IDIIS=  1040.
 NGot=  2684354560 LenX=  2684075284 LenY=  2684073243
 Requested convergence on RMS density matrix=1.00D-08 within 120 cycles.
 Requested convergence on MAX density matrix=1.00D-06.
 Requested convergence on             energy=1.00D-06.
 No special actions if energy rises.
 Integral accuracy reduced to 1.0D-05 until final iterations.

 Cycle   1  Pass 0  IDiag  1:
 E= -95.6560137029282    
 DIIS: error= 5.92D-02 at cycle   1 NSaved=   1.
 NSaved= 1 IEnMin= 1 EnMin= -95.6560137029282     IErMin= 1 ErrMin= 5.92D-02
 ErrMax= 5.92D-02  0.00D+00 EMaxC= 1.00D-01 BMatC= 2.39D-01 BMatP= 2.39D-01
 IDIUse=3 WtCom= 4.08D-01 WtEn= 5.92D-01
 Coeff-Com:  0.100D+01
 Coeff-En:   0.100D+01
 Coeff:      0.100D+01
 Gap=     0.247 Goal=   None    Shift=    0.000
 Gap=     0.125 Goal=   None    Shift=    0.000
 GapD=    0.125 DampG=1.000 DampE=0.500 DampFc=0.5000 IDamp=-1.
 Damping current iteration by 5.00D-01
 RMSDP=1.50D-02 MaxDP=1.75D-01              OVMax= 2.47D-01

 Cycle   2  Pass 0  IDiag  1:
 E= -95.6811188531001     Delta-E=       -0.025105150172 Rises=F Damp=T
 DIIS: error= 1.33D-02 at cycle   2 NSaved=   2.
 NSaved= 2 IEnMin= 2 EnMin= -95.6811188531001     IErMin= 2 ErrMin= 1.33D-02
 ErrMax= 1.33D-02  0.00D+00 EMaxC= 1.00D-01 BMatC= 2.13D-02 BMatP= 2.39D-01
 IDIUse=3 WtCom= 8.67D-01 WtEn= 1.33D-01
 Coeff-Com:  0.148D+00 0.852D+00
 Coeff-En:   0.258D+00 0.742D+00
 Coeff:      0.163D+00 0.837D+00
 Gap=     0.278 Goal=   None    Shift=    0.000
 Gap=     0.146 Goal=   None    Shift=    0.000
 RMSDP=4.01D-03 MaxDP=4.52D-02 DE=-2.51D-02 OVMax= 1.98D-01

 Cycle   3  Pass 0  IDiag  1:
 E= -95.7199197945704     Delta-E=       -0.038800941470 Rises=F Damp=F
 DIIS: error= 1.54D-02 at cycle   3 NSaved=   3.
 NSaved= 3 IEnMin= 3 EnMin= -95.7199197945704     IErMin= 2 ErrMin= 1.33D-02
 ErrMax= 1.54D-02  0.00D+00 EMaxC= 1.00D-01 BMatC= 1.73D-02 BMatP= 2.13D-02
 IDIUse=3 WtCom= 8.46D-01 WtEn= 1.54D-01
 Coeff-Com:  0.459D-01 0.471D+00 0.484D+00
 Coeff-En:   0.000D+00 0.000D+00 0.100D+01
 Coeff:      0.389D-01 0.398D+00 0.563D+00
 Gap=     0.276 Goal=   None    Shift=    0.000
 Gap=     0.163 Goal=   None    Shift=    0.000
 RMSDP=2.92D-03 MaxDP=3.08D-02 DE=-3.88D-02 OVMax= 8.19D-02

 Cycle   4  Pass 0  IDiag  1:
 E= -95.7234416168807     Delta-E=       -0.003521822310 Rises=F Damp=F
 DIIS: error= 7.94D-03 at cycle   4 NSaved=   4.
 NSaved= 4 IEnMin= 4 EnMin= -95.7234416168807     IErMin= 4 ErrMin= 7.94D-03
 ErrMax= 7.94D-03  0.00D+00 EMaxC= 1.00D-01 BMatC= 5.42D-03 BMatP= 1.73D-02
 IDIUse=3 WtCom= 9.21D-01 WtEn= 7.94D-02
 Coeff-Com: -0.521D-02-0.561D-01 0.355D+00 0.707D+00
 Coeff-En:   0.000D+00 0.000D+00 0.264D+00 0.736D+00
 Coeff:     -0.480D-02-0.516D-01 0.348D+00 0.709D+00
 Gap=     0.272 Goal=   None    Shift=    0.000
 Gap=     0.149 Goal=   None    Shift=    0.000
 RMSDP=1.02D-03 MaxDP=1.26D-02 DE=-3.52D-03 OVMax= 2.40D-02

 Cycle   5  Pass 0  IDiag  1:
 E= -95.7249407058559     Delta-E=       -0.001499088975 Rises=F Damp=F
 DIIS: error= 4.37D-04 at cycle   5 NSaved=   5.
 NSaved= 5 IEnMin= 5 EnMin= -95.7249407058559     IErMin= 5 ErrMin= 4.37D-04
 ErrMax= 4.37D-04  0.00D+00 EMaxC= 1.00D-01 BMatC= 3.58D-05 BMatP= 5.42D-03
 IDIUse=3 WtCom= 9.96D-01 WtEn= 4.37D-03
 Coeff-Com: -0.363D-02-0.252D-01 0.198D-01 0.789D-01 0.930D+00
 Coeff-En:   0.000D+00 0.000D+00 0.000D+00 0.000D+00 0.100D+01
 Coeff:     -0.361D-02-0.251D-01 0.197D-01 0.786D-01 0.930D+00
 Gap=     0.273 Goal=   None    Shift=    0.000
 Gap=     0.149 Goal=   None    Shift=    0.000
 RMSDP=1.37D-04 MaxDP=1.49D-03 DE=-1.50D-03 OVMax= 2.06D-03

 Cycle   6  Pass 0  IDiag  1:
 E= -95.7249540917256     Delta-E=       -0.000013385870 Rises=F Damp=F
 DIIS: error= 2.07D-04 at cycle   6 NSaved=   6.
 NSaved= 6 IEnMin= 6 EnMin= -95.7249540917256     IErMin= 6 ErrMin= 2.07D-04
 ErrMax= 2.07D-04  0.00D+00 EMaxC= 1.00D-01 BMatC= 5.56D-06 BMatP= 3.58D-05
 IDIUse=3 WtCom= 9.98D-01 WtEn= 2.07D-03
 Coeff-Com: -0.495D-03 0.381D-02-0.398D-01-0.790D-01 0.228D+00 0.888D+00
 Coeff-En:   0.000D+00 0.000D+00 0.000D+00 0.000D+00 0.000D+00 0.100D+01
 Coeff:     -0.494D-03 0.381D-02-0.397D-01-0.789D-01 0.227D+00 0.888D+00
 Gap=     0.273 Goal=   None    Shift=    0.000
 Gap=     0.149 Goal=   None    Shift=    0.000
 RMSDP=5.33D-05 MaxDP=5.29D-04 DE=-1.34D-05 OVMax= 6.91D-04

 Cycle   7  Pass 0  IDiag  1:
 E= -95.7249562695229     Delta-E=       -0.000002177797 Rises=F Damp=F
 DIIS: error= 3.83D-05 at cycle   7 NSaved=   7.
 NSaved= 7 IEnMin= 7 EnMin= -95.7249562695229     IErMin= 7 ErrMin= 3.83D-05
 ErrMax= 3.83D-05  0.00D+00 EMaxC= 1.00D-01 BMatC= 1.76D-07 BMatP= 5.56D-06
 IDIUse=1 WtCom= 1.00D+00 WtEn= 0.00D+00
 Coeff-Com:  0.800D-05 0.121D-02-0.288D-02-0.452D-02-0.289D-01 0.438D-01
 Coeff-Com:  0.991D+00
 Coeff:      0.800D-05 0.121D-02-0.288D-02-0.452D-02-0.289D-01 0.438D-01
 Coeff:      0.991D+00
 Gap=     0.273 Goal=   None    Shift=    0.000
 Gap=     0.149 Goal=   None    Shift=    0.000
 RMSDP=1.07D-05 MaxDP=9.37D-05 DE=-2.18D-06 OVMax= 1.66D-04

 Cycle   8  Pass 0  IDiag  1:
 E= -95.7249563464413     Delta-E=       -0.000000076918 Rises=F Damp=F
 DIIS: error= 1.27D-05 at cycle   8 NSaved=   8.
 NSaved= 8 IEnMin= 8 EnMin= -95.7249563464413     IErMin= 8 ErrMin= 1.27D-05
 ErrMax= 1.27D-05  0.00D+00 EMaxC= 1.00D-01 BMatC= 1.49D-08 BMatP= 1.76D-07
 IDIUse=1 WtCom= 1.00D+00 WtEn= 0.00D+00
 Coeff-Com:  0.685D-04-0.179D-03 0.281D-02 0.544D-02-0.237D-01-0.647D-01
 Coeff-Com:  0.162D+00 0.919D+00
 Coeff:      0.685D-04-0.179D-03 0.281D-02 0.544D-02-0.237D-01-0.647D-01
 Coeff:      0.162D+00 0.919D+00
 Gap=     0.273 Goal=   None    Shift=    0.000
 Gap=     0.149 Goal=   None    Shift=    0.000
 RMSDP=2.79D-06 MaxDP=2.93D-05 DE=-7.69D-08 OVMax= 4.91D-05

 Initial convergence to 1.0D-05 achieved.  Increase integral accuracy.
 Cycle   9  Pass 1  IDiag  1:
 E= -95.7249573574601     Delta-E=       -0.000001011019 Rises=F Damp=F
 DIIS: error= 4.35D-06 at cycle   1 NSaved=   1.
 NSaved= 1 IEnMin= 1 EnMin= -95.7249573574601     IErMin= 1 ErrMin= 4.35D-06
 ErrMax= 4.35D-06  0.00D+00 EMaxC= 1.00D-01 BMatC= 1.86D-09 BMatP= 1.86D-09
 IDIUse=1 WtCom= 1.00D+00 WtEn= 0.00D+00
 Coeff-Com:  0.100D+01
 Coeff:      0.100D+01
 Gap=     0.273 Goal=   None    Shift=    0.000
 Gap=     0.149 Goal=   None    Shift=    0.000
 RMSDP=2.79D-06 MaxDP=2.93D-05 DE=-1.01D-06 OVMax= 3.55D-05

 Cycle  10  Pass 1  IDiag  1:
 E= -95.7249573572075     Delta-E=        0.000000000253 Rises=F Damp=F
 DIIS: error= 6.63D-06 at cycle   2 NSaved=   2.
 NSaved= 2 IEnMin= 1 EnMin= -95.7249573574601     IErMin= 1 ErrMin= 4.35D-06
 ErrMax= 6.63D-06  0.00D+00 EMaxC= 1.00D-01 BMatC= 3.45D-09 BMatP= 1.86D-09
 IDIUse=1 WtCom= 1.00D+00 WtEn= 0.00D+00
 Coeff-Com:  0.596D+00 0.404D+00
 Coeff:      0.596D+00 0.404D+00
 Gap=     0.273 Goal=   None    Shift=    0.000
 Gap=     0.149 Goal=   None    Shift=    0.000
 RMSDP=9.81D-07 MaxDP=1.08D-05 DE= 2.53D-10 OVMax= 3.01D-05

 Cycle  11  Pass 1  IDiag  1:
 E= -95.7249573581838     Delta-E=       -0.000000000976 Rises=F Damp=F
 DIIS: error= 1.93D-06 at cycle   3 NSaved=   3.
 NSaved= 3 IEnMin= 3 EnMin= -95.7249573581838     IErMin= 3 ErrMin= 1.93D-06
 ErrMax= 1.93D-06  0.00D+00 EMaxC= 1.00D-01 BMatC= 2.59D-10 BMatP= 1.86D-09
 IDIUse=1 WtCom= 1.00D+00 WtEn= 0.00D+00
 Coeff-Com: -0.708D-01 0.183D+00 0.888D+00
 Coeff:     -0.708D-01 0.183D+00 0.888D+00
 Gap=     0.273 Goal=   None    Shift=    0.000
 Gap=     0.149 Goal=   None    Shift=    0.000
 RMSDP=2.62D-07 MaxDP=2.51D-06 DE=-9.76D-10 OVMax= 3.72D-06

 Cycle  12  Pass 1  IDiag  1:
 E= -95.7249573582670     Delta-E=       -0.000000000083 Rises=F Damp=F
 DIIS: error= 3.34D-07 at cycle   4 NSaved=   4.
 NSaved= 4 IEnMin= 4 EnMin= -95.7249573582670     IErMin= 4 ErrMin= 3.34D-07
 ErrMax= 3.34D-07  0.00D+00 EMaxC= 1.00D-01 BMatC= 1.23D-11 BMatP= 2.59D-10
 IDIUse=1 WtCom= 1.00D+00 WtEn= 0.00D+00
 Coeff-Com: -0.748D-01 0.187D-01 0.172D+00 0.884D+00
 Coeff:     -0.748D-01 0.187D-01 0.172D+00 0.884D+00
 Gap=     0.273 Goal=   None    Shift=    0.000
 Gap=     0.149 Goal=   None    Shift=    0.000
 RMSDP=9.09D-08 MaxDP=8.50D-07 DE=-8.32D-11 OVMax= 1.09D-06

 Cycle  13  Pass 1  IDiag  1:
 E= -95.7249573582726     Delta-E=       -0.000000000006 Rises=F Damp=F
 DIIS: error= 8.31D-08 at cycle   5 NSaved=   5.
 NSaved= 5 IEnMin= 5 EnMin= -95.7249573582726     IErMin= 5 ErrMin= 8.31D-08
 ErrMax= 8.31D-08  0.00D+00 EMaxC= 1.00D-01 BMatC= 8.29D-13 BMatP= 1.23D-11
 IDIUse=1 WtCom= 1.00D+00 WtEn= 0.00D+00
 Coeff-Com:  0.265D-02-0.162D-01-0.847D-01 0.484D-01 0.105D+01
 Coeff:      0.265D-02-0.162D-01-0.847D-01 0.484D-01 0.105D+01
 Gap=     0.273 Goal=   None    Shift=    0.000
 Gap=     0.149 Goal=   None    Shift=    0.000
 RMSDP=2.79D-08 MaxDP=3.11D-07 DE=-5.60D-12 OVMax= 4.33D-07

 Cycle  14  Pass 1  IDiag  1:
 E= -95.7249573582732     Delta-E=       -0.000000000001 Rises=F Damp=F
 DIIS: error= 4.10D-08 at cycle   6 NSaved=   6.
 NSaved= 6 IEnMin= 6 EnMin= -95.7249573582732     IErMin= 6 ErrMin= 4.10D-08
 ErrMax= 4.10D-08  0.00D+00 EMaxC= 1.00D-01 BMatC= 1.95D-13 BMatP= 8.29D-13
 IDIUse=1 WtCom= 1.00D+00 WtEn= 0.00D+00
 Coeff-Com:  0.515D-02-0.872D-02-0.449D-01-0.260D-01 0.456D+00 0.619D+00
 Coeff:      0.515D-02-0.872D-02-0.449D-01-0.260D-01 0.456D+00 0.619D+00
 Gap=     0.273 Goal=   None    Shift=    0.000
 Gap=     0.149 Goal=   None    Shift=    0.000
 RMSDP=7.48D-09 MaxDP=8.25D-08 DE=-5.68D-13 OVMax= 9.82D-08

 SCF Done:  E(UTPSS-TPSS) =  -95.7249573583     A.U. after   14 cycles
            NFock= 14  Conv=0.75D-08     -V/T= 2.0053
 <Sx>= 0.0000 <Sy>= 0.0000 <Sz>= 1.0000 <S**2>= 2.0108 S= 1.0036
 <L.S>= 0.000000000000E+00
 KE= 9.522435642062D+01 PE=-2.895353870837D+02 EE= 6.512962245493D+01
 Annihilation of the first spin contaminant:
 S**2 before annihilation     2.0108,   after     2.0001
 Leave Link  502 at Wed Oct  7 13:08:35 2020, MaxMem=  2684354560 cpu:              48.1 elap:               4.6
 (Enter /udrive/faculty/rpeverati/g16/g16/l508.exe)
 QCSCF skips out because SCF is already converged.
 Leave Link  508 at Wed Oct  7 13:08:36 2020, MaxMem=  2684354560 cpu:               1.6 elap:               0.7
 (Enter /udrive/faculty/rpeverati/g16/g16/l601.exe)
 Copying SCF densities to generalized density rwf, IOpCl= 1 IROHF=0.

 **********************************************************************

            Population analysis using the SCF density.

 **********************************************************************

 Orbital symmetries:
 Alpha Orbitals:
       Occupied  (A) (A) (A) (A) (A) (A) (A) (A) (A) (A)
       Virtual   (A) (A) (A) (A) (A) (A) (A) (A) (A) (A) (A) (A)
                 (A) (A) (A) (A) (A) (A) (A) (A) (A) (A) (A) (A)
                 (A) (A) (A) (A)
 Beta  Orbitals:
       Occupied  (A) (A) (A) (A) (A) (A) (A) (A)
       Virtual   (A) (A) (A) (A) (A) (A) (A) (A) (A) (A) (A) (A)
                 (A) (A) (A) (A) (A) (A) (A) (A) (A) (A) (A) (A)
                 (A) (A) (A) (A) (A) (A)
 The electronic state is 3-A.
 Alpha  occ. eigenvalues --  -14.15206  -9.99865  -0.78492  -0.64456  -0.41500
 Alpha  occ. eigenvalues --   -0.37596  -0.37455  -0.31020  -0.26764  -0.19188
 Alpha virt. eigenvalues --    0.08097   0.11389   0.15431   0.15622   0.26040
 Alpha virt. eigenvalues --    0.48904   0.49138   0.52818   0.66112   0.66600
 Alpha virt. eigenvalues --    0.70270   0.81660   0.87352   0.87897   0.88314
 Alpha virt. eigenvalues --    0.92911   1.12611   1.38942   1.60242   1.60954
 Alpha virt. eigenvalues --    1.62316   1.63656   1.63772   1.83137   2.17153
 Alpha virt. eigenvalues --    2.21887   2.23648   2.36515
  Beta  occ. eigenvalues --  -14.12106  -9.98830  -0.71529  -0.62029  -0.38935
  Beta  occ. eigenvalues --   -0.37026  -0.36803  -0.26727
  Beta virt. eigenvalues --   -0.11791  -0.10402   0.09648   0.12860   0.16380
  Beta virt. eigenvalues --    0.16560   0.28775   0.50094   0.50898   0.57704
  Beta virt. eigenvalues --    0.71240   0.73199   0.75570   0.85184   0.90216
  Beta virt. eigenvalues --    0.90300   0.92337   0.96449   1.16943   1.43404
  Beta virt. eigenvalues --    1.65614   1.66326   1.71032   1.71944   1.75121
  Beta virt. eigenvalues --    1.90886   2.24467   2.26524   2.30125   2.44014
          Condensed to atoms (all electrons):
               1          2          3          4          5          6
     1  C    5.437083  -0.100297   0.365989   0.365917   0.370102   0.190436
     2  N   -0.100297   7.228477   0.001170   0.001179   0.001043   0.135275
     3  H    0.365989   0.001170   0.516618  -0.026520  -0.025719  -0.011832
     4  H    0.365917   0.001179  -0.026520   0.517500  -0.025789  -0.011946
     5  H    0.370102   0.001043  -0.025719  -0.025789   0.500866  -0.010913
     6  H    0.190436   0.135275  -0.011832  -0.011946  -0.010913   0.455741
     7  H    0.014511   0.225171  -0.000555  -0.000607   0.000108  -0.038999
               7
     1  C    0.014511
     2  N    0.225171
     3  H   -0.000555
     4  H   -0.000607
     5  H    0.000108
     6  H   -0.038999
     7  H    0.508266
          Atomic-Atomic Spin Densities.
               1          2          3          4          5          6
     1  C    0.766343  -0.110646  -0.014839  -0.014668  -0.017686   0.032666
     2  N   -0.110646   1.714708   0.002741   0.002791   0.003459  -0.041393
     3  H   -0.014839   0.002741  -0.013966   0.002153   0.003064   0.001414
     4  H   -0.014668   0.002791   0.002153  -0.014455   0.003098   0.001431
     5  H   -0.017686   0.003459   0.003064   0.003098  -0.011686   0.001009
     6  H    0.032666  -0.041393   0.001414   0.001431   0.001009  -0.102523
     7  H    0.005442  -0.022141  -0.000245  -0.000254  -0.000127   0.006926
               7
     1  C    0.005442
     2  N   -0.022141
     3  H   -0.000245
     4  H   -0.000254
     5  H   -0.000127
     6  H    0.006926
     7  H   -0.026811
 Mulliken charges and spin densities:
               1          2
     1  C   -0.643742   0.646612
     2  N   -0.492017   1.549520
     3  H    0.180849  -0.019677
     4  H    0.180265  -0.019904
     5  H    0.190301  -0.018869
     6  H    0.292240  -0.100471
     7  H    0.292104  -0.037211
 Sum of Mulliken charges =   0.00000   2.00000
 Mulliken charges and spin densities with hydrogens summed into heavy atoms:
               1          2
     1  C   -0.092327   0.588162
     2  N    0.092327   1.411838
 Electronic spatial extent (au):  <R**2>=            159.5872
 Charge=              0.0000 electrons
 Dipole moment (field-independent basis, Debye):
    X=             -0.9526    Y=             -1.4349    Z=              0.0005  Tot=              1.7223
 Quadrupole moment (field-independent basis, Debye-Ang):
   XX=            -16.2528   YY=            -13.8396   ZZ=            -14.1616
   XY=             -2.6956   XZ=             -0.0006   YZ=             -0.0022
 Traceless Quadrupole moment (field-independent basis, Debye-Ang):
   XX=             -1.5014   YY=              0.9117   ZZ=              0.5897
   XY=             -2.6956   XZ=             -0.0006   YZ=             -0.0022
 Octapole moment (field-independent basis, Debye-Ang**2):
  XXX=             -0.2977  YYY=             -1.0249  ZZZ=              0.0909  XYY=              0.2169
  XXY=             -4.2853  XXZ=              0.0036  XZZ=             -0.1264  YZZ=             -0.9760
  YYZ=             -0.0912  XYZ=              0.0111
 Hexadecapole moment (field-independent basis, Debye-Ang**3):
 XXXX=           -175.9013 YYYY=            -23.1842 ZZZZ=            -19.6575 XXXY=             -9.0157
 XXXZ=             -0.0046 YYYX=             -4.2414 YYYZ=              0.0031 ZZZX=             -0.1433
 ZZZY=             -0.0059 XXYY=            -29.5999 XXZZ=            -30.0399 YYZZ=             -7.2534
 XXYZ=             -0.0271 YYXZ=              0.1409 ZZXY=              0.5193
 N-N= 3.345645084989D+01 E-N=-2.895353890689D+02  KE= 9.522435642062D+01
                          Isotropic Fermi Contact Couplings
        Atom                 a.u.       MegaHertz       Gauss      10(-4) cm-1
     1  C(13)              0.18304     102.88668      36.71252      34.31930
     2  N(14)              0.20083      32.44379      11.57675      10.82208
     3  H(1)              -0.00624     -13.95674      -4.98011      -4.65547
     4  H(1)              -0.00637     -14.23365      -5.07892      -4.74783
     5  H(1)              -0.00638     -14.25896      -5.08795      -4.75628
     6  H(1)              -0.03977     -88.87715     -31.71358     -29.64623
     7  H(1)              -0.01802     -40.26713     -14.36831     -13.43167
 --------------------------------------------------------
       Center         ----  Spin Dipole Couplings  ----
                      3XX-RR        3YY-RR        3ZZ-RR
 --------------------------------------------------------
     1   Atom        0.700066     -0.351310     -0.348755
     2   Atom        0.140913     -1.652115      1.511202
     3   Atom        0.007001     -0.028276      0.021276
     4   Atom        0.006807     -0.021464      0.014657
     5   Atom        0.009426      0.038246     -0.047672
     6   Atom        0.316164     -0.177612     -0.138552
     7   Atom       -0.096773      0.173211     -0.076438
 --------------------------------------------------------
                        XY            XZ            YZ
 --------------------------------------------------------
     1   Atom        0.057300      0.001006      0.000123
     2   Atom        0.277898      0.001257      0.000029
     3   Atom        0.011936     -0.015999     -0.037460
     4   Atom        0.013076      0.014875      0.041189
     5   Atom       -0.021984      0.001093     -0.003793
     6   Atom        0.001626     -0.000148      0.000033
     7   Atom       -0.058253      0.000029      0.000019
 --------------------------------------------------------


 ---------------------------------------------------------------------------------
              Anisotropic Spin Dipole Couplings in Principal Axis System
 ---------------------------------------------------------------------------------

       Atom             a.u.   MegaHertz   Gauss  10(-4) cm-1        Axes

              Baa    -0.3544   -47.560   -16.971   -15.864 -0.0542  0.9985 -0.0121
     1 C(13)  Bbb    -0.3488   -46.800   -16.699   -15.611 -0.0016  0.0120  0.9999
              Bcc     0.7032    94.360    33.670    31.475  0.9985  0.0543  0.0010
 
              Baa    -1.6942   -65.341   -23.315   -21.796 -0.1497  0.9887  0.0000
     2 N(14)  Bbb     0.1830     7.058     2.518     2.354  0.9887  0.1497 -0.0009
              Bcc     1.5112    58.284    20.797    19.441  0.0009  0.0001  1.0000
 
              Baa    -0.0486   -25.921    -9.249    -8.646 -0.0572  0.8852  0.4616
     3 H(1)   Bbb    -0.0018    -0.976    -0.348    -0.325  0.9082 -0.1459  0.3924
              Bcc     0.0504    26.896     9.597     8.972 -0.4147 -0.4417  0.7956
 
              Baa    -0.0485   -25.894    -9.240    -8.637 -0.0549  0.8423 -0.5361
     4 H(1)   Bbb    -0.0019    -0.998    -0.356    -0.333  0.9101 -0.1786 -0.3739
              Bcc     0.0504    26.893     9.596     8.970  0.4107  0.5085  0.7568
 
              Baa    -0.0478   -25.525    -9.108    -8.514 -0.0024  0.0434  0.9991
     5 H(1)   Bbb    -0.0024    -1.299    -0.463    -0.433  0.8803  0.4740 -0.0185
              Bcc     0.0503    26.824     9.571     8.947 -0.4744  0.8794 -0.0394
 
              Baa    -0.1776   -94.768   -33.816   -31.611 -0.0033  1.0000 -0.0009
     6 H(1)   Bbb    -0.1386   -73.925   -26.378   -24.659  0.0003  0.0009  1.0000
              Bcc     0.3162   168.693    60.194    56.270  1.0000  0.0033 -0.0003
 
              Baa    -0.1088   -58.054   -20.715   -19.365  0.9793  0.2023 -0.0010
     7 H(1)   Bbb    -0.0764   -40.784   -14.553   -13.604  0.0010  0.0002  1.0000
              Bcc     0.1852    98.837    35.268    32.969 -0.2023  0.9793  0.0000
 

 ---------------------------------------------------------------------------------

 No NMR shielding tensors so no spin-rotation constants.
 Leave Link  601 at Wed Oct  7 13:08:39 2020, MaxMem=  2684354560 cpu:              15.7 elap:               2.7
 (Enter /udrive/faculty/rpeverati/g16/g16/l701.exe)
 ... and contract with generalized density number  0.
 Compute integral first derivatives.
 R6Disp: Adding Grimme-D3(BJ) dispersion energy 1st derivatives to the gradient.
 Leave Link  701 at Wed Oct  7 13:08:40 2020, MaxMem=  2684354560 cpu:               6.4 elap:               1.1
 (Enter /udrive/faculty/rpeverati/g16/g16/l702.exe)
 L702 exits ... SP integral derivatives will be done elsewhere.
 Leave Link  702 at Wed Oct  7 13:08:41 2020, MaxMem=  2684354560 cpu:               1.5 elap:               0.6
 (Enter /udrive/faculty/rpeverati/g16/g16/l703.exe)
 Integral derivatives from FoFJK, PRISM(SPDF).
 Compute integral first derivatives, UseDBF=F ICtDFT=           0.
 Calling FoFJK, ICntrl=      2527 FMM=F ISym2X=0 I1Cent= 0 IOpClX= 0 NMat=1 NMatS=1 NMatT=0.
 FoFJK:  IHMeth= 1 ICntrl=    2527 DoSepK=F KAlg= 0 I1Cent=           0 FoldK=F
 IRaf=         0 NMat=       1 IRICut=       1 DoRegI=T DoRafI=F ISym2E= 0 IDoP0=0 IntGTp=1.
 FoFCou: FMM=F IPFlag=           0 FMFlag=      100000 FMFlg1=         800
         NFxFlg=           0 DoJE=F BraDBF=F KetDBF=F FulRan=T
         wScrn=  0.000000 ICntrl=      2527 IOpCl=  0 I1Cent=           0 NGrid=           0
         NMat0=    1 NMatS0=      1 NMatT0=    0 NMatD0=    1 NMtDS0=    0 NMtDT0=    0
 Symmetry not used in FoFCou.
 Leave Link  703 at Wed Oct  7 13:08:43 2020, MaxMem=  2684354560 cpu:              10.6 elap:               1.4
 (Enter /udrive/faculty/rpeverati/g16/g16/l716.exe)
 Dipole        =-3.74795174D-01-5.64529901D-01 1.80943716D-04
 ***** Axes restored to original set *****
 -------------------------------------------------------------------
 Center     Atomic                   Forces (Hartrees/Bohr)
 Number     Number              X              Y              Z
 -------------------------------------------------------------------
      1        6           0.007492912   -0.000155203   -0.000007243
      2        7           0.009212639    0.008965817    0.000014081
      3        1          -0.002210893   -0.002636075    0.004886914
      4        1          -0.002216408   -0.003046522   -0.004655710
      5        1          -0.002490384    0.005086497   -0.000222313
      6        1          -0.012902993    0.002600007   -0.000019340
      7        1           0.003115127   -0.010814520    0.000003610
 -------------------------------------------------------------------
 Cartesian Forces:  Max     0.012902993 RMS     0.005455641
 Leave Link  716 at Wed Oct  7 13:08:44 2020, MaxMem=  2684354560 cpu:               1.6 elap:               0.6
 (Enter /udrive/faculty/rpeverati/g16/g16/l103.exe)

 GradGradGradGradGradGradGradGradGradGradGradGradGradGradGradGradGradGrad
 Berny optimization.
 Optmz: redundant internal coordinate code flag= 1
 FormGI is forming the generalized inverse of G from B-inverse, IUseBI=4.
 Internal  Forces:  Max     0.012322947 RMS     0.004685015
 Search for a saddle point.
 Step number   1 out of a maximum of   50
 All quantities printed in internal units (Hartrees-Bohrs-Radians)
 Swapping is turned off.
 Second derivative matrix not updated -- first step.
 The second derivative matrix:
                          R1        R2        R3        R4        R5
           R1           0.35572
           R2           0.00000   0.35574
           R3           0.00000   0.00000   0.35577
           R4           0.00000   0.00000   0.00000   0.14538
           R5           0.00000   0.00000   0.00000   0.00000   0.23824
           R6           0.00000   0.00000   0.00000   0.00000   0.00000
           A1           0.00000   0.00000   0.00000   0.00000   0.00000
           A2           0.00000   0.00000   0.00000   0.00000   0.00000
           A3           0.00000   0.00000   0.00000   0.00000   0.00000
           A4           0.00000   0.00000   0.00000   0.00000   0.00000
           A5           0.00000   0.00000   0.00000   0.00000   0.00000
           A6           0.00000   0.00000   0.00000   0.00000   0.00000
           A7           0.00000   0.00000   0.00000   0.00000   0.00000
           A8           0.00000   0.00000   0.00000   0.00000   0.00000
           A9           0.00000   0.00000   0.00000   0.00000   0.00000
           D1           0.00000   0.00000   0.00000   0.00000   0.00000
           D2           0.00000   0.00000   0.00000   0.00000   0.00000
           D3           0.00000   0.00000   0.00000   0.00000   0.00000
                          R6        A1        A2        A3        A4
           R6           0.42542
           A1           0.00000   0.16000
           A2           0.00000   0.00000   0.16000
           A3           0.00000   0.00000   0.00000   0.16000
           A4           0.00000   0.00000   0.00000   0.00000   0.16000
           A5           0.00000   0.00000   0.00000   0.00000   0.00000
           A6           0.00000   0.00000   0.00000   0.00000   0.00000
           A7           0.00000   0.00000   0.00000   0.00000   0.00000
           A8           0.00000   0.00000   0.00000   0.00000   0.00000
           A9           0.00000   0.00000   0.00000   0.00000   0.00000
           D1           0.00000   0.00000   0.00000   0.00000   0.00000
           D2           0.00000   0.00000   0.00000   0.00000   0.00000
           D3           0.00000   0.00000   0.00000   0.00000   0.00000
                          A5        A6        A7        A8        A9
           A5           0.16000
           A6           0.00000   0.16000
           A7           0.00000   0.00000   0.16000
           A8           0.00000   0.00000   0.00000   0.00230
           A9           0.00000   0.00000   0.00000   0.00000   0.00230
           D1           0.00000   0.00000   0.00000   0.00000   0.00000
           D2           0.00000   0.00000   0.00000   0.00000   0.00000
           D3           0.00000   0.00000   0.00000   0.00000   0.00000
                          D1        D2        D3
           D1           0.00230
           D2           0.00000   0.00230
           D3           0.00000   0.00000   0.00230
 ITU=  0
 Eigenvectors of the second derivative matrix:
                           1         2         3         4         5
     Eigenvalues --     0.00230   0.00230   0.00230   0.10985   0.10997
   1         R1         0.00000   0.00000   0.00000   0.00000  -0.00000
   2         R2        -0.00000  -0.00000   0.00000  -0.00000  -0.00000
   3         R3        -0.00000  -0.00000   0.00000   0.00000   0.00000
   4         R4        -0.00000  -0.00000  -0.00000  -0.00050  -0.00452
   5         R5         0.00000   0.00000  -0.00000   0.00014   0.00144
   6         R6         0.00000   0.00000  -0.00000   0.00001  -0.00000
   7         A1        -0.00000  -0.00000  -0.00000  -0.02958  -0.62902
   8         A2        -0.00000   0.00000   0.00000   0.55882   0.29210
   9         A3         0.00000   0.00000   0.00000   0.20500  -0.12154
  10         A4        -0.00000   0.00000   0.00000  -0.52953   0.34380
  11         A5        -0.00000   0.00000  -0.00000  -0.21505  -0.10280
  12         A6         0.00000  -0.00000   0.00000   0.01253   0.24131
  13         A7        -0.00000  -0.00000  -0.00000  -0.00014   0.00001
  14         A8        -0.00537  -0.00225  -0.99081   0.00736   0.07576
  15         A9        -0.98062   0.17215   0.00504   0.05248  -0.00460
  16         D1         0.06345   0.57175  -0.09981  -0.24997  -0.38309
  17         D2         0.05913   0.57251   0.09108  -0.21301   0.40527
  18         D3         0.17561   0.56186   0.00324   0.45536  -0.02141
                           6         7         8         9        10
     Eigenvalues --     0.14538   0.16000   0.16000   0.16000   0.16000
   1         R1         0.00000  -0.00000   0.00000  -0.00000   0.00000
   2         R2        -0.00000   0.00000  -0.00000  -0.00000  -0.00000
   3         R3         0.00000  -0.00000  -0.00000   0.00000   0.00000
   4         R4        -0.99999   0.00000  -0.00000   0.00000   0.00000
   5         R5        -0.00000  -0.00000  -0.00000  -0.00000   0.00000
   6         R6        -0.00000   0.00000  -0.00000  -0.00000   0.00000
   7         A1         0.00380   0.35529  -0.01153   0.24663  -0.11291
   8         A2        -0.00213   0.18215   0.36527   0.14681   0.14700
   9         A3         0.00059  -0.50964  -0.58185  -0.19486   0.39697
  10         A4        -0.00171   0.15538  -0.09586   0.25042   0.33446
  11         A5         0.00076  -0.44207   0.61074  -0.46527  -0.09374
  12         A6        -0.00146   0.03921  -0.36852  -0.18792  -0.78879
  13         A7         0.00000   0.59979  -0.09944  -0.75176   0.25537
  14         A8        -0.00010  -0.00000   0.00000   0.00000   0.00000
  15         A9        -0.00000  -0.00000  -0.00000  -0.00000  -0.00000
  16         D1         0.00054   0.00000   0.00000  -0.00000   0.00000
  17         D2        -0.00050   0.00000  -0.00000  -0.00000  -0.00000
  18         D3        -0.00004   0.00000  -0.00000   0.00000  -0.00000
                          11        12        13        14        15
     Eigenvalues --     0.23824   0.35572   0.35574   0.35577   0.42542
   1         R1         0.00000  -1.00000   0.00000   0.00000   0.00000
   2         R2         0.00000  -0.00000  -1.00000  -0.00000   0.00000
   3         R3        -0.00000   0.00000  -0.00000   1.00000   0.00000
   4         R4        -0.00001   0.00000   0.00000   0.00000   0.00000
   5         R5        -1.00000  -0.00000  -0.00000  -0.00000  -0.00000
   6         R6        -0.00000   0.00000   0.00000  -0.00000   1.00000
   7         A1        -0.00199   0.00000   0.00000   0.00000  -0.00000
   8         A2         0.00109   0.00000  -0.00000  -0.00000  -0.00002
   9         A3        -0.00032   0.00000   0.00000  -0.00000  -0.00001
  10         A4         0.00092  -0.00000  -0.00000   0.00000   0.00002
  11         A5        -0.00039   0.00000  -0.00000   0.00000   0.00001
  12         A6         0.00076  -0.00000   0.00000  -0.00000   0.00000
  13         A7        -0.00000   0.00000   0.00000   0.00000   0.00000
  14         A8        -0.00017  -0.00000  -0.00000  -0.00000   0.00000
  15         A9        -0.00000   0.00000   0.00000   0.00000   0.00000
  16         D1         0.00092   0.00000   0.00000   0.00000  -0.00001
  17         D2        -0.00086  -0.00000   0.00000  -0.00000  -0.00001
  18         D3        -0.00005   0.00000  -0.00000  -0.00000   0.00002
 Eigenvalue     1 is   2.30D-03 should be less than     0.000000 Eigenvector:
                          A9        D3        D1        D2        A8
   1                   -0.98062   0.17561   0.06345   0.05913  -0.00537
                          A3        A6        A4        A2        A7
   1                    0.00000   0.00000  -0.00000  -0.00000  -0.00000
 RLam0= 2.30D-03.
 Iter=   1 RLamda= 0.00000000D+00 Sum=-2.65471496D-03.
 Iter=   2 RLamda=-2.65471496D-03 Sum=-1.91875597D-03.
 Iter=   3 RLamda=-1.91875597D-03 Sum=-2.03152846D-03.
 Iter=   4 RLamda=-2.03152846D-03 Sum=-2.01183598D-03.
 Iter=   5 RLamda=-2.01183598D-03 Sum=-2.01520242D-03.
 Iter=   6 RLamda=-2.01520242D-03 Sum=-2.01462481D-03.
 Iter=   7 RLamda=-2.01462481D-03 Sum=-2.01472385D-03.
 Iter=   8 RLamda=-2.01472385D-03 Sum=-2.01470687D-03.
 Iter=   9 RLamda=-2.01470687D-03 Sum=-2.01470978D-03.
 RFO step:  Lambda0=2.300547369D-03 Lambda=-2.01470687D-03.
 Linear search not attempted -- option 19 set.
 Maximum step size (   0.100) exceeded in Quadratic search.
    -- Step size scaled by   0.173
 Iteration  1 RMS(Cart)=  0.03538920 RMS(Int)=  0.00156215
 Iteration  2 RMS(Cart)=  0.00177722 RMS(Int)=  0.00022401
 Iteration  3 RMS(Cart)=  0.00000333 RMS(Int)=  0.00022399
 Iteration  4 RMS(Cart)=  0.00000000 RMS(Int)=  0.00022399
 ITry= 1 IFail=0 DXMaxC= 7.66D-02 DCOld= 1.00D+10 DXMaxT= 1.00D-01 DXLimC= 3.00D+00 Rises=F
 Variable       Old X    -DE/DX   Delta X   Delta X   Delta X     New X
                                 (Linear)    (Quad)   (Total)
    R1        2.04757   0.00589   0.00000   0.00285   0.00285   2.05042
    R2        2.04753   0.00590   0.00000   0.00285   0.00285   2.05039
    R3        2.04748   0.00560   0.00000   0.00271   0.00271   2.05019
    R4        2.63682  -0.00050   0.00000  -0.00058  -0.00058   2.63624
    R5        2.28996   0.01232   0.00000   0.00888   0.00888   2.29884
    R6        1.94939   0.01118   0.00000   0.00453   0.00453   1.95391
    A1        1.99899  -0.00080   0.00000  -0.00078  -0.00087   1.99811
    A2        2.00015  -0.00104   0.00000  -0.00115  -0.00145   1.99870
    A3        1.82733   0.00134   0.00000   0.00145   0.00129   1.82862
    A4        2.00011  -0.00103   0.00000  -0.00114  -0.00074   1.99937
    A5        1.82961   0.00143   0.00000   0.00154   0.00167   1.83128
    A6        1.77230   0.00100   0.00000   0.00104   0.00106   1.77336
    A7        1.73353   0.00252   0.00000   0.00270   0.00270   1.73623
    A8        3.04496  -0.00177   0.00000  -0.07048  -0.07048   2.97448
    A9        3.13927   0.00004   0.00000  -0.06994  -0.06985   3.06941
    D1        1.08834  -0.00007   0.00000  -0.00231  -0.00250   1.08584
    D2       -1.00215   0.00006   0.00000   0.01054   0.01009  -0.99205
    D3       -3.09797  -0.00001   0.00000   0.01282   0.01343  -3.08454
         Item               Value     Threshold  Converged?
 Maximum Force            0.012323     0.000450     NO 
 RMS     Force            0.004685     0.000300     NO 
 Maximum Displacement     0.076604     0.001800     NO 
 RMS     Displacement     0.035820     0.001200     NO 
 Predicted change in Energy=-3.152395D-04
 Lowest energy point so far.  Saving SCF results.
 Largest change from initial coordinates is atom    6       0.041 Angstoms.
 GradGradGradGradGradGradGradGradGradGradGradGradGradGradGradGradGradGrad

 Leave Link  103 at Wed Oct  7 13:08:45 2020, MaxMem=  2684354560 cpu:               5.3 elap:               0.8
 (Enter /udrive/faculty/rpeverati/g16/g16/l202.exe)
                          Input orientation:                          
 ---------------------------------------------------------------------
 Center     Atomic      Atomic             Coordinates (Angstroms)
 Number     Number       Type             X           Y           Z
 ---------------------------------------------------------------------
      1          6           0       -1.192255   -0.008968    0.002916
      2          7           0        1.406239    0.120073   -0.011801
      3          1           0       -1.424193   -0.513843    0.934905
      4          1           0       -1.382175   -0.599116   -0.887546
      5          1           0       -1.542027    1.016507   -0.052745
      6          1           0        0.191344    0.167433    0.028692
      7          1           0        1.536666   -0.905632   -0.014360
 ---------------------------------------------------------------------
                    Distance matrix (angstroms):
                    1          2          3          4          5
     1  C    0.000000
     2  N    2.601738   0.000000
     3  H    1.085034   3.051139   0.000000
     4  H    1.085019   3.009886   1.824929   0.000000
     5  H    1.084914   3.081809   1.825187   1.825565   0.000000
     6  H    1.395037   1.216492   1.973656   1.975614   1.931873
     7  H    2.872510   1.033967   3.133894   3.062031   3.629661
                    6          7
     6  H    0.000000
     7  H    1.721399   0.000000
 Stoichiometry    CH5N(3)
 Framework group  C1[X(CH5N)]
 Deg. of freedom    15
 Full point group                 C1      NOp   1
 RotChk:  IX=3 Diff= 1.25D-02
 Largest Abelian subgroup         C1      NOp   1
 Largest concise Abelian subgroup C1      NOp   1
                         Standard orientation:                         
 ---------------------------------------------------------------------
 Center     Atomic      Atomic             Coordinates (Angstroms)
 Number     Number       Type             X           Y           Z
 ---------------------------------------------------------------------
      1          6           0       -1.196108   -0.011388   -0.001097
      2          7           0        1.401857    0.128687   -0.000881
      3          1           0       -1.431496   -0.512716    0.931942
      4          1           0       -1.378165   -0.606664   -0.889786
      5          1           0       -1.549890    1.012299   -0.063860
      6          1           0        0.186550    0.171049    0.032103
      7          1           0        1.536650   -0.896451    0.002351
 ---------------------------------------------------------------------
 Rotational constants (GHZ):         115.7464526           9.1902010           9.0245400
 Leave Link  202 at Wed Oct  7 13:08:46 2020, MaxMem=  2684354560 cpu:               2.2 elap:               0.6
 (Enter /udrive/faculty/rpeverati/g16/g16/l301.exe)
 Standard basis: 6-31G(d) (5D, 7F)
 Ernie: Thresh=  0.10000D-02 Tol=  0.10000D-05 Strict=F.
 There are    40 symmetry adapted cartesian basis functions of A   symmetry.
 There are    38 symmetry adapted basis functions of A   symmetry.
    38 basis functions,    76 primitive gaussians,    40 cartesian basis functions
    10 alpha electrons        8 beta electrons
       nuclear repulsion energy        33.4517275037 Hartrees.
 IExCor= 2523 DFT=T Ex=TPSS Corr=TPSS ExCW=0 ScaHFX=  0.000000
 ScaDFX=  1.000000  1.000000  1.000000  1.000000 ScalE2=  1.000000  1.000000
 IRadAn=      5 IRanWt=     -1 IRanGd=            0 ICorTp=0 IEmpDi=141
 NAtoms=    7 NActive=    7 NUniq=    7 SFac= 1.00D+00 NAtFMM=   60 NAOKFM=F Big=F
 Integral buffers will be    131072 words long.
 Raffenetti 2 integral format.
 Two-electron integral symmetry is turned on.
 R6Disp:  Grimme-D3(BJ) Dispersion energy=       -0.0031029588 Hartrees.
 Nuclear repulsion after empirical dispersion term =       33.4486245448 Hartrees.
 Leave Link  301 at Wed Oct  7 13:08:47 2020, MaxMem=  2684354560 cpu:               1.7 elap:               0.5
 (Enter /udrive/faculty/rpeverati/g16/g16/l302.exe)
 NPDir=0 NMtPBC=     1 NCelOv=     1 NCel=       1 NClECP=     1 NCelD=      1
         NCelK=      1 NCelE2=     1 NClLst=     1 CellRange=     0.0.
 One-electron integrals computed using PRISM.
 One-electron integral symmetry used in STVInt
 NBasis=    38 RedAO= T EigKep=  9.66D-03  NBF=    38
 NBsUse=    38 1.00D-06 EigRej= -1.00D+00 NBFU=    38
 Precomputing XC quadrature grid using
 IXCGrd= 4 IRadAn=           5 IRanWt=          -1 IRanGd=           0 AccXCQ= 0.00D+00.
 Generated NRdTot=       0 NPtTot=           0 NUsed=           0 NTot=          32
 NSgBfM=    40    40    40    40    40 MxSgAt=     7 MxSgA2=     7.
 Leave Link  302 at Wed Oct  7 13:08:48 2020, MaxMem=  2684354560 cpu:               4.4 elap:               0.8
 (Enter /udrive/faculty/rpeverati/g16/g16/l303.exe)
 DipDrv:  MaxL=1.
 Leave Link  303 at Wed Oct  7 13:08:49 2020, MaxMem=  2684354560 cpu:               2.9 elap:               0.9
 (Enter /udrive/faculty/rpeverati/g16/g16/l401.exe)
 Initial guess from the checkpoint file:  "MN_92_RKT18_BH76_TPSSDBJ_631Gs.chk"
 SCF N**3 symmetry information disabled.
 B after Tr=     0.000000    0.000000   -0.000000
         Rot=    0.999993    0.003546    0.001221   -0.000658 Ang=   0.44 deg.
 Guess basis will be translated and rotated to current coordinates.
 JPrj=2 DoOrth=T DoCkMO=T.
 Initial guess <Sx>= 0.0000 <Sy>= 0.0000 <Sz>= 1.0000 <S**2>= 2.0109 S= 1.0036
 Generating alternative initial guess.
 ExpMin= 1.61D-01 ExpMax= 4.17D+03 ExpMxC= 6.27D+02 IAcc=2 IRadAn=         4 AccDes= 0.00D+00
 Harris functional with IExCor= 1009 and IRadAn=       4 diagonalized for initial guess.
 HarFok:  IExCor= 1009 AccDes= 0.00D+00 IRadAn=         4 IDoV= 1 UseB2=F ITyADJ=14
 ICtDFT=  3500011 ScaDFX=  1.000000  1.000000  1.000000  1.000000
 FoFCou: FMM=F IPFlag=           0 FMFlag=      100000 FMFlg1=           0
         NFxFlg=           0 DoJE=T BraDBF=F KetDBF=T FulRan=T
         wScrn=  0.000000 ICntrl=       500 IOpCl=  0 I1Cent=   200000004 NGrid=           0
         NMat0=    1 NMatS0=      1 NMatT0=    0 NMatD0=    1 NMtDS0=    0 NMtDT0=    0
 Petite list used in FoFCou.
 Harris En= -95.5664425937705    
 Leave Link  401 at Wed Oct  7 13:08:51 2020, MaxMem=  2684354560 cpu:               9.7 elap:               1.4
 (Enter /udrive/faculty/rpeverati/g16/g16/l502.exe)
 Keep J ints in memory in canonical form, NReq=10640822.
 FoFCou: FMM=F IPFlag=           0 FMFlag=           0 FMFlg1=           0
         NFxFlg=           0 DoJE=F BraDBF=F KetDBF=F FulRan=T
         wScrn=  0.000000 ICntrl=       600 IOpCl=  0 I1Cent=           0 NGrid=           0
         NMat0=    1 NMatS0=    741 NMatT0=    0 NMatD0=    1 NMtDS0=    0 NMtDT0=    0
 Symmetry not used in FoFCou.
 Two-electron integral symmetry not used.
 UHF open shell SCF:
 Using DIIS extrapolation, IDIIS=  1040.
 NGot=  2684354560 LenX=  2684075284 LenY=  2684073243
 Requested convergence on RMS density matrix=1.00D-08 within 120 cycles.
 Requested convergence on MAX density matrix=1.00D-06.
 Requested convergence on             energy=1.00D-06.
 No special actions if energy rises.
 Integral accuracy reduced to 1.0D-05 until final iterations.

 Cycle   1  Pass 0  IDiag  1:
 E= -95.7245412933659    
 DIIS: error= 2.90D-03 at cycle   1 NSaved=   1.
 NSaved= 1 IEnMin= 1 EnMin= -95.7245412933659     IErMin= 1 ErrMin= 2.90D-03
 ErrMax= 2.90D-03  0.00D+00 EMaxC= 1.00D-01 BMatC= 1.16D-03 BMatP= 1.16D-03
 IDIUse=3 WtCom= 9.71D-01 WtEn= 2.90D-02
 Coeff-Com:  0.100D+01
 Coeff-En:   0.100D+01
 Coeff:      0.100D+01
 Gap=     0.446 Goal=   None    Shift=    0.000
 Gap=     0.568 Goal=   None    Shift=    0.000
 GapD=    0.446 DampG=2.000 DampE=1.000 DampFc=2.0000 IDamp=-1.
 RMSDP=1.09D-03 MaxDP=9.01D-03              OVMax= 1.29D-02

 Cycle   2  Pass 0  IDiag  1:
 E= -95.7251577966867     Delta-E=       -0.000616503321 Rises=F Damp=F
 DIIS: error= 2.93D-04 at cycle   2 NSaved=   2.
 NSaved= 2 IEnMin= 2 EnMin= -95.7251577966867     IErMin= 2 ErrMin= 2.93D-04
 ErrMax= 2.93D-04  0.00D+00 EMaxC= 1.00D-01 BMatC= 1.66D-05 BMatP= 1.16D-03
 IDIUse=3 WtCom= 9.97D-01 WtEn= 2.93D-03
 Coeff-Com: -0.190D-01 0.102D+01
 Coeff-En:   0.000D+00 0.100D+01
 Coeff:     -0.189D-01 0.102D+01
 Gap=     0.272 Goal=   None    Shift=    0.000
 Gap=     0.150 Goal=   None    Shift=    0.000
 RMSDP=1.34D-04 MaxDP=1.25D-03 DE=-6.17D-04 OVMax= 2.21D-03

 Cycle   3  Pass 0  IDiag  1:
 E= -95.7251623681128     Delta-E=       -0.000004571426 Rises=F Damp=F
 DIIS: error= 3.79D-04 at cycle   3 NSaved=   3.
 NSaved= 3 IEnMin= 3 EnMin= -95.7251623681128     IErMin= 2 ErrMin= 2.93D-04
 ErrMax= 3.79D-04  0.00D+00 EMaxC= 1.00D-01 BMatC= 1.12D-05 BMatP= 1.66D-05
 IDIUse=3 WtCom= 9.96D-01 WtEn= 3.79D-03
 Coeff-Com: -0.136D-01 0.449D+00 0.564D+00
 Coeff-En:   0.000D+00 0.000D+00 0.100D+01
 Coeff:     -0.135D-01 0.448D+00 0.566D+00
 Gap=     0.271 Goal=   None    Shift=    0.000
 Gap=     0.150 Goal=   None    Shift=    0.000
 RMSDP=6.88D-05 MaxDP=6.93D-04 DE=-4.57D-06 OVMax= 1.31D-03

 Cycle   4  Pass 0  IDiag  1:
 E= -95.7251647158717     Delta-E=       -0.000002347759 Rises=F Damp=F
 DIIS: error= 1.98D-04 at cycle   4 NSaved=   4.
 NSaved= 4 IEnMin= 4 EnMin= -95.7251647158717     IErMin= 4 ErrMin= 1.98D-04
 ErrMax= 1.98D-04  0.00D+00 EMaxC= 1.00D-01 BMatC= 2.89D-06 BMatP= 1.12D-05
 IDIUse=3 WtCom= 9.98D-01 WtEn= 1.98D-03
 Coeff-Com: -0.286D-02 0.279D-01 0.321D+00 0.654D+00
 Coeff-En:   0.000D+00 0.000D+00 0.190D+00 0.810D+00
 Coeff:     -0.285D-02 0.279D-01 0.321D+00 0.654D+00
 Gap=     0.271 Goal=   None    Shift=    0.000
 Gap=     0.150 Goal=   None    Shift=    0.000
 RMSDP=3.35D-05 MaxDP=3.32D-04 DE=-2.35D-06 OVMax= 1.03D-03

 Cycle   5  Pass 0  IDiag  1:
 E= -95.7251653295125     Delta-E=       -0.000000613641 Rises=F Damp=F
 DIIS: error= 9.03D-05 at cycle   5 NSaved=   5.
 NSaved= 5 IEnMin= 5 EnMin= -95.7251653295125     IErMin= 5 ErrMin= 9.03D-05
 ErrMax= 9.03D-05  0.00D+00 EMaxC= 1.00D-01 BMatC= 7.79D-07 BMatP= 2.89D-06
 IDIUse=1 WtCom= 1.00D+00 WtEn= 0.00D+00
 Coeff-Com:  0.939D-03-0.743D-01 0.953D-01 0.423D+00 0.555D+00
 Coeff:      0.939D-03-0.743D-01 0.953D-01 0.423D+00 0.555D+00
 Gap=     0.271 Goal=   None    Shift=    0.000
 Gap=     0.150 Goal=   None    Shift=    0.000
 RMSDP=1.23D-05 MaxDP=1.32D-04 DE=-6.14D-07 OVMax= 3.30D-04

 Cycle   6  Pass 0  IDiag  1:
 E= -95.7251655553912     Delta-E=       -0.000000225879 Rises=F Damp=F
 DIIS: error= 1.56D-05 at cycle   6 NSaved=   6.
 NSaved= 6 IEnMin= 6 EnMin= -95.7251655553912     IErMin= 6 ErrMin= 1.56D-05
 ErrMax= 1.56D-05  0.00D+00 EMaxC= 1.00D-01 BMatC= 1.98D-08 BMatP= 7.79D-07
 IDIUse=1 WtCom= 1.00D+00 WtEn= 0.00D+00
 Coeff-Com:  0.462D-03-0.334D-01 0.233D-01 0.136D+00 0.242D+00 0.632D+00
 Coeff:      0.462D-03-0.334D-01 0.233D-01 0.136D+00 0.242D+00 0.632D+00
 Gap=     0.271 Goal=   None    Shift=    0.000
 Gap=     0.150 Goal=   None    Shift=    0.000
 RMSDP=2.18D-06 MaxDP=2.81D-05 DE=-2.26D-07 OVMax= 3.14D-05

 Initial convergence to 1.0D-05 achieved.  Increase integral accuracy.
 Cycle   7  Pass 1  IDiag  1:
 E= -95.7251660874278     Delta-E=       -0.000000532037 Rises=F Damp=F
 DIIS: error= 2.58D-06 at cycle   1 NSaved=   1.
 NSaved= 1 IEnMin= 1 EnMin= -95.7251660874278     IErMin= 1 ErrMin= 2.58D-06
 ErrMax= 2.58D-06  0.00D+00 EMaxC= 1.00D-01 BMatC= 1.05D-09 BMatP= 1.05D-09
 IDIUse=1 WtCom= 1.00D+00 WtEn= 0.00D+00
 Coeff-Com:  0.100D+01
 Coeff:      0.100D+01
 Gap=     0.271 Goal=   None    Shift=    0.000
 Gap=     0.150 Goal=   None    Shift=    0.000
 RMSDP=2.18D-06 MaxDP=2.81D-05 DE=-5.32D-07 OVMax= 1.55D-05

 Cycle   8  Pass 1  IDiag  1:
 E= -95.7251660876778     Delta-E=       -0.000000000250 Rises=F Damp=F
 DIIS: error= 1.97D-06 at cycle   2 NSaved=   2.
 NSaved= 2 IEnMin= 2 EnMin= -95.7251660876778     IErMin= 2 ErrMin= 1.97D-06
 ErrMax= 1.97D-06  0.00D+00 EMaxC= 1.00D-01 BMatC= 4.08D-10 BMatP= 1.05D-09
 IDIUse=1 WtCom= 1.00D+00 WtEn= 0.00D+00
 Coeff-Com:  0.332D+00 0.668D+00
 Coeff:      0.332D+00 0.668D+00
 Gap=     0.271 Goal=   None    Shift=    0.000
 Gap=     0.150 Goal=   None    Shift=    0.000
 RMSDP=4.56D-07 MaxDP=5.36D-06 DE=-2.50D-10 OVMax= 1.22D-05

 Cycle   9  Pass 1  IDiag  1:
 E= -95.7251660877368     Delta-E=       -0.000000000059 Rises=F Damp=F
 DIIS: error= 1.66D-06 at cycle   3 NSaved=   3.
 NSaved= 3 IEnMin= 3 EnMin= -95.7251660877368     IErMin= 3 ErrMin= 1.66D-06
 ErrMax= 1.66D-06  0.00D+00 EMaxC= 1.00D-01 BMatC= 2.16D-10 BMatP= 4.08D-10
 IDIUse=1 WtCom= 1.00D+00 WtEn= 0.00D+00
 Coeff-Com:  0.187D-01 0.410D+00 0.571D+00
 Coeff:      0.187D-01 0.410D+00 0.571D+00
 Gap=     0.271 Goal=   None    Shift=    0.000
 Gap=     0.150 Goal=   None    Shift=    0.000
 RMSDP=2.64D-07 MaxDP=2.78D-06 DE=-5.90D-11 OVMax= 7.21D-06

 Cycle  10  Pass 1  IDiag  1:
 E= -95.7251660877885     Delta-E=       -0.000000000052 Rises=F Damp=F
 DIIS: error= 6.51D-07 at cycle   4 NSaved=   4.
 NSaved= 4 IEnMin= 4 EnMin= -95.7251660877885     IErMin= 4 ErrMin= 6.51D-07
 ErrMax= 6.51D-07  0.00D+00 EMaxC= 1.00D-01 BMatC= 3.57D-11 BMatP= 2.16D-10
 IDIUse=1 WtCom= 1.00D+00 WtEn= 0.00D+00
 Coeff-Com: -0.572D-01 0.127D+00 0.343D+00 0.587D+00
 Coeff:     -0.572D-01 0.127D+00 0.343D+00 0.587D+00
 Gap=     0.271 Goal=   None    Shift=    0.000
 Gap=     0.150 Goal=   None    Shift=    0.000
 RMSDP=9.05D-08 MaxDP=1.01D-06 DE=-5.17D-11 OVMax= 2.11D-06

 Cycle  11  Pass 1  IDiag  1:
 E= -95.7251660877988     Delta-E=       -0.000000000010 Rises=F Damp=F
 DIIS: error= 1.88D-07 at cycle   5 NSaved=   5.
 NSaved= 5 IEnMin= 5 EnMin= -95.7251660877988     IErMin= 5 ErrMin= 1.88D-07
 ErrMax= 1.88D-07  0.00D+00 EMaxC= 1.00D-01 BMatC= 2.18D-12 BMatP= 3.57D-11
 IDIUse=1 WtCom= 1.00D+00 WtEn= 0.00D+00
 Coeff-Com: -0.213D-01-0.599D-02 0.401D-01 0.225D+00 0.762D+00
 Coeff:     -0.213D-01-0.599D-02 0.401D-01 0.225D+00 0.762D+00
 Gap=     0.271 Goal=   None    Shift=    0.000
 Gap=     0.150 Goal=   None    Shift=    0.000
 RMSDP=2.73D-08 MaxDP=3.19D-07 DE=-1.03D-11 OVMax= 5.66D-07

 Cycle  12  Pass 1  IDiag  1:
 E= -95.7251660877995     Delta-E=       -0.000000000001 Rises=F Damp=F
 DIIS: error= 4.13D-08 at cycle   6 NSaved=   6.
 NSaved= 6 IEnMin= 6 EnMin= -95.7251660877995     IErMin= 6 ErrMin= 4.13D-08
 ErrMax= 4.13D-08  0.00D+00 EMaxC= 1.00D-01 BMatC= 2.14D-13 BMatP= 2.18D-12
 IDIUse=1 WtCom= 1.00D+00 WtEn= 0.00D+00
 Coeff-Com:  0.373D-02-0.268D-01-0.546D-01-0.361D-01 0.244D+00 0.870D+00
 Coeff:      0.373D-02-0.268D-01-0.546D-01-0.361D-01 0.244D+00 0.870D+00
 Gap=     0.271 Goal=   None    Shift=    0.000
 Gap=     0.150 Goal=   None    Shift=    0.000
 RMSDP=1.10D-08 MaxDP=1.01D-07 DE=-6.54D-13 OVMax= 1.97D-07

 Cycle  13  Pass 1  IDiag  1:
 E= -95.7251660877994     Delta-E=        0.000000000000 Rises=F Damp=F
 DIIS: error= 4.58D-09 at cycle   7 NSaved=   7.
 NSaved= 7 IEnMin= 6 EnMin= -95.7251660877995     IErMin= 7 ErrMin= 4.58D-09
 ErrMax= 4.58D-09  0.00D+00 EMaxC= 1.00D-01 BMatC= 3.98D-15 BMatP= 2.14D-13
 IDIUse=1 WtCom= 1.00D+00 WtEn= 0.00D+00
 Coeff-Com:  0.644D-03 0.717D-03-0.592D-04-0.110D-01-0.355D-01 0.160D-01
 Coeff-Com:  0.103D+01
 Coeff:      0.644D-03 0.717D-03-0.592D-04-0.110D-01-0.355D-01 0.160D-01
 Coeff:      0.103D+01
 Gap=     0.271 Goal=   None    Shift=    0.000
 Gap=     0.150 Goal=   None    Shift=    0.000
 RMSDP=1.73D-09 MaxDP=1.39D-08 DE= 5.68D-14 OVMax= 4.16D-08

 SCF Done:  E(UTPSS-TPSS) =  -95.7251660878     A.U. after   13 cycles
            NFock= 13  Conv=0.17D-08     -V/T= 2.0054
 <Sx>= 0.0000 <Sy>= 0.0000 <Sz>= 1.0000 <S**2>= 2.0109 S= 1.0036
 <L.S>= 0.000000000000E+00
 KE= 9.521035512882D+01 PE=-2.895077296237D+02 EE= 6.512358386227D+01
 Annihilation of the first spin contaminant:
 S**2 before annihilation     2.0109,   after     2.0001
 Leave Link  502 at Wed Oct  7 13:08:56 2020, MaxMem=  2684354560 cpu:              48.0 elap:               4.6
 (Enter /udrive/faculty/rpeverati/g16/g16/l508.exe)
 QCSCF skips out because SCF is already converged.
 Leave Link  508 at Wed Oct  7 13:08:57 2020, MaxMem=  2684354560 cpu:               0.8 elap:               0.7
 (Enter /udrive/faculty/rpeverati/g16/g16/l701.exe)
 ... and contract with generalized density number  0.
 Compute integral first derivatives.
 R6Disp: Adding Grimme-D3(BJ) dispersion energy 1st derivatives to the gradient.
 Leave Link  701 at Wed Oct  7 13:08:58 2020, MaxMem=  2684354560 cpu:               6.4 elap:               1.4
 (Enter /udrive/faculty/rpeverati/g16/g16/l702.exe)
 L702 exits ... SP integral derivatives will be done elsewhere.
 Leave Link  702 at Wed Oct  7 13:08:59 2020, MaxMem=  2684354560 cpu:               1.5 elap:               0.5
 (Enter /udrive/faculty/rpeverati/g16/g16/l703.exe)
 Integral derivatives from FoFJK, PRISM(SPDF).
 Compute integral first derivatives, UseDBF=F ICtDFT=           0.
 Calling FoFJK, ICntrl=      2527 FMM=F ISym2X=0 I1Cent= 0 IOpClX= 0 NMat=1 NMatS=1 NMatT=0.
 FoFJK:  IHMeth= 1 ICntrl=    2527 DoSepK=F KAlg= 0 I1Cent=           0 FoldK=F
 IRaf=         0 NMat=       1 IRICut=       1 DoRegI=T DoRafI=F ISym2E= 0 IDoP0=0 IntGTp=1.
 FoFCou: FMM=F IPFlag=           0 FMFlag=      100000 FMFlg1=         800
         NFxFlg=           0 DoJE=F BraDBF=F KetDBF=F FulRan=T
         wScrn=  0.000000 ICntrl=      2527 IOpCl=  0 I1Cent=           0 NGrid=           0
         NMat0=    1 NMatS0=      1 NMatT0=    0 NMatD0=    1 NMtDS0=    0 NMtDT0=    0
 Symmetry not used in FoFCou.
 Leave Link  703 at Wed Oct  7 13:09:01 2020, MaxMem=  2684354560 cpu:              10.9 elap:               1.2
 (Enter /udrive/faculty/rpeverati/g16/g16/l716.exe)
 Dipole        =-3.81994859D-01-5.54918003D-01 8.72231581D-03
 ***** Axes restored to original set *****
 -------------------------------------------------------------------
 Center     Atomic                   Forces (Hartrees/Bohr)
 Number     Number              X              Y              Z
 -------------------------------------------------------------------
      1        6           0.007650720    0.001002158    0.001045238
      2        7           0.009469155    0.007714330    0.000597771
      3        1          -0.002136666   -0.002254584    0.003938503
      4        1          -0.001765069   -0.002477013   -0.003795437
      5        1          -0.002557549    0.004125214   -0.000332418
      6        1          -0.012878631    0.000747175   -0.001266576
      7        1           0.002218041   -0.008857280   -0.000187080
 -------------------------------------------------------------------
 Cartesian Forces:  Max     0.012878631 RMS     0.005043038
 Leave Link  716 at Wed Oct  7 13:09:02 2020, MaxMem=  2684354560 cpu:               1.8 elap:               0.6
 (Enter /udrive/faculty/rpeverati/g16/g16/l103.exe)

 GradGradGradGradGradGradGradGradGradGradGradGradGradGradGradGradGradGrad
 Berny optimization.
 Optmz: redundant internal coordinate code flag= 1
 Red2BG:  D1=  1.28D-01 OD1=  1.26D-01 B2RMS=  0.00D+00 IAprox=0
 FormGI is forming the generalized inverse of G from B-inverse, IUseBI=4.
 Internal  Forces:  Max     0.011719214 RMS     0.004120104
 Search for a saddle point.
 Step number   2 out of a maximum of   50
 All quantities printed in internal units (Hartrees-Bohrs-Radians)
 Swapping is turned off.
 Update second derivatives using D2CorX and points    1    2
 The second derivative matrix:
                          R1        R2        R3        R4        R5
           R1           0.35571
           R2           0.00000   0.35579
           R3          -0.00002  -0.00003   0.35576
           R4           0.00011   0.00032  -0.00006   0.14681
           R5          -0.00022  -0.00056   0.00005  -0.00226   0.24164
           R6           0.00001   0.00009  -0.00006   0.00056  -0.00097
           A1           0.00004   0.00011  -0.00002   0.00046  -0.00071
           A2           0.00003   0.00008  -0.00001   0.00031  -0.00046
           A3          -0.00006  -0.00016   0.00002  -0.00067   0.00104
           A4           0.00003   0.00009  -0.00001   0.00039  -0.00060
           A5          -0.00000   0.00002  -0.00002   0.00013  -0.00024
           A6          -0.00008  -0.00022   0.00004  -0.00096   0.00149
           A7          -0.00002  -0.00002  -0.00002  -0.00001  -0.00003
           A8          -0.00002  -0.00106   0.00078  -0.00702   0.01242
           A9           0.00012  -0.00061   0.00068  -0.00497   0.00917
           D1           0.00000  -0.00002   0.00002  -0.00017   0.00032
           D2          -0.00003   0.00006  -0.00009   0.00057  -0.00109
           D3          -0.00006   0.00001  -0.00011   0.00045  -0.00097
                          R6        A1        A2        A3        A4
           R6           0.42559
           A1           0.00019   0.16014
           A2           0.00014   0.00010   0.16006
           A3          -0.00027  -0.00021  -0.00014   0.16031
           A4           0.00016   0.00012   0.00008  -0.00018   0.16011
           A5           0.00003   0.00004   0.00003  -0.00007   0.00004
           A6          -0.00038  -0.00030  -0.00021   0.00045  -0.00026
           A7          -0.00003   0.00000   0.00001  -0.00000   0.00000
           A8          -0.00192  -0.00235  -0.00175   0.00346  -0.00201
           A9          -0.00113  -0.00170  -0.00130   0.00250  -0.00145
           D1          -0.00004  -0.00006  -0.00005   0.00009  -0.00005
           D2           0.00011   0.00020   0.00016  -0.00029   0.00017
           D3           0.00002   0.00017   0.00014  -0.00024   0.00014
                          A5        A6        A7        A8        A9
           A5           0.16000
           A6          -0.00009   0.16064
           A7          -0.00001   0.00000   0.15998
           A8          -0.00034   0.00480   0.00052   0.02391
           A9          -0.00016   0.00343   0.00050   0.01183   0.00727
           D1          -0.00001   0.00012   0.00002   0.00040   0.00017
           D2           0.00001  -0.00040  -0.00007  -0.00101  -0.00023
           D3          -0.00001  -0.00032  -0.00009   0.00015   0.00075
                          D1        D2        D3
           D1           0.00231
           D2          -0.00001   0.00228
           D3           0.00003  -0.00015   0.00200
 ITU=  0  0
 Eigenvectors of the second derivative matrix:
                           1         2         3         4         5
     Eigenvalues --     0.00085   0.00230   0.02739   0.10915   0.11089
   1         R1         0.00038   0.00000   0.00022  -0.00011  -0.00009
   2         R2        -0.00017   0.00000  -0.00340  -0.00062  -0.00039
   3         R3         0.00078   0.00000   0.00299   0.00029   0.00015
   4         R4        -0.00932  -0.00000  -0.06855  -0.01862  -0.00771
   5         R5         0.01163   0.00000   0.06901   0.01020   0.00424
   6         R6        -0.00033   0.00000  -0.00514  -0.00117  -0.00047
   7         A1        -0.00409  -0.00000  -0.03001   0.13045   0.62774
   8         A2        -0.00103  -0.00000  -0.00093  -0.58698  -0.19568
   9         A3         0.00474   0.00000   0.03323  -0.19447   0.13547
  10         A4        -0.00298  -0.00000  -0.02264   0.46440  -0.42844
  11         A5        -0.00044  -0.00000  -0.00801   0.23614   0.05759
  12         A6         0.00643   0.00000   0.04584  -0.05858  -0.22345
  13         A7         0.00143   0.00000   0.00511   0.00531  -0.00080
  14         A8         0.40974  -0.16963  -0.87866  -0.05832  -0.08499
  15         A9        -0.82556   0.33267  -0.43543  -0.07806   0.00207
  16         D1         0.21896   0.52930  -0.12964   0.30990   0.33247
  17         D2         0.14243   0.55670   0.05262   0.14934  -0.43106
  18         D3         0.28639   0.52008   0.06755  -0.44434   0.09400
                           6         7         8         9        10
     Eigenvalues --     0.14711   0.15998   0.16000   0.16000   0.16175
   1         R1         0.00040  -0.00010  -0.00000  -0.00000   0.00056
   2         R2         0.00163  -0.00011   0.00000   0.00000   0.00203
   3         R3        -0.00057  -0.00008   0.00000  -0.00000  -0.00060
   4         R4        -0.99008   0.00093   0.00000  -0.00000  -0.11661
   5         R5        -0.03108  -0.00037  -0.00000  -0.00000  -0.04050
   6         R6         0.00216  -0.00013  -0.00000   0.00000   0.00262
   7         A1         0.01698   0.19450  -0.07049   0.32828  -0.17194
   8         A2         0.06624  -0.03879  -0.09870  -0.00142  -0.46445
   9         A3        -0.05747  -0.07002   0.67272  -0.30982   0.48455
  10         A4         0.02495   0.13576   0.33660   0.12566  -0.24109
  11         A5        -0.00431  -0.47126  -0.43190  -0.61642   0.00103
  12         A6        -0.07980   0.15962  -0.46097   0.33391   0.66449
  13         A7        -0.00452  -0.83050   0.14289   0.53757   0.02782
  14         A8         0.05091  -0.00339  -0.00000   0.00000   0.05374
  15         A9         0.03387  -0.00320   0.00000   0.00000   0.03651
  16         D1        -0.00382  -0.00006  -0.00000  -0.00000  -0.00269
  17         D2        -0.00251   0.00044   0.00000  -0.00000  -0.00284
  18         D3         0.00151   0.00053  -0.00000   0.00000  -0.00004
                          11        12        13        14        15
     Eigenvalues --     0.24293   0.35570   0.35574   0.35582   0.42561
   1         R1        -0.00199   0.91356   0.38019   0.14443   0.00015
   2         R2        -0.00594   0.10327  -0.56036   0.82175   0.00149
   3         R3         0.00116   0.39337  -0.73583  -0.55118  -0.00089
   4         R4         0.03051   0.00050  -0.00046   0.00178   0.00226
   5         R5        -0.99614  -0.00202   0.00170  -0.00532  -0.00584
   6         R6        -0.00640   0.00004   0.00014  -0.00181   0.99996
   7         A1         0.00649   0.00020  -0.00017   0.00059   0.00079
   8         A2         0.01109   0.00018  -0.00015   0.00042  -0.00013
   9         A3        -0.01702  -0.00030   0.00027  -0.00094  -0.00146
  10         A4         0.01083   0.00017  -0.00016   0.00057   0.00139
  11         A5         0.00194  -0.00003   0.00001   0.00014   0.00042
  12         A6        -0.02220  -0.00039   0.00035  -0.00129  -0.00165
  13         A7        -0.00026  -0.00013   0.00009  -0.00008  -0.00014
  14         A8        -0.06121   0.00047   0.00011  -0.00428  -0.00511
  15         A9        -0.04317   0.00085  -0.00026  -0.00278  -0.00293
  16         D1         0.00104   0.00003  -0.00001  -0.00009  -0.00051
  17         D2         0.00311  -0.00015   0.00007   0.00026  -0.00012
  18         D3         0.00326  -0.00026   0.00014   0.00019   0.00086
 Eigenvalue     1 is   8.51D-04 should be less than     0.000000 Eigenvector:
                          A9        A8        D3        D1        D2
   1                   -0.82556   0.40974   0.28639   0.21896   0.14243
                          R5        R4        A6        A3        A1
   1                    0.01163  -0.00932   0.00643   0.00474  -0.00409
 RLam0= 1.18D-03.
 Iter=   1 RLamda= 0.00000000D+00 Sum=-1.09301246D-03.
 Iter=   2 RLamda=-1.09301246D-03 Sum=-1.07564194D-03.
 Iter=   3 RLamda=-1.07564194D-03 Sum=-1.07585139D-03.
 Iter=   4 RLamda=-1.07585139D-03 Sum=-1.07584886D-03.
 RFO step:  Lambda0=1.181389240D-03 Lambda=-1.07585139D-03.
 Linear search not attempted -- option 19 set.
 Iteration  1 RMS(Cart)=  0.04753482 RMS(Int)=  0.00183847
 Iteration  2 RMS(Cart)=  0.00225723 RMS(Int)=  0.00021589
 Iteration  3 RMS(Cart)=  0.00000521 RMS(Int)=  0.00021585
 Iteration  4 RMS(Cart)=  0.00000000 RMS(Int)=  0.00021585
 ITry= 1 IFail=0 DXMaxC= 1.04D-01 DCOld= 1.00D+10 DXMaxT= 1.00D-01 DXLimC= 3.00D+00 Rises=F
 Variable       Old X    -DE/DX   Delta X   Delta X   Delta X     New X
                                 (Linear)    (Quad)   (Total)
    R1        2.05042   0.00489   0.00000   0.01378   0.01378   2.06420
    R2        2.05039   0.00477   0.00000   0.01347   0.01347   2.06386
    R3        2.05019   0.00474   0.00000   0.01335   0.01335   2.06354
    R4        2.63624  -0.00125   0.00000  -0.00828  -0.00828   2.62796
    R5        2.29884   0.01172   0.00000   0.04901   0.04901   2.34785
    R6        1.95391   0.00905   0.00000   0.02135   0.02135   1.97526
    A1        1.99811  -0.00094   0.00000  -0.00604  -0.00637   1.99174
    A2        1.99870  -0.00102   0.00000  -0.00576  -0.00545   1.99326
    A3        1.82862   0.00155   0.00000   0.00977   0.00979   1.83841
    A4        1.99937  -0.00115   0.00000  -0.00755  -0.00772   1.99164
    A5        1.83128   0.00113   0.00000   0.00689   0.00669   1.83796
    A6        1.77336   0.00140   0.00000   0.00869   0.00877   1.78213
    A7        1.73623   0.00217   0.00000   0.01359   0.01359   1.74982
    A8        2.97448   0.00063   0.00000   0.03656   0.03646   3.01094
    A9        3.06941   0.00129   0.00000  -0.05631  -0.05636   3.01305
    D1        1.08584  -0.00003   0.00000   0.07197   0.07254   1.15838
    D2       -0.99205  -0.00003   0.00000   0.06514   0.06501  -0.92704
    D3       -3.08454   0.00004   0.00000   0.07913   0.07869  -3.00585
         Item               Value     Threshold  Converged?
 Maximum Force            0.011719     0.000450     NO 
 RMS     Force            0.004120     0.000300     NO 
 Maximum Displacement     0.104319     0.001800     NO 
[...]
           D1          -0.00007   0.00470  -0.00455  -0.00019   0.00028
           D2          -0.00470   0.00007   0.00455   0.00019  -0.00028
           D3           0.00466  -0.00467   0.00000   0.00000   0.00001
                          R6        A1        A2        A3        A4
           R6           0.37546
           A1           0.00008   0.04867
           A2           0.00005  -0.01030   0.05137
           A3           0.00055  -0.01813  -0.02032   0.05439
           A4           0.00005  -0.01030  -0.00963  -0.00494   0.05140
           A5           0.00053  -0.01813  -0.00495   0.00339  -0.02032
           A6          -0.00136  -0.00506  -0.01854   0.00363  -0.01853
           A7           0.01882   0.00075   0.00019  -0.00126   0.00019
           A8          -0.00351  -0.00529   0.00046   0.00037   0.00053
           A9           0.00000  -0.00002   0.00272   0.00352  -0.00271
           D1          -0.00002   0.01984  -0.02057   0.00087  -0.00009
           D2           0.00001  -0.01982   0.00009  -0.00041   0.02058
           D3          -0.00000  -0.00001   0.01962   0.00190  -0.01964
                          A5        A6        A7        A8        A9
           A5           0.05441
           A6           0.00363   0.05260
           A7          -0.00125   0.00090   0.13860
           A8           0.00040   0.00553   0.00104   0.02857
           A9          -0.00355   0.00003  -0.00000  -0.00000   0.01599
           D1           0.00042  -0.00098  -0.00001  -0.00053  -0.00086
           D2          -0.00089   0.00097   0.00002   0.00055  -0.00084
           D3          -0.00189   0.00002   0.00000  -0.00000   0.00180
                          D1        D2        D3
           D1           0.01490
           D2          -0.00743   0.01490
           D3          -0.00727  -0.00726   0.01476
 ITU=  0
 Eigenvectors of the second derivative matrix:
                           1         2         3         4         5
     Eigenvalues --    -0.02494   0.00014   0.01489   0.02704   0.04888
   1         R1         0.00877   0.00030   0.00034   0.00244  -0.00857
   2         R2         0.00879  -0.00029  -0.00035   0.00243  -0.00795
   3         R3         0.00872  -0.00001  -0.00000   0.00212   0.02054
   4         R4        -0.85022   0.00006   0.00009   0.01501  -0.03338
   5         R5         0.46549  -0.00004  -0.00001   0.00980  -0.00404
   6         R6         0.01014   0.00000  -0.00001  -0.00912  -0.00814
   7         A1        -0.07884   0.00000   0.00007  -0.05079   0.11516
   8         A2        -0.08028   0.00003  -0.01797  -0.00830  -0.06617
   9         A3         0.10274  -0.02736  -0.09747  -0.04547   0.39369
  10         A4        -0.08031  -0.00000   0.01796  -0.00746  -0.07141
  11         A5         0.10373   0.02746   0.09837  -0.04358   0.36978
  12         A6         0.13327  -0.00013  -0.00095   0.18703  -0.74863
  13         A7        -0.03963  -0.00002   0.00004   0.00656   0.02392
  14         A8         0.01501  -0.00029   0.00018  -0.96387  -0.23207
  15         A9         0.00002   0.00813   0.98038   0.00016   0.00199
  16         D1        -0.00808   0.57612   0.04923  -0.11966   0.18348
  17         D2         0.00823   0.57624   0.04778   0.12053  -0.18764
  18         D3        -0.00007   0.57833  -0.11972  -0.00142   0.00494
                           6         7         8         9        10
     Eigenvalues --     0.04928   0.08313   0.08513   0.09709   0.13218
   1         R1         0.01743   0.02336  -0.03399   0.03849   0.00463
   2         R2        -0.01785   0.02355   0.03372   0.03855   0.00457
   3         R3         0.00037  -0.03468   0.00004   0.04433  -0.00179
   4         R4         0.00002   0.01150  -0.00007   0.18248   0.20307
   5         R5        -0.00008  -0.02755   0.00036  -0.15668   0.24622
   6         R6        -0.00011  -0.00278   0.00002  -0.00751   0.07635
   7         A1         0.00248  -0.70895   0.00248  -0.23775  -0.03717
   8         A2        -0.14321   0.30980   0.58470  -0.35802  -0.02472
   9         A3        -0.63340   0.16610  -0.24709   0.43917   0.05485
  10         A4         0.14106   0.30630  -0.58562  -0.35960  -0.02469
  11         A5         0.64717   0.16792   0.24465   0.44039   0.05460
  12         A6        -0.01418  -0.17767  -0.00031   0.47201   0.01322
  13         A7         0.00035   0.02464  -0.00021   0.08402  -0.93994
  14         A8        -0.00255   0.06375  -0.00101   0.06263  -0.00135
  15         A9        -0.17910   0.00026   0.03333  -0.00000   0.00001
  16         D1         0.11722  -0.32647  -0.18571   0.03543  -0.00090
  17         D2         0.10978   0.32525  -0.18757  -0.03606   0.00085
  18         D3        -0.28435   0.00101   0.34812   0.00064   0.00002
                          11        12        13        14        15
     Eigenvalues --     0.18692   0.35508   0.35558   0.35797   0.37705
   1         R1         0.00494   0.68625  -0.49388  -0.53035   0.01342
   2         R2         0.00493  -0.72507  -0.44615  -0.52093   0.01300
   3         R3        -0.00132   0.02072   0.74384  -0.66493  -0.02144
   4         R4        -0.44845  -0.00007  -0.00094  -0.00129   0.00037
   5         R5        -0.83487  -0.00019  -0.00461  -0.00672  -0.01354
   6         R6         0.01329   0.00068   0.02893  -0.00047   0.99641
   7         A1         0.01035  -0.00140  -0.03778  -0.01878   0.00131
   8         A2         0.00649   0.03193   0.01388  -0.02660  -0.00029
   9         A3        -0.01752   0.00452   0.00090   0.03461   0.00148
  10         A4         0.00642  -0.03127   0.01602  -0.02618  -0.00031
  11         A5        -0.01709  -0.00403   0.00116   0.03463   0.00145
  12         A6         0.00173   0.00058   0.01067   0.03199  -0.00403
  13         A7        -0.31717  -0.00012  -0.00408   0.00065   0.07773
  14         A8        -0.01637   0.00019   0.00759  -0.00034  -0.01012
  15         A9         0.00002   0.00559  -0.00015  -0.00004   0.00000
  16         D1        -0.00033  -0.01271  -0.01951   0.00238   0.00051
  17         D2         0.00034  -0.01138   0.02032  -0.00224  -0.00052
  18         D3        -0.00005   0.02360  -0.00078  -0.00014   0.00000
 Eigenvalue     1 is  -2.49D-02 should be greater than     0.000000 Eigenvector:
                          R4        R5        A6        A5        A3
   1                   -0.85022   0.46549   0.13327   0.10373   0.10274
                          A4        A2        A1        A7        A8
   1                   -0.08031  -0.08028  -0.07884  -0.03963   0.01501
 Angle between quadratic step and forces=  84.74 degrees.
 Linear search not attempted -- first point.
 Iteration  1 RMS(Cart)=  0.00212533 RMS(Int)=  0.00000645
 Iteration  2 RMS(Cart)=  0.00000569 RMS(Int)=  0.00000007
 Iteration  3 RMS(Cart)=  0.00000000 RMS(Int)=  0.00000007
 ITry= 1 IFail=0 DXMaxC= 6.24D-03 DCOld= 1.00D+10 DXMaxT= 3.00D-01 DXLimC= 3.00D+00 Rises=F
 Variable       Old X    -DE/DX   Delta X   Delta X   Delta X     New X
                                 (Linear)    (Quad)   (Total)
    R1        2.06156   0.00001   0.00000   0.00003   0.00003   2.06159
    R2        2.06160   0.00000   0.00000  -0.00001  -0.00001   2.06159
    R3        2.06134  -0.00000   0.00000  -0.00002  -0.00002   2.06132
    R4        2.86488   0.00002   0.00000   0.00018   0.00018   2.86506
    R5        2.20437   0.00003   0.00000   0.00013   0.00013   2.20450
    R6        1.97451  -0.00001   0.00000  -0.00001  -0.00001   1.97449
    A1        2.01449  -0.00000   0.00000  -0.00002  -0.00002   2.01447
    A2        2.01421   0.00000   0.00000  -0.00000  -0.00000   2.01421
    A3        1.81233  -0.00003   0.00000  -0.00090  -0.00090   1.81143
    A4        2.01409   0.00001   0.00000   0.00011   0.00011   2.01420
    A5        1.81084   0.00001   0.00000   0.00044   0.00044   1.81128
    A6        1.74648   0.00002   0.00000   0.00034   0.00034   1.74682
    A7        1.75937  -0.00001   0.00000  -0.00006  -0.00006   1.75930
    A8        2.98202   0.00001   0.00000   0.00016   0.00016   2.98218
    A9        3.14149  -0.00000   0.00000   0.00009   0.00009   3.14157
    D1        1.03443  -0.00000   0.00000   0.00634   0.00634   1.04076
    D2       -1.05056   0.00001   0.00000   0.00651   0.00651  -1.04405
    D3        3.13371  -0.00001   0.00000   0.00623   0.00623   3.13994
         Item               Value     Threshold  Converged?
 Maximum Force            0.000030     0.000450     YES
 RMS     Force            0.000012     0.000300     YES
 Maximum Displacement     0.006240     0.001800     NO 
 RMS     Displacement     0.002125     0.001200     NO 
 Predicted change in Energy=-2.660788D-08
                           ----------------------------
                           ! Non-Optimized Parameters !
                           ! (Angstroms and Degrees)  !
 --------------------------                            --------------------------
 ! Name  Definition              Value          Derivative Info.                !
 --------------------------------------------------------------------------------
 ! R1    R(1,3)                  1.0909         -DE/DX =    0.0                 !
 ! R2    R(1,4)                  1.0909         -DE/DX =    0.0                 !
 ! R3    R(1,5)                  1.0908         -DE/DX =    0.0                 !
 ! R4    R(1,6)                  1.5161         -DE/DX =    0.0                 !
 ! R5    R(2,6)                  1.1666         -DE/DX =    0.0                 !
 ! R6    R(2,7)                  1.0449         -DE/DX =    0.0                 !
 ! A1    A(3,1,4)              115.4206         -DE/DX =    0.0                 !
 ! A2    A(3,1,5)              115.4056         -DE/DX =    0.0                 !
 ! A3    A(3,1,6)              103.7875         -DE/DX =    0.0                 !
 ! A4    A(4,1,5)              115.4053         -DE/DX =    0.0                 !
 ! A5    A(4,1,6)              103.7786         -DE/DX =    0.0                 !
 ! A6    A(5,1,6)              100.0854         -DE/DX =    0.0                 !
 ! A7    A(6,2,7)              100.8006         -DE/DX =    0.0                 !
 ! A8    L(1,6,2,7,-1)         170.8662         -DE/DX =    0.0                 !
 ! A9    L(1,6,2,7,-2)         179.9988         -DE/DX =    0.0                 !
 ! D1    D(3,1,2,7)             59.6314         -DE/DX =    0.0                 !
 ! D2    D(4,1,2,7)            -59.8199         -DE/DX =    0.0                 !
 ! D3    D(5,1,2,7)            179.9056         -DE/DX =    0.0                 !
 --------------------------------------------------------------------------------
 GradGradGradGradGradGradGradGradGradGradGradGradGradGradGradGradGradGrad

 Leave Link  103 at Wed Oct  7 13:17:46 2020, MaxMem=  2684354560 cpu:              16.2 elap:               2.2
 (Enter /udrive/faculty/rpeverati/g16/g16/l9999.exe)

 ----------------------------------------------------------------------

 Electric dipole moment (input orientation):
 (Debye = 10**-18 statcoulomb cm , SI units = C m)
                  (au)            (Debye)         (10**-30 SI)
   Tot        0.724747D+00      0.184212D+01      0.614466D+01
   x         -0.470219D+00     -0.119518D+01     -0.398668D+01
   y         -0.550801D+00     -0.140000D+01     -0.466988D+01
   z          0.277784D-01      0.706057D-01      0.235515D+00

 Dipole polarizability, Alpha (input orientation).
 (esu units = cm**3 , SI units = C**2 m**2 J**-1)
 Alpha(0;0):
               (au)            (10**-24 esu)      (10**-40 SI)
   iso        0.257909D+02      0.382181D+01      0.425234D+01
   aniso      0.223419D+02      0.331073D+01      0.368369D+01
   xx         0.404197D+02      0.598958D+01      0.666430D+01
   yx        -0.907066D+00     -0.134413D+00     -0.149555D+00
   yy         0.207153D+02      0.306970D+01      0.341550D+01
   zx        -0.107813D+00     -0.159763D-01     -0.177760D-01
   zy        -0.198382D+00     -0.293971D-01     -0.327087D-01
   zz         0.162376D+02      0.240616D+01      0.267722D+01

 ----------------------------------------------------------------------

 Dipole orientation:
     6         -1.38369576          1.10696623          1.54088753
     7          1.47028449         -1.20989616         -1.92664336
     1          0.01997281          2.20159864          2.58085505
     1         -2.19079960         -0.49307575          2.56002833
     1         -2.72166930          2.21309703          0.42938553
     1          0.12465477         -0.11742322         -0.56465336
     1          2.62676082         -2.14839885         -0.63032314

 Electric dipole moment (dipole orientation):
 (Debye = 10**-18 statcoulomb cm , SI units = C m)
                  (au)            (Debye)         (10**-30 SI)
   Tot        0.724747D+00      0.184212D+01      0.614466D+01
   x          0.000000D+00      0.000000D+00      0.000000D+00
   y          0.000000D+00      0.000000D+00      0.000000D+00
   z          0.724747D+00      0.184212D+01      0.614466D+01

 Dipole polarizability, Alpha (dipole orientation).
 (esu units = cm**3 , SI units = C**2 m**2 J**-1)
 Alpha(0;0):
               (au)            (10**-24 esu)      (10**-40 SI)
   iso        0.257909D+02      0.382181D+01      0.425234D+01
   aniso      0.223419D+02      0.331073D+01      0.368369D+01
   xx         0.263480D+02      0.390438D+01      0.434420D+01
   yx        -0.821655D+01     -0.121757D+01     -0.135473D+01
   yy         0.228989D+02      0.339327D+01      0.377553D+01
   zx        -0.743799D+01     -0.110220D+01     -0.122636D+01
   zy         0.604068D+01      0.895137D+00      0.995974D+00
   zz         0.281256D+02      0.416779D+01      0.463729D+01

 ----------------------------------------------------------------------

 Test job not archived.
 1\1\GINC-NODE62\Freq\UTPSSTPSS\6-31G(d)\C1H5N1(3)\RPEVERATI\07-Oct-202
 0\0\\#P Freq TPSSTPSS/6-31G* 5D 7F Integral=UltraFineGrid SCF=(NoSymm,
 XQC,MaxCyc=120) EmpiricalDispersion=GD3BJ IOp(1/33=1) Geom=Check Guess
 =Read\\TS search on BH76.\\0,3\C,-1.2425862447,-0.0120471335,0.0013741
 184\N,1.4281392541,0.1212573825,-0.02086482\H,-1.4330611084,-0.5259922
 892,0.9446193476\H,-1.4443550804,-0.594805144,-0.8985477402\H,-1.55992
 61273,1.0309298209,-0.0356870046\H,0.262593664,0.1681882519,-0.0158786
 644\H,1.5827934981,-0.9110765295,0.0250459986\\Version=ES64L-G16RevA.0
 3\State=3-A\HF=-95.7246691\S2=2.010991\S2-1=0.\S2A=2.000055\RMSD=8.623
 e-10\RMSF=1.399e-05\ZeroPoint=0.0493468\Thermal=0.0539577\Dipole=-0.47
 02185,-0.5508009,0.0277784\DipoleDeriv=0.381026,0.0044899,-0.002299,-0
 .0304342,0.0276185,0.0015804,-0.0007163,0.0014417,0.0625158,-0.1045876
 ,-0.0170783,-0.0014991,-0.1582407,0.0311254,-0.0219618,0.0049183,-0.02
 28077,-0.4726727,-0.0218293,-0.0219976,0.0414069,-0.004859,0.016299,0.
 0658197,0.0015056,0.0581544,-0.0626349,-0.0222114,-0.0257725,-0.040030
 1,-0.0057952,0.0066384,-0.0708537,-0.0014609,-0.0630761,-0.0524809,-0.
 0005191,0.0724465,-0.0023781,0.0082141,-0.0686085,0.0045203,0.0000559,
 0.0041689,0.0546265,-0.5153937,0.0016254,0.0041495,0.1237502,0.151611,
 0.0008925,-0.0012599,0.0016126,0.1865864,0.2835152,-0.0137135,0.000649
 9,0.0673648,-0.1646838,0.0200026,-0.0030427,0.0205062,0.2840598\Polar=
 40.4196589,-0.907066,20.7153463,-0.1078133,-0.1983817,16.2375924\Quadr
 upole=-1.3498618,0.8172962,0.5325656,-2.0517338,0.1041767,-0.0003369\P
 G=C01 [X(C1H5N1)]\NImag=1\\0.10480331,-0.03676341,0.57335176,0.0042927
 8,0.00036101,0.57814052,-0.09198120,-0.01213754,0.00117994,0.16682124,
 0.00470918,0.00223792,0.00024845,-0.04353812,0.38901223,0.00040179,0.0
 0034543,0.00856225,0.00101282,-0.01697148,0.00998897,-0.02868996,-0.02
 756412,0.05418926,0.00266982,-0.00114042,-0.00182274,0.03021584,-0.020
 31852,-0.11597476,0.11609178,-0.00048142,0.00006633,-0.00033046,0.0239
 8783,0.11527801,0.04183736,0.11519340,-0.26424442,0.00064450,-0.000473
 06,0.00002224,-0.04749221,-0.12604183,0.27763092,-0.02985003,-0.033096
 31,-0.05468864,0.00272953,-0.00096701,0.00190089,0.00290422,0.00386999
 ,0.00594493,0.03140002,-0.02496684,-0.13394895,-0.12547887,-0.00052988
 ,0.00012370,0.00033519,0.00358481,0.01028227,0.01337673,0.02918872,0.1
 3488141,-0.04290657,-0.12449204,-0.24502460,-0.00065414,0.00047341,-0.
 00006023,-0.00645717,-0.01538487,-0.01599207,0.04840882,0.13631762,0.2
 5679646,-0.04489059,0.09585070,-0.00363862,0.00486664,-0.00093027,-0.0
 0000676,0.00394228,-0.00728978,0.00050150,0.00405241,-0.00760934,0.000
 04573,0.04701621,0.08096394,-0.31061396,0.00914286,0.00219139,0.000644
 63,-0.00005466,0.00489072,-0.00880098,-0.00225249,0.00560684,-0.010428
 53,0.00315007,-0.08968598,0.32924972,-0.00307520,0.00905770,-0.0532820
 7,-0.00011574,-0.00003088,-0.00039503,-0.00933074,0.02492458,0.0024856
 4,0.00893028,-0.02387269,0.00399893,0.00335009,-0.01002124,0.04702789,
 0.09249382,0.01285514,-0.00129576,-0.04613400,0.01606931,-0.00054418,-
 0.01133579,0.00024606,-0.00179028,-0.01151644,0.00036926,0.00191156,-0
 .01509998,-0.00330168,0.00021752,-0.00279007,-0.00446682,-0.01683224,-
 0.00018754,-0.01051561,-0.03267064,0.00083048,-0.00412094,-0.00096076,
 0.00030525,-0.00488565,-0.00102420,-0.00016298,0.01040342,-0.00007973,
 -0.00006281,-0.01929869,0.05870333,-0.00051129,-0.00029228,-0.02209191
 ,0.00065571,0.00066821,-0.01582652,0.01013010,0.00075359,0.00003048,-0
 .00967551,-0.00068329,0.00021178,-0.00029093,0.00003219,0.00012550,0.0
 0113226,-0.00098342,0.03449410,-0.00188537,0.00085553,-0.00003895,-0.0
 3897204,0.02579732,-0.00094182,0.00029359,-0.00001415,0.00035420,0.000
 28027,-0.00003672,-0.00034823,0.00011303,-0.00066523,0.00002380,-0.005
 61754,0.03288429,-0.00144034,0.04578805,0.00084247,0.00178023,-0.00017
 768,0.06501118,-0.35941416,0.01584551,0.00036213,0.00010988,-0.0001080
 1,0.00028342,0.00011431,0.00009879,-0.00073874,0.00002885,0.00000533,-
 0.00693941,-0.00713576,0.00050499,-0.05882105,0.36451665,-0.00003886,-
 0.00017322,-0.00205978,-0.00272308,0.01608534,-0.00229169,0.00078350,-
 0.00001280,0.00006719,-0.00082077,0.00000530,0.00006972,0.00003900,0.0
 0000327,0.00003914,0.00036888,0.00026103,0.00305656,0.00239133,-0.0161
 6893,0.00111887\\0.00002553,-0.00002248,0.00002947,-0.00003338,0.00000
 367,0.00000151,-0.00001333,0.00000346,-0.00000751,0.00000191,0.0000052
 3,-0.00000344,0.00000573,0.00000423,-0.00000520,0.00000980,0.00001358,
 -0.00001538,0.00000374,-0.00000768,0.00000054\\\@


 NOBODY LOSES ALL THE TIME
 I HAD AN UNCLE NAMED
 SOL WHO WAS A BORN FAILURE AND
 NEARLY EVERYBODY SAID HE SHOULD HAVE GONE
 INTO VAUDEVILLE PERHAPS BECAUSE MY UNCLE SOL COULD
 SING MCCANN HE WAS A DIVER ON XMAS EVE LIKE HELL ITSELF WHICH
 MAY OR MAY NOT ACCOUNT FOR THE FACT THAT MY UNCLE
 SOL INDULGED IN THAT POSSIBLY MOST INEXCUSABLE
 OF ALL TO USE A HIGHFALOOTIN PHRASE
 LUXURIES THAT IS OR TO
 WIT FARMING AND BE
 IT NEEDLESSLY
 ADDED
 MY UNCLE SOL'S FARM     
 FAILED BECAUSE THE CHICKENS
 ATE THE VEGETABLES SO
 MY UNCLE SOL HAD A
 CHICKEN FARM TILL THE
 SKUNKS ATE THE CHICKENS WHEN 
 MY UNCLE SOL
 HAD A SKUNK FARM BUT
 THE SKUNKS CAUGHT COLD AND
 DIED AND SO
 MY UNCLE SOL IMITATED THE
 SKUNKS IN A SUBTLE MANNER
 OR BY DROWNING HIMSELF IN THE WATERTANK
 BUT SOMEBODY WHO'D GIVEN MY UNCLE SOL A VICTOR     
 VICTROLA AND RECORDS WHILE HE LIVED PRESENTED TO
 HIM UPON THE AUSPICIOUS OCCASION OF HIS DECEASE A
 SCRUMPTIOUS NOT TO MENTION SPLENDIFEROUS FUNERAL WITH
 TALL BOYS IN BLACK GLOVES AND FLOWERS AND EVERYTHING AND
 I REMEMBER WE ALL CRIED LIKE THE MISSOURI
 WHEN MY UNCLE SOL'S COFFIN LURCHED BECAUSE     
 SOMEBODY PRESSED A BUTTON
 (AND DOWN WENT
 MY UNCLE
 SOL
 AND STARTED A WORM FARM)
           E. E. CUMMINGS
 Job cpu time:       0 days  0 hours  5 minutes 24.6 seconds.
 Elapsed time:       0 days  0 hours  0 minutes 43.0 seconds.
 File lengths (MBytes):  RWF=      7 Int=      0 D2E=      0 Chk=      1 Scr=      1
 Normal termination of Gaussian 16 at Wed Oct  7 13:17:48 2020.
