 Entering Gaussian System, Link 0=g16
 Input=MN_90_RKT16_BH76_TPSSDBJ_631Gs.in
 Output=MN_90_RKT16_BH76_TPSSDBJ_631Gs.log
 Initial command:
 /udrive/faculty/rpeverati/g16/g16/l1.exe "/udrive/scratch-directories/gaussian09/rpeverati/Gau-32094.inp" -scrdir="/udrive/scratch-directories/gaussian09/rpeverati/"
 Entering Link 1 = /udrive/faculty/rpeverati/g16/g16/l1.exe PID=     32095.
  
 Copyright (c) 1988,1990,1992,1993,1995,1998,2003,2009,2016,
            Gaussian, Inc.  All Rights Reserved.
  
 This is part of the Gaussian(R) 16 program.  It is based on
 the Gaussian(R) 09 system (copyright 2009, Gaussian, Inc.),
 the Gaussian(R) 03 system (copyright 2003, Gaussian, Inc.),
 the Gaussian(R) 98 system (copyright 1998, Gaussian, Inc.),
 the Gaussian(R) 94 system (copyright 1995, Gaussian, Inc.),
 the Gaussian 92(TM) system (copyright 1992, Gaussian, Inc.),
 the Gaussian 90(TM) system (copyright 1990, Gaussian, Inc.),
 the Gaussian 88(TM) system (copyright 1988, Gaussian, Inc.),
 the Gaussian 86(TM) system (copyright 1986, Carnegie Mellon
 University), and the Gaussian 82(TM) system (copyright 1983,
 Carnegie Mellon University). Gaussian is a federally registered
 trademark of Gaussian, Inc.
  
 This software contains proprietary and confidential information,
 including trade secrets, belonging to Gaussian, Inc.
  
 This software is provided under written license and may be
 used, copied, transmitted, or stored only in accord with that
 written license.
  
 The following legend is applicable only to US Government
 contracts under FAR:
  
                    RESTRICTED RIGHTS LEGEND
  
 Use, reproduction and disclosure by the US Government is
 subject to restrictions as set forth in subparagraphs (a)
 and (c) of the Commercial Computer Software - Restricted
 Rights clause in FAR 52.227-19.
  
 Gaussian, Inc.
 340 Quinnipiac St., Bldg. 40, Wallingford CT 06492
  
  
 ---------------------------------------------------------------
 Warning -- This program may not be used in any manner that
 competes with the business of Gaussian, Inc. or will provide
 assistance to any competitor of Gaussian, Inc.  The licensee
 of this program is prohibited from giving any competitor of
 Gaussian, Inc. access to this program.  By using this program,
 the user acknowledges that Gaussian, Inc. is engaged in the
 business of creating and licensing software in the field of
 computational chemistry and represents and warrants to the
 licensee that it is not a competitor of Gaussian, Inc. and that
 it will not use this program in any manner prohibited above.
 ---------------------------------------------------------------
  

 Cite this work as:
 Gaussian 16, Revision A.03,
 M. J. Frisch, G. W. Trucks, H. B. Schlegel, G. E. Scuseria, 
 M. A. Robb, J. R. Cheeseman, G. Scalmani, V. Barone, 
 G. A. Petersson, H. Nakatsuji, X. Li, M. Caricato, A. V. Marenich, 
 J. Bloino, B. G. Janesko, R. Gomperts, B. Mennucci, H. P. Hratchian, 
 J. V. Ortiz, A. F. Izmaylov, J. L. Sonnenberg, D. Williams-Young, 
 F. Ding, F. Lipparini, F. Egidi, J. Goings, B. Peng, A. Petrone, 
 T. Henderson, D. Ranasinghe, V. G. Zakrzewski, J. Gao, N. Rega, 
 G. Zheng, W. Liang, M. Hada, M. Ehara, K. Toyota, R. Fukuda, 
 J. Hasegawa, M. Ishida, T. Nakajima, Y. Honda, O. Kitao, H. Nakai, 
 T. Vreven, K. Throssell, J. A. Montgomery, Jr., J. E. Peralta, 
 F. Ogliaro, M. J. Bearpark, J. J. Heyd, E. N. Brothers, K. N. Kudin, 
 V. N. Staroverov, T. A. Keith, R. Kobayashi, J. Normand, 
 K. Raghavachari, A. P. Rendell, J. C. Burant, S. S. Iyengar, 
 J. Tomasi, M. Cossi, J. M. Millam, M. Klene, C. Adamo, R. Cammi, 
 J. W. Ochterski, R. L. Martin, K. Morokuma, O. Farkas, 
 J. B. Foresman, and D. J. Fox, Gaussian, Inc., Wallingford CT, 2016.
 
 ******************************************
 Gaussian 16:  ES64L-G16RevA.03 25-Dec-2016
                 7-Oct-2020 
 ******************************************
 %NoSave
 %nproc=12
 Will use up to   12 processors via shared memory.
 %mem=20GB
 %chk=MN_90_RKT16_BH76_TPSSDBJ_631Gs
 ----------------------------------------------------------------------
 #P Opt(TS,MaxCyc=50,NoEigenTest,MaxStep=10,AddRedundant) TPSSTPSS/6-31
 G* 5D 7F Integral=UltraFineGrid SCF=(NoSymm,XQC,MaxCyc=120) EmpiricalD
 ispersion=GD3BJ IOp(1/33=1)
 ----------------------------------------------------------------------
 1/5=1,6=50,8=10,11=1,18=120,26=4,33=1,38=1/1,3;
 2/9=110,12=2,17=6,18=5,40=1/2;
 3/5=1,6=6,7=1,8=11,11=2,25=1,30=1,71=1,74=2523,75=-5,124=41/1,2,3;
 4/9=2/1;
 5/5=2,7=120,8=3,13=1,38=5/2,8;
 6/7=2,8=2,9=2,10=2,28=1/1;
 7//1,2,3,16;
 1/5=1,6=50,8=10,11=1,18=20,26=4,33=1/3(2);
 2/9=110/2;
 99//99;
 2/9=110/2;
 3/5=1,6=6,7=1,8=11,11=2,25=1,30=1,71=1,74=2523,75=-5,124=41/1,2,3;
 4/5=5,9=2,16=3,69=1/1;
 5/5=2,7=120,8=3,13=1,38=5/2,8;
 7//1,2,3,16;
 1/5=1,6=50,8=10,11=1,18=20,26=4,33=1/3(-5);
 2/9=110/2;
 6/7=2,8=2,9=2,10=2,19=2,28=1/1;
 99/9=1/99;
 Leave Link    1 at Wed Oct  7 13:07:51 2020, MaxMem=  2684354560 cpu:               9.6 elap:               0.9
 (Enter /udrive/faculty/rpeverati/g16/g16/l101.exe)
 ONIOM data not found on unit 2.
 ------------------
 TS search on BH76.
 ------------------
 TstMul:  ICh=     0
 TstMul:  Mul=     2
 TstMul:  ICh=     0
 TstMul:  Mul=     2
 Symbolic Z-matrix:
 Charge =  0 Multiplicity = 2
 H                     1.2621   -0.2201    0. 
 S                     0.        0.22315   0. 
 H                    -0.50058  -1.11545   0. 
 H                    -0.76152  -2.23492   0. 
 
 RdStrC is calling ZToCFu for IStruc=1 NZ=     4.
 PrtBox:  NBox=     1 Levels=  1 BoxLen=    8.00 SMaxX=        4.65
          Shift=            1.439070            4.223380            0.000000
 Box      1 Number                   0 centers from      1 to      4:
 After GenITR:
 ITRead=  0  0  0  0
 MicOpt= -1 -1 -1 -1
 Add virtual bond connecting atoms H4         and H3         Dist= 2.17D+00.
 The following ModRedundant input section has been read:
 
 ITRead=  0  0  0  0
 MicOpt= -1 -1 -1 -1
 NAtoms=      4 NQM=        4 NQMF=       0 NMMI=      0 NMMIF=      0
                NMic=       0 NMicF=      0.
                    Isotopes and Nuclear Properties:
 (Nuclear quadrupole moments (NQMom) in fm**2, nuclear magnetic moments (NMagM)
  in nuclear magnetons)

  Atom         1           2           3           4
 IAtWgt=           1          32           1           1
 AtmWgt=   1.0078250  31.9720718   1.0078250   1.0078250
 NucSpn=           1           0           1           1
 AtZEff=   0.0000000   0.0000000   0.0000000   0.0000000
 NQMom=    0.0000000   0.0000000   0.0000000   0.0000000
 NMagM=    2.7928460   0.0000000   2.7928460   2.7928460
 AtZNuc=   1.0000000  16.0000000   1.0000000   1.0000000
 No MM parameters found.
 Leave Link  101 at Wed Oct  7 13:07:53 2020, MaxMem=  2684354560 cpu:              19.9 elap:               1.9
 (Enter /udrive/faculty/rpeverati/g16/g16/l103.exe)

 GradGradGradGradGradGradGradGradGradGradGradGradGradGradGradGradGradGrad
 Berny optimization.
 Optmz: redundant internal coordinate code flag= 1
 Initialization pass.
                           ----------------------------
                           !    Initial Parameters    !
                           ! (Angstroms and Degrees)  !
 --------------------------                            --------------------------
 ! Name  Definition              Value          Derivative Info.                !
 --------------------------------------------------------------------------------
 ! R1    R(1,2)                  1.3377         estimate D2E/DX2                !
 ! R2    R(2,3)                  1.4291         estimate D2E/DX2                !
 ! R3    R(3,4)                  1.1495         estimate D2E/DX2                !
 ! A1    A(1,2,3)               91.1522         estimate D2E/DX2                !
 ! A2    L(2,3,4,1,-1)         172.6177         estimate D2E/DX2                !
 ! A3    L(2,3,4,1,-2)         180.0            estimate D2E/DX2                !
 --------------------------------------------------------------------------------
 Maximum allowed force set to 1.00D+20.
 Trust Radius=1.00D-01 FncErr=1.00D-07 GrdErr=1.00D-06 EigMax=2.50D+02 EigMin=1.00D-04
 Number of steps in this run=     50 maximum allowed number of steps=    100.
 Search for a saddle point of order  1.
 GradGradGradGradGradGradGradGradGradGradGradGradGradGradGradGradGradGrad

 Leave Link  103 at Wed Oct  7 13:07:54 2020, MaxMem=  2684354560 cpu:               1.4 elap:               0.6
 (Enter /udrive/faculty/rpeverati/g16/g16/l202.exe)
                          Input orientation:                          
 ---------------------------------------------------------------------
 Center     Atomic      Atomic             Coordinates (Angstroms)
 Number     Number       Type             X           Y           Z
 ---------------------------------------------------------------------
      1          1           0        1.262098   -0.220097    0.000000
      2         16           0        0.000000    0.223153    0.000000
      3          1           0       -0.500576   -1.115447    0.000000
      4          1           0       -0.761523   -2.234916    0.000000
 ---------------------------------------------------------------------
                    Distance matrix (angstroms):
                    1          2          3          4
     1  H    0.000000
     2  S    1.337671   0.000000
     3  H    1.977037   1.429135   0.000000
     4  H    2.855616   2.573329   1.149480   0.000000
 Stoichiometry    H3S(2)
 Framework group  CS[SG(H3S)]
 Deg. of freedom     5
 Full point group                 CS      NOp   2
 Largest Abelian subgroup         CS      NOp   2
 Largest concise Abelian subgroup C1      NOp   1
                         Standard orientation:                         
 ---------------------------------------------------------------------
 Center     Atomic      Atomic             Coordinates (Angstroms)
 Number     Number       Type             X           Y           Z
 ---------------------------------------------------------------------
      1          1           0        1.262098   -0.220096    0.000000
      2         16           0        0.000000    0.223154    0.000000
      3          1           0       -0.500576   -1.115447    0.000000
      4          1           0       -0.761522   -2.234916    0.000000
 ---------------------------------------------------------------------
 Rotational constants (GHZ):         287.8185188          61.1990371          50.4679948
 Leave Link  202 at Wed Oct  7 13:07:55 2020, MaxMem=  2684354560 cpu:               2.0 elap:               0.6
 (Enter /udrive/faculty/rpeverati/g16/g16/l301.exe)
 Standard basis: 6-31G(d) (5D, 7F)
 Ernie: Thresh=  0.10000D-02 Tol=  0.10000D-05 Strict=F.
 There are    20 symmetry adapted cartesian basis functions of A'  symmetry.
 There are     5 symmetry adapted cartesian basis functions of A"  symmetry.
 There are    19 symmetry adapted basis functions of A'  symmetry.
 There are     5 symmetry adapted basis functions of A"  symmetry.
    24 basis functions,    64 primitive gaussians,    25 cartesian basis functions
    10 alpha electrons        9 beta electrons
       nuclear repulsion energy        16.4575455250 Hartrees.
 IExCor= 2523 DFT=T Ex=TPSS Corr=TPSS ExCW=0 ScaHFX=  0.000000
 ScaDFX=  1.000000  1.000000  1.000000  1.000000 ScalE2=  1.000000  1.000000
 IRadAn=      5 IRanWt=     -1 IRanGd=            0 ICorTp=0 IEmpDi=141
 NAtoms=    4 NActive=    4 NUniq=    4 SFac= 1.00D+00 NAtFMM=   60 NAOKFM=F Big=F
 Integral buffers will be    131072 words long.
 Raffenetti 2 integral format.
 Two-electron integral symmetry is turned on.
 R6Disp:  Grimme-D3(BJ) Dispersion energy=       -0.0018587639 Hartrees.
 Nuclear repulsion after empirical dispersion term =       16.4556867611 Hartrees.
 Leave Link  301 at Wed Oct  7 13:07:56 2020, MaxMem=  2684354560 cpu:               2.3 elap:               0.7
 (Enter /udrive/faculty/rpeverati/g16/g16/l302.exe)
 NPDir=0 NMtPBC=     1 NCelOv=     1 NCel=       1 NClECP=     1 NCelD=      1
         NCelK=      1 NCelE2=     1 NClLst=     1 CellRange=     0.0.
 One-electron integrals computed using PRISM.
 One-electron integral symmetry used in STVInt
 NBasis=    24 RedAO= T EigKep=  2.35D-02  NBF=    19     5
 NBsUse=    24 1.00D-06 EigRej= -1.00D+00 NBFU=    19     5
 Precomputing XC quadrature grid using
 IXCGrd= 4 IRadAn=           5 IRanWt=          -1 IRanGd=           0 AccXCQ= 0.00D+00.
 Generated NRdTot=       0 NPtTot=           0 NUsed=           0 NTot=          32
 NSgBfM=    25    25    25    25    25 MxSgAt=     4 MxSgA2=     4.
 Leave Link  302 at Wed Oct  7 13:07:57 2020, MaxMem=  2684354560 cpu:               3.6 elap:               0.6
 (Enter /udrive/faculty/rpeverati/g16/g16/l303.exe)
 DipDrv:  MaxL=1.
 Leave Link  303 at Wed Oct  7 13:07:58 2020, MaxMem=  2684354560 cpu:               1.6 elap:               0.5
 (Enter /udrive/faculty/rpeverati/g16/g16/l401.exe)
 SCF N**3 symmetry information disabled.
 ExpMin= 1.17D-01 ExpMax= 2.19D+04 ExpMxC= 3.30D+03 IAcc=3 IRadAn=         5 AccDes= 0.00D+00
 Harris functional with IExCor= 1009 and IRadAn=       5 diagonalized for initial guess.
 HarFok:  IExCor= 1009 AccDes= 0.00D+00 IRadAn=         5 IDoV= 1 UseB2=F ITyADJ=14
 ICtDFT=  3500011 ScaDFX=  1.000000  1.000000  1.000000  1.000000
 FoFCou: FMM=F IPFlag=           0 FMFlag=      100000 FMFlg1=           0
         NFxFlg=           0 DoJE=T BraDBF=F KetDBF=T FulRan=T
         wScrn=  0.000000 ICntrl=       500 IOpCl=  0 I1Cent=   200000004 NGrid=           0
         NMat0=    1 NMatS0=      1 NMatT0=    0 NMatD0=    1 NMtDS0=    0 NMtDT0=    0
 Petite list used in FoFCou.
 Harris En= -399.623018381738    
 JPrj=0 DoOrth=F DoCkMO=F.
 Initial guess orbital symmetries:
 Alpha Orbitals:
       Occupied  (A') (A') (A') (A') (A") (A') (A') (A') (A") (A')
       Virtual   (A') (A') (A') (A') (A") (A') (A') (A') (A") (A")
                 (A') (A') (A') (A')
 Beta  Orbitals:
       Occupied  (A') (A') (A') (A') (A") (A') (A') (A') (A")
       Virtual   (A') (A') (A') (A') (A') (A") (A') (A') (A') (A")
                 (A") (A') (A') (A') (A')
 The electronic state of the initial guess is 2-A'.
 Initial guess <Sx>= 0.0000 <Sy>= 0.0000 <Sz>= 0.5000 <S**2>= 0.7500 S= 0.5000
 Leave Link  401 at Wed Oct  7 13:07:59 2020, MaxMem=  2684354560 cpu:               4.5 elap:               0.8
 (Enter /udrive/faculty/rpeverati/g16/g16/l502.exe)
 Keep J ints in memory in symmetry-blocked form, NReq=10400129.
 FoFCou: FMM=F IPFlag=           0 FMFlag=           0 FMFlg1=           0
         NFxFlg=           0 DoJE=F BraDBF=F KetDBF=F FulRan=T
         wScrn=  0.000000 ICntrl=       600 IOpCl=  0 I1Cent=           0 NGrid=           0
         NMat0=    1 NMatS0=    300 NMatT0=    0 NMatD0=    1 NMtDS0=    0 NMtDT0=    0
 Petite list used in FoFCou.
 UHF open shell SCF:
 Using DIIS extrapolation, IDIIS=  1040.
 NGot=  2684354560 LenX=  2684325898 LenY=  2684324832
 Requested convergence on RMS density matrix=1.00D-08 within 120 cycles.
 Requested convergence on MAX density matrix=1.00D-06.
 Requested convergence on             energy=1.00D-06.
 No special actions if energy rises.
 Integral accuracy reduced to 1.0D-05 until final iterations.

 Cycle   1  Pass 0  IDiag  1:
 E= -399.887303772905    
 DIIS: error= 1.00D-02 at cycle   1 NSaved=   1.
 NSaved= 1 IEnMin= 1 EnMin= -399.887303772905     IErMin= 1 ErrMin= 1.00D-02
 ErrMax= 1.00D-02  0.00D+00 EMaxC= 1.00D-01 BMatC= 1.12D-02 BMatP= 1.12D-02
 IDIUse=3 WtCom= 9.00D-01 WtEn= 1.00D-01
 Coeff-Com:  0.100D+01
 Coeff-En:   0.100D+01
 Coeff:      0.100D+01
 Gap=     0.265 Goal=   None    Shift=    0.000
 Gap=     0.051 Goal=   None    Shift=    0.000
 GapD=    0.051 DampG=0.500 DampE=0.500 DampFc=0.2500 IDamp=-1.
 Damping current iteration by 2.50D-01
 RMSDP=8.07D-03 MaxDP=8.23D-02              OVMax= 6.82D-02

 Cycle   2  Pass 0  IDiag  1:
 E= -399.888702051701     Delta-E=       -0.001398278796 Rises=F Damp=T
 DIIS: error= 6.68D-03 at cycle   2 NSaved=   2.
 NSaved= 2 IEnMin= 2 EnMin= -399.888702051701     IErMin= 2 ErrMin= 6.68D-03
 ErrMax= 6.68D-03  0.00D+00 EMaxC= 1.00D-01 BMatC= 5.87D-03 BMatP= 1.12D-02
 IDIUse=3 WtCom= 9.33D-01 WtEn= 6.68D-02
 Coeff-Com: -0.168D+01 0.268D+01
 Coeff-En:   0.000D+00 0.100D+01
 Coeff:     -0.157D+01 0.257D+01
 Gap=     0.240 Goal=   None    Shift=    0.000
 Gap=     0.072 Goal=   None    Shift=    0.000
 RMSDP=4.71D-03 MaxDP=4.02D-02 DE=-1.40D-03 OVMax= 4.44D-02

 Cycle   3  Pass 0  IDiag  1:
 E= -399.892526571205     Delta-E=       -0.003824519504 Rises=F Damp=F
 DIIS: error= 2.83D-03 at cycle   3 NSaved=   3.
 NSaved= 3 IEnMin= 3 EnMin= -399.892526571205     IErMin= 3 ErrMin= 2.83D-03
 ErrMax= 2.83D-03  0.00D+00 EMaxC= 1.00D-01 BMatC= 1.45D-03 BMatP= 5.87D-03
 IDIUse=3 WtCom= 9.72D-01 WtEn= 2.83D-02
 Coeff-Com: -0.109D+01 0.141D+01 0.684D+00
 Coeff-En:   0.000D+00 0.000D+00 0.100D+01
 Coeff:     -0.106D+01 0.137D+01 0.693D+00
 Gap=     0.237 Goal=   None    Shift=    0.000
 Gap=     0.069 Goal=   None    Shift=    0.000
 RMSDP=1.51D-03 MaxDP=1.23D-02 DE=-3.82D-03 OVMax= 1.20D-02

 Cycle   4  Pass 0  IDiag  1:
 E= -399.893093991855     Delta-E=       -0.000567420650 Rises=F Damp=F
 DIIS: error= 4.61D-04 at cycle   4 NSaved=   4.
 NSaved= 4 IEnMin= 4 EnMin= -399.893093991855     IErMin= 4 ErrMin= 4.61D-04
 ErrMax= 4.61D-04  0.00D+00 EMaxC= 1.00D-01 BMatC= 1.94D-05 BMatP= 1.45D-03
 IDIUse=3 WtCom= 9.95D-01 WtEn= 4.61D-03
 Coeff-Com: -0.118D+00 0.133D+00 0.999D-01 0.886D+00
 Coeff-En:   0.000D+00 0.000D+00 0.000D+00 0.100D+01
 Coeff:     -0.118D+00 0.132D+00 0.994D-01 0.886D+00
 Gap=     0.237 Goal=   None    Shift=    0.000
 Gap=     0.069 Goal=   None    Shift=    0.000
 RMSDP=2.41D-04 MaxDP=1.77D-03 DE=-5.67D-04 OVMax= 2.72D-03

 Cycle   5  Pass 0  IDiag  1:
 E= -399.893100063871     Delta-E=       -0.000006072016 Rises=F Damp=F
 DIIS: error= 2.92D-04 at cycle   5 NSaved=   5.
 NSaved= 5 IEnMin= 5 EnMin= -399.893100063871     IErMin= 5 ErrMin= 2.92D-04
 ErrMax= 2.92D-04  0.00D+00 EMaxC= 1.00D-01 BMatC= 7.63D-06 BMatP= 1.94D-05
 IDIUse=3 WtCom= 9.97D-01 WtEn= 2.92D-03
 Coeff-Com:  0.591D-01-0.845D-01-0.342D-01 0.388D+00 0.671D+00
 Coeff-En:   0.000D+00 0.000D+00 0.000D+00 0.938D-01 0.906D+00
 Coeff:      0.589D-01-0.843D-01-0.341D-01 0.387D+00 0.672D+00
 Gap=     0.237 Goal=   None    Shift=    0.000
 Gap=     0.069 Goal=   None    Shift=    0.000
 RMSDP=1.04D-04 MaxDP=8.22D-04 DE=-6.07D-06 OVMax= 1.30D-03

 Cycle   6  Pass 0  IDiag  1:
 E= -399.893103035240     Delta-E=       -0.000002971369 Rises=F Damp=F
 DIIS: error= 3.98D-05 at cycle   6 NSaved=   6.
 NSaved= 6 IEnMin= 6 EnMin= -399.893103035240     IErMin= 6 ErrMin= 3.98D-05
 ErrMax= 3.98D-05  0.00D+00 EMaxC= 1.00D-01 BMatC= 1.61D-07 BMatP= 7.63D-06
 IDIUse=1 WtCom= 1.00D+00 WtEn= 0.00D+00
 Coeff-Com:  0.160D-01-0.206D-01-0.838D-02 0.699D-02 0.102D+00 0.904D+00
 Coeff:      0.160D-01-0.206D-01-0.838D-02 0.699D-02 0.102D+00 0.904D+00
 Gap=     0.237 Goal=   None    Shift=    0.000
 Gap=     0.069 Goal=   None    Shift=    0.000
 RMSDP=2.15D-05 MaxDP=1.95D-04 DE=-2.97D-06 OVMax= 1.99D-04

 Cycle   7  Pass 0  IDiag  1:
 E= -399.893103104198     Delta-E=       -0.000000068958 Rises=F Damp=F
 DIIS: error= 1.63D-05 at cycle   7 NSaved=   7.
 NSaved= 7 IEnMin= 7 EnMin= -399.893103104198     IErMin= 7 ErrMin= 1.63D-05
 ErrMax= 1.63D-05  0.00D+00 EMaxC= 1.00D-01 BMatC= 2.59D-08 BMatP= 1.61D-07
 IDIUse=1 WtCom= 1.00D+00 WtEn= 0.00D+00
 Coeff-Com:  0.315D-04 0.624D-03 0.111D-02-0.348D-01-0.311D-01 0.281D+00
 Coeff-Com:  0.784D+00
 Coeff:      0.315D-04 0.624D-03 0.111D-02-0.348D-01-0.311D-01 0.281D+00
 Coeff:      0.784D+00
 Gap=     0.237 Goal=   None    Shift=    0.000
 Gap=     0.069 Goal=   None    Shift=    0.000
 RMSDP=6.06D-06 MaxDP=3.49D-05 DE=-6.90D-08 OVMax= 6.46D-05

 Initial convergence to 1.0D-05 achieved.  Increase integral accuracy.
 Cycle   8  Pass 1  IDiag  1:
 E= -399.893102713517     Delta-E=        0.000000390681 Rises=F Damp=F
 DIIS: error= 5.59D-06 at cycle   1 NSaved=   1.
 NSaved= 1 IEnMin= 1 EnMin= -399.893102713517     IErMin= 1 ErrMin= 5.59D-06
 ErrMax= 5.59D-06  0.00D+00 EMaxC= 1.00D-01 BMatC= 2.75D-09 BMatP= 2.75D-09
 IDIUse=1 WtCom= 1.00D+00 WtEn= 0.00D+00
 Coeff-Com:  0.100D+01
 Coeff:      0.100D+01
 Gap=     0.237 Goal=   None    Shift=    0.000
 Gap=     0.069 Goal=   None    Shift=    0.000
 RMSDP=6.06D-06 MaxDP=3.49D-05 DE= 3.91D-07 OVMax= 1.92D-05

 Cycle   9  Pass 1  IDiag  1:
 E= -399.893102714788     Delta-E=       -0.000000001270 Rises=F Damp=F
 DIIS: error= 2.17D-06 at cycle   2 NSaved=   2.
 NSaved= 2 IEnMin= 2 EnMin= -399.893102714788     IErMin= 2 ErrMin= 2.17D-06
 ErrMax= 2.17D-06  0.00D+00 EMaxC= 1.00D-01 BMatC= 5.98D-10 BMatP= 2.75D-09
 IDIUse=1 WtCom= 1.00D+00 WtEn= 0.00D+00
 Coeff-Com:  0.236D+00 0.764D+00
 Coeff:      0.236D+00 0.764D+00
 Gap=     0.237 Goal=   None    Shift=    0.000
 Gap=     0.069 Goal=   None    Shift=    0.000
 RMSDP=1.02D-06 MaxDP=8.18D-06 DE=-1.27D-09 OVMax= 1.18D-05

 Cycle  10  Pass 1  IDiag  1:
 E= -399.893102715017     Delta-E=       -0.000000000230 Rises=F Damp=F
 DIIS: error= 1.02D-06 at cycle   3 NSaved=   3.
 NSaved= 3 IEnMin= 3 EnMin= -399.893102715017     IErMin= 3 ErrMin= 1.02D-06
 ErrMax= 1.02D-06  0.00D+00 EMaxC= 1.00D-01 BMatC= 1.14D-10 BMatP= 5.98D-10
 IDIUse=1 WtCom= 1.00D+00 WtEn= 0.00D+00
 Coeff-Com: -0.755D-01 0.228D+00 0.848D+00
 Coeff:     -0.755D-01 0.228D+00 0.848D+00
 Gap=     0.237 Goal=   None    Shift=    0.000
 Gap=     0.069 Goal=   None    Shift=    0.000
 RMSDP=5.47D-07 MaxDP=5.44D-06 DE=-2.30D-10 OVMax= 4.95D-06

 Cycle  11  Pass 1  IDiag  1:
 E= -399.893102715065     Delta-E=       -0.000000000047 Rises=F Damp=F
 DIIS: error= 3.09D-07 at cycle   4 NSaved=   4.
 NSaved= 4 IEnMin= 4 EnMin= -399.893102715065     IErMin= 4 ErrMin= 3.09D-07
 ErrMax= 3.09D-07  0.00D+00 EMaxC= 1.00D-01 BMatC= 1.15D-11 BMatP= 1.14D-10
 IDIUse=1 WtCom= 1.00D+00 WtEn= 0.00D+00
 Coeff-Com: -0.435D-01 0.308D-01 0.287D+00 0.726D+00
 Coeff:     -0.435D-01 0.308D-01 0.287D+00 0.726D+00
 Gap=     0.237 Goal=   None    Shift=    0.000
 Gap=     0.069 Goal=   None    Shift=    0.000
 RMSDP=1.78D-07 MaxDP=1.96D-06 DE=-4.73D-11 OVMax= 2.64D-06

 Cycle  12  Pass 1  IDiag  1:
 E= -399.893102715070     Delta-E=       -0.000000000005 Rises=F Damp=F
 DIIS: error= 1.41D-07 at cycle   5 NSaved=   5.
 NSaved= 5 IEnMin= 5 EnMin= -399.893102715070     IErMin= 5 ErrMin= 1.41D-07
 ErrMax= 1.41D-07  0.00D+00 EMaxC= 1.00D-01 BMatC= 3.02D-12 BMatP= 1.15D-11
 IDIUse=1 WtCom= 1.00D+00 WtEn= 0.00D+00
 Coeff-Com: -0.900D-02-0.248D-01-0.144D-01 0.345D+00 0.704D+00
 Coeff:     -0.900D-02-0.248D-01-0.144D-01 0.345D+00 0.704D+00
 Gap=     0.237 Goal=   None    Shift=    0.000
 Gap=     0.069 Goal=   None    Shift=    0.000
 RMSDP=8.35D-08 MaxDP=8.12D-07 DE=-4.89D-12 OVMax= 7.11D-07

 Cycle  13  Pass 1  IDiag  1:
 E= -399.893102715071     Delta-E=       -0.000000000001 Rises=F Damp=F
 DIIS: error= 3.42D-08 at cycle   6 NSaved=   6.
 NSaved= 6 IEnMin= 6 EnMin= -399.893102715071     IErMin= 6 ErrMin= 3.42D-08
 ErrMax= 3.42D-08  0.00D+00 EMaxC= 1.00D-01 BMatC= 1.87D-13 BMatP= 3.02D-12
 IDIUse=1 WtCom= 1.00D+00 WtEn= 0.00D+00
 Coeff-Com: -0.955D-04-0.123D-01-0.276D-01 0.816D-01 0.283D+00 0.675D+00
 Coeff:     -0.955D-04-0.123D-01-0.276D-01 0.816D-01 0.283D+00 0.675D+00
 Gap=     0.237 Goal=   None    Shift=    0.000
 Gap=     0.069 Goal=   None    Shift=    0.000
 RMSDP=1.66D-08 MaxDP=1.46D-07 DE=-1.25D-12 OVMax= 1.52D-07

 Cycle  14  Pass 1  IDiag  1:
 E= -399.893102715071     Delta-E=        0.000000000000 Rises=F Damp=F
 DIIS: error= 1.32D-08 at cycle   7 NSaved=   7.
 NSaved= 7 IEnMin= 6 EnMin= -399.893102715071     IErMin= 7 ErrMin= 1.32D-08
 ErrMax= 1.32D-08  0.00D+00 EMaxC= 1.00D-01 BMatC= 1.38D-14 BMatP= 1.87D-13
 IDIUse=1 WtCom= 1.00D+00 WtEn= 0.00D+00
 Coeff-Com:  0.795D-03-0.179D-02-0.743D-02-0.820D-02 0.305D-01 0.234D+00
 Coeff-Com:  0.752D+00
 Coeff:      0.795D-03-0.179D-02-0.743D-02-0.820D-02 0.305D-01 0.234D+00
 Coeff:      0.752D+00
 Gap=     0.237 Goal=   None    Shift=    0.000
 Gap=     0.069 Goal=   None    Shift=    0.000
 RMSDP=4.52D-09 MaxDP=4.15D-08 DE= 5.68D-14 OVMax= 4.56D-08

 SCF Done:  E(UTPSS-TPSS) =  -399.893102715     A.U. after   14 cycles
            NFock= 14  Conv=0.45D-08     -V/T= 2.0018
 <Sx>= 0.0000 <Sy>= 0.0000 <Sz>= 0.5000 <S**2>= 0.7571 S= 0.5036
 <L.S>= 0.000000000000E+00
 KE= 3.991871724647D+02 PE=-9.834174065453D+02 EE= 1.678814446044D+02
 Annihilation of the first spin contaminant:
 S**2 before annihilation     0.7571,   after     0.7500
 Leave Link  502 at Wed Oct  7 13:08:02 2020, MaxMem=  2684354560 cpu:              20.0 elap:               2.2
 (Enter /udrive/faculty/rpeverati/g16/g16/l508.exe)
 QCSCF skips out because SCF is already converged.
 Leave Link  508 at Wed Oct  7 13:08:03 2020, MaxMem=  2684354560 cpu:               0.4 elap:               0.5
 (Enter /udrive/faculty/rpeverati/g16/g16/l601.exe)
 Copying SCF densities to generalized density rwf, IOpCl= 1 IROHF=0.

 **********************************************************************

            Population analysis using the SCF density.

 **********************************************************************

 Orbital symmetries:
 Alpha Orbitals:
       Occupied  (A') (A') (A') (A') (A") (A') (A') (A') (A') (A")
       Virtual   (A') (A') (A') (A') (A') (A") (A') (A') (A") (A')
                 (A") (A') (A') (A')
 Beta  Orbitals:
       Occupied  (A') (A') (A') (A') (A") (A') (A') (A') (A")
       Virtual   (A') (A') (A') (A') (A') (A") (A') (A') (A') (A")
                 (A") (A') (A') (A') (A')
 The electronic state is 2-A'.
 Alpha  occ. eigenvalues --  -88.36105  -7.74757  -5.73053  -5.72629  -5.71613
 Alpha  occ. eigenvalues --   -0.70135  -0.45121  -0.36344  -0.25882  -0.23332
 Alpha virt. eigenvalues --    0.00409   0.07576   0.30233   0.32291   0.34579
 Alpha virt. eigenvalues --    0.34950   0.66447   0.68465   0.70847   0.71257
 Alpha virt. eigenvalues --    0.71916   0.89716   0.98262   1.15057
  Beta  occ. eigenvalues --  -88.35888  -7.74558  -5.72634  -5.72318  -5.71491
  Beta  occ. eigenvalues --   -0.68804  -0.42883  -0.34797  -0.22858
  Beta virt. eigenvalues --   -0.15960   0.01356   0.09605   0.30691   0.33044
  Beta virt. eigenvalues --    0.35264   0.36551   0.68601   0.70708   0.72301
  Beta virt. eigenvalues --    0.73471   0.79818   0.94695   1.01193   1.16729
          Condensed to atoms (all electrons):
               1          2          3          4
     1  H    0.625557   0.263942  -0.017421   0.003191
     2  S    0.263942  15.791985   0.177289  -0.101263
     3  H   -0.017421   0.177289   0.766755   0.109452
     4  H    0.003191  -0.101263   0.109452   0.945323
          Atomic-Atomic Spin Densities.
               1          2          3          4
     1  H   -0.007135  -0.001625  -0.000781   0.001572
     2  S   -0.001625   0.421219   0.040740  -0.100267
     3  H   -0.000781   0.040740  -0.137817  -0.007657
     4  H    0.001572  -0.100267  -0.007657   0.859768
 Mulliken charges and spin densities:
               1          2
     1  H    0.124732  -0.007969
     2  S   -0.131953   0.360067
     3  H   -0.036075  -0.105515
     4  H    0.043297   0.753417
 Sum of Mulliken charges =  -0.00000   1.00000
 Mulliken charges and spin densities with hydrogens summed into heavy atoms:
               1          2
     2  S   -0.000000   1.000000
 Electronic spatial extent (au):  <R**2>=             68.5043
 Charge=             -0.0000 electrons
 Dipole moment (field-independent basis, Debye):
    X=              0.7150    Y=             -1.0924    Z=              0.0000  Tot=              1.3056
 Quadrupole moment (field-independent basis, Debye-Ang):
   XX=            -13.7428   YY=            -14.9549   ZZ=            -17.7757
   XY=              0.2977   XZ=              0.0000   YZ=              0.0000
 Traceless Quadrupole moment (field-independent basis, Debye-Ang):
   XX=              1.7484   YY=              0.5362   ZZ=             -2.2846
   XY=              0.2977   XZ=              0.0000   YZ=              0.0000
 Octapole moment (field-independent basis, Debye-Ang**2):
  XXX=              2.5414  YYY=              2.0686  ZZZ=              0.0000  XYY=              0.6498
  XXY=              0.7222  XXZ=              0.0000  XZZ=              0.5308  YZZ=              0.1549
  YYZ=              0.0000  XYZ=              0.0000
 Hexadecapole moment (field-independent basis, Debye-Ang**3):
 XXXX=            -27.1519 YYYY=            -64.1664 ZZZZ=            -24.2061 XXXY=             -7.0561
 XXXZ=              0.0000 YYYX=             -6.2901 YYYZ=              0.0000 ZZZX=              0.0000
 ZZZY=              0.0000 XXYY=            -15.4764 XXZZ=             -8.9193 YYZZ=            -15.0201
 XXYZ=              0.0000 YYXZ=              0.0000 ZZXY=             -2.1905
 N-N= 1.645568676112D+01 E-N=-9.834174071763D+02  KE= 3.991871724647D+02
                          Isotropic Fermi Contact Couplings
        Atom                 a.u.       MegaHertz       Gauss      10(-4) cm-1
     1  H(1)              -0.00345     -15.42865      -5.50533      -5.14644
     2  S(33)              0.04982      17.11089       6.10559       5.70758
     3  H(1)              -0.03192    -142.69140     -50.91584     -47.59673
     4  H(1)               0.24995    1117.22476     398.65357     372.66606
 --------------------------------------------------------
       Center         ----  Spin Dipole Couplings  ----
                      3XX-RR        3YY-RR        3ZZ-RR
 --------------------------------------------------------
     1   Atom        0.017140      0.001888     -0.019028
     2   Atom       -0.609242      1.500416     -0.891175
     3   Atom       -0.058365      0.135424     -0.077060
     4   Atom        0.005610     -0.012190      0.006580
 --------------------------------------------------------
                        XY            XZ            YZ
 --------------------------------------------------------
     1   Atom       -0.000561      0.000000      0.000000
     2   Atom        0.864861      0.000000      0.000000
     3   Atom        0.061639      0.000000      0.000000
     4   Atom       -0.004371      0.000000      0.000000
 --------------------------------------------------------


 ---------------------------------------------------------------------------------
              Anisotropic Spin Dipole Couplings in Principal Axis System
 ---------------------------------------------------------------------------------

       Atom             a.u.   MegaHertz   Gauss  10(-4) cm-1        Axes

              Baa    -0.0190   -10.152    -3.623    -3.386  0.0000  0.0000  1.0000
     1 H(1)   Bbb     0.0019     0.996     0.356     0.332  0.0367  0.9993  0.0000
              Bcc     0.0172     9.156     3.267     3.054  0.9993 -0.0367  0.0000
 
              Baa    -0.9185   -37.656   -13.437   -12.561  0.9416 -0.3367  0.0000
     2 S(33)  Bbb    -0.8912   -36.537   -13.037   -12.188  0.0000  0.0000  1.0000
              Bcc     1.8096    74.194    26.474    24.748  0.3367  0.9416  0.0000
 
              Baa    -0.0771   -41.115   -14.671   -13.715  0.0000  0.0000  1.0000
     3 H(1)   Bbb    -0.0763   -40.715   -14.528   -13.581  0.9601 -0.2795  0.0000
              Bcc     0.1534    81.830    29.199    27.296  0.2795  0.9601  0.0000
 
              Baa    -0.0132    -7.046    -2.514    -2.350  0.2263  0.9741  0.0000
     4 H(1)   Bbb     0.0066     3.511     1.253     1.171  0.0000  0.0000  1.0000
              Bcc     0.0066     3.535     1.261     1.179  0.9741 -0.2263  0.0000
 

 ---------------------------------------------------------------------------------

 No NMR shielding tensors so no spin-rotation constants.
 Leave Link  601 at Wed Oct  7 13:08:04 2020, MaxMem=  2684354560 cpu:               6.1 elap:               1.1
 (Enter /udrive/faculty/rpeverati/g16/g16/l701.exe)
 ... and contract with generalized density number  0.
 Compute integral first derivatives.
 R6Disp: Adding Grimme-D3(BJ) dispersion energy 1st derivatives to the gradient.
 Leave Link  701 at Wed Oct  7 13:08:05 2020, MaxMem=  2684354560 cpu:               3.6 elap:               0.9
 (Enter /udrive/faculty/rpeverati/g16/g16/l702.exe)
 L702 exits ... SP integral derivatives will be done elsewhere.
 Leave Link  702 at Wed Oct  7 13:08:06 2020, MaxMem=  2684354560 cpu:               2.0 elap:               0.6
 (Enter /udrive/faculty/rpeverati/g16/g16/l703.exe)
 Integral derivatives from FoFJK, PRISM(SPDF).
 Compute integral first derivatives, UseDBF=F ICtDFT=           0.
 Calling FoFJK, ICntrl=      2527 FMM=F ISym2X=1 I1Cent= 0 IOpClX= 0 NMat=1 NMatS=1 NMatT=0.
 FoFJK:  IHMeth= 1 ICntrl=    2527 DoSepK=F KAlg= 0 I1Cent=           0 FoldK=F
 IRaf=         0 NMat=       1 IRICut=       1 DoRegI=T DoRafI=F ISym2E= 1 IDoP0=0 IntGTp=1.
 FoFCou: FMM=F IPFlag=           0 FMFlag=      100000 FMFlg1=         800
         NFxFlg=           0 DoJE=F BraDBF=F KetDBF=F FulRan=T
         wScrn=  0.000000 ICntrl=      2527 IOpCl=  0 I1Cent=           0 NGrid=           0
         NMat0=    1 NMatS0=      1 NMatT0=    0 NMatD0=    1 NMtDS0=    0 NMtDT0=    0
 Petite list used in FoFCou.
 Leave Link  703 at Wed Oct  7 13:08:08 2020, MaxMem=  2684354560 cpu:               6.6 elap:               1.1
 (Enter /udrive/faculty/rpeverati/g16/g16/l716.exe)
 Dipole        = 2.81315637D-01-4.29786115D-01 0.00000000D+00
 ***** Axes restored to original set *****
 -------------------------------------------------------------------
 Center     Atomic                   Forces (Hartrees/Bohr)
 Number     Number              X              Y              Z
 -------------------------------------------------------------------
      1        1           0.006767595   -0.002251470   -0.000000000
      2       16          -0.002791617    0.013599883   -0.000000000
      3        1          -0.004446924   -0.015450330   -0.000000000
      4        1           0.000470947    0.004101916   -0.000000000
 -------------------------------------------------------------------
 Cartesian Forces:  Max     0.015450330 RMS     0.006577454
 Leave Link  716 at Wed Oct  7 13:08:09 2020, MaxMem=  2684354560 cpu:               2.0 elap:               0.8
 (Enter /udrive/faculty/rpeverati/g16/g16/l103.exe)

 GradGradGradGradGradGradGradGradGradGradGradGradGradGradGradGradGradGrad
 Berny optimization.
 Optmz: redundant internal coordinate code flag= 1
 FormGI is forming the generalized inverse of G from B-inverse, IUseBI=4.
 Internal  Forces:  Max     0.012024791 RMS     0.005962603
 Search for a saddle point.
 Step number   1 out of a maximum of   50
 All quantities printed in internal units (Hartrees-Bohrs-Radians)
 Swapping is turned off.
 Second derivative matrix not updated -- first step.
 The second derivative matrix:
                          R1        R2        R3        A1        A2
           R1           0.26609
           R2           0.00000   0.20405
           R3           0.00000   0.00000   0.12293
           A1           0.00000   0.00000   0.00000   0.16000
           A2           0.00000   0.00000   0.00000   0.00000   0.00230
           A3           0.00000   0.00000   0.00000   0.00000   0.00000
                          A3
           A3           0.00230
 ITU=  0
 Eigenvectors of the second derivative matrix:
                           1         2         3         4         5
     Eigenvalues --     0.00230   0.00230   0.12293   0.16000   0.20405
   1         R1         0.00000   0.00000   0.00000  -0.00000   0.00000
   2         R2        -0.00000  -0.00000  -0.00000  -0.00000  -1.00000
   3         R3         0.00000   0.00000   1.00000  -0.00000  -0.00000
   4         A1         0.00000  -0.00000  -0.00000  -1.00000   0.00000
   5         A2        -0.33267   0.94304  -0.00000  -0.00000  -0.00000
   6         A3         0.94304   0.33267  -0.00000   0.00000  -0.00000
                           6
     Eigenvalues --     0.26609
   1         R1         1.00000
   2         R2         0.00000
   3         R3        -0.00000
   4         A1        -0.00000
   5         A2         0.00000
   6         A3        -0.00000
 Eigenvalue     1 is   2.30D-03 should be less than     0.000000 Eigenvector:
                          A3        A2        R3        R1        R2
   1                    0.94304  -0.33267   0.00000   0.00000  -0.00000
                          A1
   1                    0.00000
 RLam0= 2.35D-03.
 Iter=   1 RLamda= 0.00000000D+00 Sum=-1.43255988D-03.
 Iter=   2 RLamda=-1.43255988D-03 Sum=-1.27314642D-03.
 Iter=   3 RLamda=-1.27314642D-03 Sum=-1.28485839D-03.
 Iter=   4 RLamda=-1.28485839D-03 Sum=-1.28396494D-03.
 Iter=   5 RLamda=-1.28396494D-03 Sum=-1.28403291D-03.
 Iter=   6 RLamda=-1.28403291D-03 Sum=-1.28402774D-03.
 RFO step:  Lambda0=2.348231681D-03 Lambda=-1.28403291D-03.
 Linear search not attempted -- option 19 set.
 Maximum step size (   0.100) exceeded in Quadratic search.
    -- Step size scaled by   0.256
 Iteration  1 RMS(Cart)=  0.03536470 RMS(Int)=  0.00146098
 Iteration  2 RMS(Cart)=  0.00144110 RMS(Int)=  0.00000163
 Iteration  3 RMS(Cart)=  0.00000169 RMS(Int)=  0.00000000
 Iteration  4 RMS(Cart)=  0.00000000 RMS(Int)=  0.00000000
 ITry= 1 IFail=0 DXMaxC= 5.10D-02 DCOld= 1.00D+10 DXMaxT= 1.00D-01 DXLimC= 3.00D+00 Rises=F
 ClnCor:  largest displacement from symmetrization is 5.10D-02 for atom     3.
 Variable       Old X    -DE/DX   Delta X   Delta X   Delta X     New X
                                 (Linear)    (Quad)   (Total)
    R1        2.52783   0.00713   0.00000   0.00683   0.00667   2.53450
    R2        2.70067   0.01202   0.00000   0.01501   0.01393   2.71460
    R3        2.17220  -0.00410   0.00000  -0.00846  -0.00991   2.16229
    A1        1.59091   0.00031   0.00000   0.00049   0.00083   1.59173
    A2        3.01275   0.00101   0.00000   0.04083   0.04216   3.05490
    A3        3.14159   0.00000   0.00000   0.08938   0.00000   3.14159
         Item               Value     Threshold  Converged?
 Maximum Force            0.012025     0.000450     NO 
 RMS     Force            0.005963     0.000300     NO 
 Maximum Displacement     0.035881     0.001800     NO 
 RMS     Displacement     0.024399     0.001200     NO 
 Predicted change in Energy=-2.646791D-04
 Lowest energy point so far.  Saving SCF results.
 Largest change from initial coordinates is atom    4       0.019 Angstoms.
 GradGradGradGradGradGradGradGradGradGradGradGradGradGradGradGradGradGrad

 Leave Link  103 at Wed Oct  7 13:08:10 2020, MaxMem=  2684354560 cpu:               4.8 elap:               1.0
 (Enter /udrive/faculty/rpeverati/g16/g16/l202.exe)
                          Input orientation:                          
 ---------------------------------------------------------------------
 Center     Atomic      Atomic             Coordinates (Angstroms)
 Number     Number       Type             X           Y           Z
 ---------------------------------------------------------------------
      1          1           0        1.269765   -0.205113    0.000000
      2         16           0       -0.001460    0.222437    0.000000
      3          1           0       -0.487796   -1.129237    0.000000
      4          1           0       -0.780510   -2.235396    0.000000
 ---------------------------------------------------------------------
                    Distance matrix (angstroms):
                    1          2          3          4
     1  H    0.000000
     2  S    1.341198   0.000000
     3  H    1.985706   1.436504   0.000000
     4  H    2.885426   2.578345   1.144233   0.000000
 Stoichiometry    H3S(2)
 Framework group  CS[SG(H3S)]
 Deg. of freedom     5
 Full point group                 CS      NOp   2
 RotChk:  IX=0 Diff= 1.95D-03
 Largest Abelian subgroup         CS      NOp   2
 Largest concise Abelian subgroup C1      NOp   1
                         Standard orientation:                         
 ---------------------------------------------------------------------
 Center     Atomic      Atomic             Coordinates (Angstroms)
 Number     Number       Type             X           Y           Z
 ---------------------------------------------------------------------
      1          1           0        1.270635   -0.206298    0.000000
      2         16           0        0.000000    0.223003    0.000000
      3          1           0       -0.488198   -1.127999    0.000000
      4          1           0       -0.782437   -2.233754    0.000000
 ---------------------------------------------------------------------
 Rotational constants (GHZ):         286.9224487          60.8155695          50.1795927
 Leave Link  202 at Wed Oct  7 13:08:11 2020, MaxMem=  2684354560 cpu:               2.6 elap:               0.8
 (Enter /udrive/faculty/rpeverati/g16/g16/l301.exe)
 Standard basis: 6-31G(d) (5D, 7F)
 Ernie: Thresh=  0.10000D-02 Tol=  0.10000D-05 Strict=F.
 There are    20 symmetry adapted cartesian basis functions of A'  symmetry.
 There are     5 symmetry adapted cartesian basis functions of A"  symmetry.
 There are    19 symmetry adapted basis functions of A'  symmetry.
 There are     5 symmetry adapted basis functions of A"  symmetry.
    24 basis functions,    64 primitive gaussians,    25 cartesian basis functions
    10 alpha electrons        9 beta electrons
       nuclear repulsion energy        16.4031315527 Hartrees.
 IExCor= 2523 DFT=T Ex=TPSS Corr=TPSS ExCW=0 ScaHFX=  0.000000
 ScaDFX=  1.000000  1.000000  1.000000  1.000000 ScalE2=  1.000000  1.000000
 IRadAn=      5 IRanWt=     -1 IRanGd=            0 ICorTp=0 IEmpDi=141
 NAtoms=    4 NActive=    4 NUniq=    4 SFac= 1.00D+00 NAtFMM=   60 NAOKFM=F Big=F
 Integral buffers will be    131072 words long.
 Raffenetti 2 integral format.
 Two-electron integral symmetry is turned on.
 R6Disp:  Grimme-D3(BJ) Dispersion energy=       -0.0018554279 Hartrees.
 Nuclear repulsion after empirical dispersion term =       16.4012761248 Hartrees.
 Leave Link  301 at Wed Oct  7 13:08:12 2020, MaxMem=  2684354560 cpu:               2.0 elap:               0.5
 (Enter /udrive/faculty/rpeverati/g16/g16/l302.exe)
 NPDir=0 NMtPBC=     1 NCelOv=     1 NCel=       1 NClECP=     1 NCelD=      1
         NCelK=      1 NCelE2=     1 NClLst=     1 CellRange=     0.0.
 One-electron integrals computed using PRISM.
 One-electron integral symmetry used in STVInt
 NBasis=    24 RedAO= T EigKep=  2.34D-02  NBF=    19     5
 NBsUse=    24 1.00D-06 EigRej= -1.00D+00 NBFU=    19     5
 Precomputing XC quadrature grid using
 IXCGrd= 4 IRadAn=           5 IRanWt=          -1 IRanGd=           0 AccXCQ= 0.00D+00.
 Generated NRdTot=       0 NPtTot=           0 NUsed=           0 NTot=          32
 NSgBfM=    25    25    25    25    25 MxSgAt=     4 MxSgA2=     4.
 Leave Link  302 at Wed Oct  7 13:08:13 2020, MaxMem=  2684354560 cpu:               3.9 elap:               0.7
 (Enter /udrive/faculty/rpeverati/g16/g16/l303.exe)
 DipDrv:  MaxL=1.
 Leave Link  303 at Wed Oct  7 13:08:14 2020, MaxMem=  2684354560 cpu:               1.8 elap:               0.6
 (Enter /udrive/faculty/rpeverati/g16/g16/l401.exe)
 Initial guess from the checkpoint file:  "MN_90_RKT16_BH76_TPSSDBJ_631Gs.chk"
 SCF N**3 symmetry information disabled.
 B after Tr=     0.000000   -0.000000    0.000000
         Rot=    1.000000    0.000000    0.000000    0.000432 Ang=   0.05 deg.
 Guess basis will be translated and rotated to current coordinates.
 JPrj=2 DoOrth=T DoCkMO=T.
 Initial guess orbital symmetries:
 Alpha Orbitals:
       Occupied  (A') (A') (A') (A') (A") (A') (A') (A') (A') (A")
       Virtual   (A') (A') (A') (A') (A') (A") (A') (A') (A") (A')
                 (A") (A') (A') (A')
 Beta  Orbitals:
       Occupied  (A') (A') (A') (A') (A") (A') (A') (A') (A")
       Virtual   (A') (A') (A') (A') (A') (A") (A') (A') (A') (A")
                 (A") (A') (A') (A') (A')
 The electronic state of the initial guess is 2-A'.
 Initial guess <Sx>= 0.0000 <Sy>= 0.0000 <Sz>= 0.5000 <S**2>= 0.7572 S= 0.5036
 Generating alternative initial guess.
 ExpMin= 1.17D-01 ExpMax= 2.19D+04 ExpMxC= 3.30D+03 IAcc=2 IRadAn=         4 AccDes= 0.00D+00
 Harris functional with IExCor= 1009 and IRadAn=       4 diagonalized for initial guess.
 HarFok:  IExCor= 1009 AccDes= 0.00D+00 IRadAn=         4 IDoV= 1 UseB2=F ITyADJ=14
 ICtDFT=  3500011 ScaDFX=  1.000000  1.000000  1.000000  1.000000
 FoFCou: FMM=F IPFlag=           0 FMFlag=      100000 FMFlg1=           0
         NFxFlg=           0 DoJE=T BraDBF=F KetDBF=T FulRan=T
         wScrn=  0.000000 ICntrl=       500 IOpCl=  0 I1Cent=   200000004 NGrid=           0
         NMat0=    1 NMatS0=      1 NMatT0=    0 NMatD0=    1 NMtDS0=    0 NMtDT0=    0
 Petite list used in FoFCou.
 Harris En= -399.623370869870    
 Leave Link  401 at Wed Oct  7 13:08:15 2020, MaxMem=  2684354560 cpu:               6.1 elap:               0.8
 (Enter /udrive/faculty/rpeverati/g16/g16/l502.exe)
 Keep J ints in memory in symmetry-blocked form, NReq=10400129.
 FoFCou: FMM=F IPFlag=           0 FMFlag=           0 FMFlg1=           0
         NFxFlg=           0 DoJE=F BraDBF=F KetDBF=F FulRan=T
         wScrn=  0.000000 ICntrl=       600 IOpCl=  0 I1Cent=           0 NGrid=           0
         NMat0=    1 NMatS0=    300 NMatT0=    0 NMatD0=    1 NMtDS0=    0 NMtDT0=    0
 Petite list used in FoFCou.
 UHF open shell SCF:
 Using DIIS extrapolation, IDIIS=  1040.
 NGot=  2684354560 LenX=  2684325898 LenY=  2684324832
 Requested convergence on RMS density matrix=1.00D-08 within 120 cycles.
 Requested convergence on MAX density matrix=1.00D-06.
 Requested convergence on             energy=1.00D-06.
 No special actions if energy rises.
 Integral accuracy reduced to 1.0D-05 until final iterations.

 Cycle   1  Pass 0  IDiag  1:
 E= -399.893319398633    
 DIIS: error= 9.35D-04 at cycle   1 NSaved=   1.
 NSaved= 1 IEnMin= 1 EnMin= -399.893319398633     IErMin= 1 ErrMin= 9.35D-04
 ErrMax= 9.35D-04  0.00D+00 EMaxC= 1.00D-01 BMatC= 8.15D-05 BMatP= 8.15D-05
 IDIUse=3 WtCom= 9.91D-01 WtEn= 9.35D-03
 Coeff-Com:  0.100D+01
 Coeff-En:   0.100D+01
 Coeff:      0.100D+01
 Gap=     0.236 Goal=   None    Shift=    0.000
 Gap=     0.068 Goal=   None    Shift=    0.000
 RMSDP=4.97D-04 MaxDP=3.45D-03              OVMax= 5.65D-03

 Cycle   2  Pass 0  IDiag  1:
 E= -399.893367291104     Delta-E=       -0.000047892471 Rises=F Damp=F
 DIIS: error= 2.42D-04 at cycle   2 NSaved=   2.
 NSaved= 2 IEnMin= 2 EnMin= -399.893367291104     IErMin= 2 ErrMin= 2.42D-04
 ErrMax= 2.42D-04  0.00D+00 EMaxC= 1.00D-01 BMatC= 5.43D-06 BMatP= 8.15D-05
 IDIUse=3 WtCom= 9.98D-01 WtEn= 2.42D-03
 Coeff-Com:  0.857D-01 0.914D+00
 Coeff-En:   0.000D+00 0.100D+01
 Coeff:      0.855D-01 0.914D+00
 Gap=     0.237 Goal=   None    Shift=    0.000
 Gap=     0.069 Goal=   None    Shift=    0.000
 RMSDP=1.61D-04 MaxDP=1.62D-03 DE=-4.79D-05 OVMax= 1.33D-03

 Cycle   3  Pass 0  IDiag  1:
 E= -399.893367765879     Delta-E=       -0.000000474775 Rises=F Damp=F
 DIIS: error= 1.59D-04 at cycle   3 NSaved=   3.
 NSaved= 3 IEnMin= 3 EnMin= -399.893367765879     IErMin= 3 ErrMin= 1.59D-04
 ErrMax= 1.59D-04  0.00D+00 EMaxC= 1.00D-01 BMatC= 4.21D-06 BMatP= 5.43D-06
 IDIUse=3 WtCom= 9.98D-01 WtEn= 1.59D-03
 Coeff-Com: -0.196D-02 0.467D+00 0.535D+00
 Coeff-En:   0.000D+00 0.435D+00 0.565D+00
 Coeff:     -0.196D-02 0.467D+00 0.535D+00
 Gap=     0.236 Goal=   None    Shift=    0.000
 Gap=     0.068 Goal=   None    Shift=    0.000
 RMSDP=8.15D-05 MaxDP=7.49D-04 DE=-4.75D-07 OVMax= 9.39D-04

 Cycle   4  Pass 0  IDiag  1:
 E= -399.893369416564     Delta-E=       -0.000001650684 Rises=F Damp=F
 DIIS: error= 3.63D-05 at cycle   4 NSaved=   4.
 NSaved= 4 IEnMin= 4 EnMin= -399.893369416564     IErMin= 4 ErrMin= 3.63D-05
 ErrMax= 3.63D-05  0.00D+00 EMaxC= 1.00D-01 BMatC= 1.80D-07 BMatP= 4.21D-06
 IDIUse=1 WtCom= 1.00D+00 WtEn= 0.00D+00
 Coeff-Com: -0.677D-02 0.165D+00 0.250D+00 0.592D+00
 Coeff:     -0.677D-02 0.165D+00 0.250D+00 0.592D+00
 Gap=     0.236 Goal=   None    Shift=    0.000
 Gap=     0.068 Goal=   None    Shift=    0.000
 RMSDP=1.69D-05 MaxDP=1.35D-04 DE=-1.65D-06 OVMax= 1.35D-04

 Cycle   5  Pass 0  IDiag  1:
 E= -399.893369485249     Delta-E=       -0.000000068685 Rises=F Damp=F
 DIIS: error= 7.01D-06 at cycle   5 NSaved=   5.
 NSaved= 5 IEnMin= 5 EnMin= -399.893369485249     IErMin= 5 ErrMin= 7.01D-06
 ErrMax= 7.01D-06  0.00D+00 EMaxC= 1.00D-01 BMatC= 5.71D-09 BMatP= 1.80D-07
 IDIUse=1 WtCom= 1.00D+00 WtEn= 0.00D+00
 Coeff-Com:  0.110D-03-0.523D-01-0.442D-01 0.587D-01 0.104D+01
 Coeff:      0.110D-03-0.523D-01-0.442D-01 0.587D-01 0.104D+01
 Gap=     0.237 Goal=   None    Shift=    0.000
 Gap=     0.068 Goal=   None    Shift=    0.000
 RMSDP=4.64D-06 MaxDP=4.60D-05 DE=-6.87D-08 OVMax= 5.56D-05

 Initial convergence to 1.0D-05 achieved.  Increase integral accuracy.
 Cycle   6  Pass 1  IDiag  1:
 E= -399.893368312766     Delta-E=        0.000001172483 Rises=F Damp=F
 DIIS: error= 5.06D-06 at cycle   1 NSaved=   1.
 NSaved= 1 IEnMin= 1 EnMin= -399.893368312766     IErMin= 1 ErrMin= 5.06D-06
 ErrMax= 5.06D-06  0.00D+00 EMaxC= 1.00D-01 BMatC= 1.93D-09 BMatP= 1.93D-09
 IDIUse=1 WtCom= 1.00D+00 WtEn= 0.00D+00
 Coeff-Com:  0.100D+01
 Coeff:      0.100D+01
 Gap=     0.237 Goal=   None    Shift=    0.000
 Gap=     0.068 Goal=   None    Shift=    0.000
 RMSDP=4.64D-06 MaxDP=4.60D-05 DE= 1.17D-06 OVMax= 1.62D-05

 Cycle   7  Pass 1  IDiag  1:
 E= -399.893368313472     Delta-E=       -0.000000000706 Rises=F Damp=F
 DIIS: error= 2.15D-06 at cycle   2 NSaved=   2.
 NSaved= 2 IEnMin= 2 EnMin= -399.893368313472     IErMin= 2 ErrMin= 2.15D-06
 ErrMax= 2.15D-06  0.00D+00 EMaxC= 1.00D-01 BMatC= 4.58D-10 BMatP= 1.93D-09
 IDIUse=1 WtCom= 1.00D+00 WtEn= 0.00D+00
 Coeff-Com:  0.248D+00 0.752D+00
 Coeff:      0.248D+00 0.752D+00
 Gap=     0.236 Goal=   None    Shift=    0.000
 Gap=     0.068 Goal=   None    Shift=    0.000
 RMSDP=1.01D-06 MaxDP=7.60D-06 DE=-7.06D-10 OVMax= 1.00D-05

 Cycle   8  Pass 1  IDiag  1:
 E= -399.893368313604     Delta-E=       -0.000000000132 Rises=F Damp=F
 DIIS: error= 9.60D-07 at cycle   3 NSaved=   3.
 NSaved= 3 IEnMin= 3 EnMin= -399.893368313604     IErMin= 3 ErrMin= 9.60D-07
 ErrMax= 9.60D-07  0.00D+00 EMaxC= 1.00D-01 BMatC= 1.57D-10 BMatP= 4.58D-10
 IDIUse=1 WtCom= 1.00D+00 WtEn= 0.00D+00
 Coeff-Com: -0.412D-01 0.345D+00 0.696D+00
 Coeff:     -0.412D-01 0.345D+00 0.696D+00
 Gap=     0.237 Goal=   None    Shift=    0.000
 Gap=     0.068 Goal=   None    Shift=    0.000
 RMSDP=5.31D-07 MaxDP=5.09D-06 DE=-1.32D-10 OVMax= 4.08D-06

 Cycle   9  Pass 1  IDiag  1:
 E= -399.893368313663     Delta-E=       -0.000000000059 Rises=F Damp=F
 DIIS: error= 2.94D-07 at cycle   4 NSaved=   4.
 NSaved= 4 IEnMin= 4 EnMin= -399.893368313663     IErMin= 4 ErrMin= 2.94D-07
 ErrMax= 2.94D-07  0.00D+00 EMaxC= 1.00D-01 BMatC= 9.62D-12 BMatP= 1.57D-10
 IDIUse=1 WtCom= 1.00D+00 WtEn= 0.00D+00
 Coeff-Com: -0.384D-01 0.538D-01 0.229D+00 0.755D+00
 Coeff:     -0.384D-01 0.538D-01 0.229D+00 0.755D+00
 Gap=     0.237 Goal=   None    Shift=    0.000
 Gap=     0.068 Goal=   None    Shift=    0.000
 RMSDP=1.55D-07 MaxDP=1.80D-06 DE=-5.92D-11 OVMax= 2.15D-06

 Cycle  10  Pass 1  IDiag  1:
 E= -399.893368313667     Delta-E=       -0.000000000004 Rises=F Damp=F
 DIIS: error= 1.27D-07 at cycle   5 NSaved=   5.
 NSaved= 5 IEnMin= 5 EnMin= -399.893368313667     IErMin= 5 ErrMin= 1.27D-07
 ErrMax= 1.27D-07  0.00D+00 EMaxC= 1.00D-01 BMatC= 2.43D-12 BMatP= 9.62D-12
 IDIUse=1 WtCom= 1.00D+00 WtEn= 0.00D+00
 Coeff-Com: -0.816D-02-0.444D-01-0.413D-01 0.342D+00 0.752D+00
 Coeff:     -0.816D-02-0.444D-01-0.413D-01 0.342D+00 0.752D+00
 Gap=     0.237 Goal=   None    Shift=    0.000
 Gap=     0.068 Goal=   None    Shift=    0.000
 RMSDP=8.25D-08 MaxDP=7.67D-07 DE=-3.87D-12 OVMax= 7.97D-07

 Cycle  11  Pass 1  IDiag  1:
 E= -399.893368313668     Delta-E=       -0.000000000001 Rises=F Damp=F
 DIIS: error= 2.59D-08 at cycle   6 NSaved=   6.
 NSaved= 6 IEnMin= 6 EnMin= -399.893368313668     IErMin= 6 ErrMin= 2.59D-08
 ErrMax= 2.59D-08  0.00D+00 EMaxC= 1.00D-01 BMatC= 7.70D-14 BMatP= 2.43D-12
 IDIUse=1 WtCom= 1.00D+00 WtEn= 0.00D+00
 Coeff-Com:  0.480D-03-0.133D-01-0.246D-01 0.280D-01 0.222D+00 0.788D+00
 Coeff:      0.480D-03-0.133D-01-0.246D-01 0.280D-01 0.222D+00 0.788D+00
 Gap=     0.237 Goal=   None    Shift=    0.000
 Gap=     0.068 Goal=   None    Shift=    0.000
 RMSDP=1.29D-08 MaxDP=1.17D-07 DE=-1.36D-12 OVMax= 1.76D-07

 Cycle  12  Pass 1  IDiag  1:
 E= -399.893368313669     Delta-E=       -0.000000000000 Rises=F Damp=F
 DIIS: error= 4.01D-09 at cycle   7 NSaved=   7.
 NSaved= 7 IEnMin= 7 EnMin= -399.893368313669     IErMin= 7 ErrMin= 4.01D-09
 ErrMax= 4.01D-09  0.00D+00 EMaxC= 1.00D-01 BMatC= 8.87D-16 BMatP= 7.70D-14
 IDIUse=1 WtCom= 1.00D+00 WtEn= 0.00D+00
 Coeff-Com:  0.269D-03 0.123D-02 0.112D-02-0.122D-01-0.222D-01 0.400D-02
 Coeff-Com:  0.103D+01
 Coeff:      0.269D-03 0.123D-02 0.112D-02-0.122D-01-0.222D-01 0.400D-02
 Coeff:      0.103D+01
 Gap=     0.237 Goal=   None    Shift=    0.000
 Gap=     0.068 Goal=   None    Shift=    0.000
 RMSDP=1.67D-09 MaxDP=1.47D-08 DE=-1.14D-13 OVMax= 2.14D-08

 SCF Done:  E(UTPSS-TPSS) =  -399.893368314     A.U. after   12 cycles
            NFock= 12  Conv=0.17D-08     -V/T= 2.0018
 <Sx>= 0.0000 <Sy>= 0.0000 <Sz>= 0.5000 <S**2>= 0.7574 S= 0.5037
 <L.S>= 0.000000000000E+00
 KE= 3.991770606210D+02 PE=-9.833032049544D+02 EE= 1.678314998949D+02
 Annihilation of the first spin contaminant:
 S**2 before annihilation     0.7574,   after     0.7500
 Leave Link  502 at Wed Oct  7 13:08:18 2020, MaxMem=  2684354560 cpu:              20.0 elap:               2.3
 (Enter /udrive/faculty/rpeverati/g16/g16/l508.exe)
 QCSCF skips out because SCF is already converged.
 Leave Link  508 at Wed Oct  7 13:08:19 2020, MaxMem=  2684354560 cpu:               0.4 elap:               0.5
 (Enter /udrive/faculty/rpeverati/g16/g16/l701.exe)
 ... and contract with generalized density number  0.
 Compute integral first derivatives.
 R6Disp: Adding Grimme-D3(BJ) dispersion energy 1st derivatives to the gradient.
 Leave Link  701 at Wed Oct  7 13:08:20 2020, MaxMem=  2684354560 cpu:               3.6 elap:               0.8
 (Enter /udrive/faculty/rpeverati/g16/g16/l702.exe)
 L702 exits ... SP integral derivatives will be done elsewhere.
 Leave Link  702 at Wed Oct  7 13:08:21 2020, MaxMem=  2684354560 cpu:               1.9 elap:               0.6
 (Enter /udrive/faculty/rpeverati/g16/g16/l703.exe)
 Integral derivatives from FoFJK, PRISM(SPDF).
 Compute integral first derivatives, UseDBF=F ICtDFT=           0.
 Calling FoFJK, ICntrl=      2527 FMM=F ISym2X=1 I1Cent= 0 IOpClX= 0 NMat=1 NMatS=1 NMatT=0.
 FoFJK:  IHMeth= 1 ICntrl=    2527 DoSepK=F KAlg= 0 I1Cent=           0 FoldK=F
 IRaf=         0 NMat=       1 IRICut=       1 DoRegI=T DoRafI=F ISym2E= 1 IDoP0=0 IntGTp=1.
 FoFCou: FMM=F IPFlag=           0 FMFlag=      100000 FMFlg1=         800
         NFxFlg=           0 DoJE=F BraDBF=F KetDBF=F FulRan=T
         wScrn=  0.000000 ICntrl=      2527 IOpCl=  0 I1Cent=           0 NGrid=           0
         NMat0=    1 NMatS0=      1 NMatT0=    0 NMatD0=    1 NMtDS0=    0 NMtDT0=    0
 Petite list used in FoFCou.
 Leave Link  703 at Wed Oct  7 13:08:22 2020, MaxMem=  2684354560 cpu:               6.6 elap:               0.9
 (Enter /udrive/faculty/rpeverati/g16/g16/l716.exe)
 Dipole        = 2.82830366D-01-4.28917764D-01 0.00000000D+00
 ***** Axes restored to original set *****
 -------------------------------------------------------------------
 Center     Atomic                   Forces (Hartrees/Bohr)
 Number     Number              X              Y              Z
 -------------------------------------------------------------------
      1        1           0.005036847   -0.001687246   -0.000000000
      2       16          -0.001505890    0.011537957   -0.000000000
      3        1          -0.004747292   -0.014598212   -0.000000000
      4        1           0.001216335    0.004747501   -0.000000000
 -------------------------------------------------------------------
 Cartesian Forces:  Max     0.014598212 RMS     0.005939077
 Leave Link  716 at Wed Oct  7 13:08:23 2020, MaxMem=  2684354560 cpu:               2.0 elap:               0.7
 (Enter /udrive/faculty/rpeverati/g16/g16/l103.exe)

 GradGradGradGradGradGradGradGradGradGradGradGradGradGradGradGradGradGrad
 Berny optimization.
 Optmz: redundant internal coordinate code flag= 1
 Red2BG:  D1=  2.02D-01 OD1=  1.52D-02 B2RMS=  0.00D+00 IAprox=0
 FormGI is forming the generalized inverse of G from B-inverse, IUseBI=4.
 Internal  Forces:  Max     0.010466222 RMS     0.005191962
 Search for a saddle point.
 Step number   2 out of a maximum of   50
 All quantities printed in internal units (Hartrees-Bohrs-Radians)
 Swapping is turned off.
 Update second derivatives using D2CorX and points    1    2
 The second derivative matrix:
                          R1        R2        R3        A1        A2
           R1           0.26639
           R2          -0.00370   0.18700
           R3           0.00611   0.01962   0.10345
           A1           0.00050   0.00055   0.00002   0.16012
           A2           0.00365  -0.01961   0.03585   0.00339   0.03651
           A3           0.00000   0.00000  -0.00000   0.00000   0.00000
                          A3
           A3           0.00230
 ITU=  0  0
 Eigenvectors of the second derivative matrix:
                           1         2         3         4         5
     Eigenvalues --     0.00230   0.01693   0.11724   0.16022   0.19220
   1         R1        -0.00000   0.00090  -0.05022  -0.00725  -0.03728
   2         R2         0.00000  -0.15088  -0.13399  -0.00953  -0.97843
   3         R3        -0.00000   0.40727   0.89300   0.01758  -0.18693
   4         A1        -0.00000   0.02187  -0.03176   0.99920  -0.00899
   5         A2         0.00000  -0.90049   0.42551   0.03381   0.07914
   6         A3         1.00000   0.00000   0.00000   0.00000   0.00000
                           6
     Eigenvalues --     0.26688
   1         R1         0.99802
   2         R2        -0.04322
   3         R3         0.03772
   4         A1         0.00530
   5         A2         0.02543
   6         A3         0.00000
 Eigenvalue     1 is   2.30D-03 should be less than     0.000000 Eigenvector:
                          A3        R2        R3        A2        R1
   1                    1.00000   0.00000  -0.00000   0.00000  -0.00000
                          A1
   1                   -0.00000
 RLam0= 2.30D-03.
 Iter=   1 RLamda= 0.00000000D+00 Sum=-1.64231070D-03.
 Iter=   2 RLamda=-1.64231070D-03 Sum=-1.56449396D-03.
 Iter=   3 RLamda=-1.56449396D-03 Sum=-1.56789993D-03.
 Iter=   4 RLamda=-1.56789993D-03 Sum=-1.56775032D-03.
 Iter=   5 RLamda=-1.56775032D-03 Sum=-1.56775689D-03.
 RFO step:  Lambda0=2.300010000D-03 Lambda=-1.56775032D-03.
 Linear search not attempted -- option 19 set.
 Maximum step size (   0.100) exceeded in Quadratic search.
    -- Step size scaled by   0.337
 Iteration  1 RMS(Cart)=  0.03563714 RMS(Int)=  0.00162843
 Iteration  2 RMS(Cart)=  0.00135212 RMS(Int)=  0.00000201
 Iteration  3 RMS(Cart)=  0.00000164 RMS(Int)=  0.00000000
 Iteration  4 RMS(Cart)=  0.00000000 RMS(Int)=  0.00000000
 ITry= 1 IFail=0 DXMaxC= 4.35D-02 DCOld= 1.00D+10 DXMaxT= 1.00D-01 DXLimC= 3.00D+00 Rises=F
 ClnCor:  largest displacement from symmetrization is 3.85D-02 for atom     3.
 Variable       Old X    -DE/DX   Delta X   Delta X   Delta X     New X
                                 (Linear)    (Quad)   (Total)
    R1        2.53450   0.00531   0.00000   0.00727   0.00719   2.54168
    R2        2.71460   0.01047   0.00000   0.02826   0.02766   2.74226
    R3        2.16229  -0.00490   0.00000  -0.03895  -0.03980   2.12249
    A1        1.59173   0.00002   0.00000  -0.00114  -0.00097   1.59076
    A2        3.05490   0.00007   0.00000   0.05128   0.05215   3.10705
    A3        3.14159  -0.00000   0.00000  -0.07071   0.00000   3.14159
         Item               Value     Threshold  Converged?
 Maximum Force            0.010466     0.000450     NO 
 RMS     Force            0.005192     0.000300     NO 
 Maximum Displacement     0.043515     0.001800     NO 
 RMS     Displacement     0.030004     0.001200     NO 
 Predicted change in Energy=-4.420282D-04
 Lowest energy point so far.  Saving SCF results.
 Largest change from initial coordinates is atom    3       0.041 Angstoms.
 GradGradGradGradGradGradGradGradGradGradGradGradGradGradGradGradGradGrad

 Leave Link  103 at Wed Oct  7 13:08:24 2020, MaxMem=  2684354560 cpu:               3.3 elap:               0.8
 (Enter /udrive/faculty/rpeverati/g16/g16/l202.exe)
                          Input orientation:                          
 ---------------------------------------------------------------------
 Center     Atomic      Atomic             Coordinates (Angstroms)
 Number     Number       Type             X           Y           Z
 ---------------------------------------------------------------------
      1          1           0        1.277223   -0.188924    0.000000
      2         16           0       -0.003851    0.220805    0.000000
      3          1           0       -0.473423   -1.152264    0.000000
      4          1           0       -0.799950   -2.226925    0.000000
 ---------------------------------------------------------------------
                    Distance matrix (angstroms):
                    1          2          3          4
     1  H    0.000000
     2  S    1.345001   0.000000
     3  H    1.998196   1.451143   0.000000
     4  H    2.910000   2.573939   1.123173   0.000000
 Stoichiometry    H3S(2)
 Framework group  CS[SG(H3S)]
 Deg. of freedom     5
 Full point group                 CS      NOp   2
 RotChk:  IX=0 Diff= 3.20D-03
 Largest Abelian subgroup         CS      NOp   2
 Largest concise Abelian subgroup C1      NOp   1
                         Standard orientation:                         
 ---------------------------------------------------------------------
 Center     Atomic      Atomic             Coordinates (Angstroms)
 Number     Number       Type             X           Y           Z
 ---------------------------------------------------------------------
      1          1           0        1.279574   -0.191730    0.000000
      2         16           0        0.000000    0.222661    0.000000
      3          1           0       -0.474568   -1.148689    0.000000
      4          1           0       -0.805006   -2.222155    0.000000
 ---------------------------------------------------------------------
 Rotational constants (GHZ):         286.0087262          60.6259716          50.0225656
 Leave Link  202 at Wed Oct  7 13:08:25 2020, MaxMem=  2684354560 cpu:               1.6 elap:               0.8
 (Enter /udrive/faculty/rpeverati/g16/g16/l301.exe)
 Standard basis: 6-31G(d) (5D, 7F)
 Ernie: Thresh=  0.10000D-02 Tol=  0.10000D-05 Strict=F.
 There are    20 symmetry adapted cartesian basis functions of A'  symmetry.
 There are     5 symmetry adapted cartesian basis functions of A"  symmetry.
 There are    19 symmetry adapted basis functions of A'  symmetry.
 There are     5 symmetry adapted basis functions of A"  symmetry.
    24 basis functions,    64 primitive gaussians,    25 cartesian basis functions
    10 alpha electrons        9 beta electrons
       nuclear repulsion energy        16.3369023200 Hartrees.
 IExCor= 2523 DFT=T Ex=TPSS Corr=TPSS ExCW=0 ScaHFX=  0.000000
 ScaDFX=  1.000000  1.000000  1.000000  1.000000 ScalE2=  1.000000  1.000000
 IRadAn=      5 IRanWt=     -1 IRanGd=            0 ICorTp=0 IEmpDi=141
 NAtoms=    4 NActive=    4 NUniq=    4 SFac= 1.00D+00 NAtFMM=   60 NAOKFM=F Big=F
 Integral buffers will be    131072 words long.
 Raffenetti 2 integral format.
 Two-electron integral symmetry is turned on.
 R6Disp:  Grimme-D3(BJ) Dispersion energy=       -0.0018535218 Hartrees.
 Nuclear repulsion after empirical dispersion term =       16.3350487981 Hartrees.
 Leave Link  301 at Wed Oct  7 13:08:26 2020, MaxMem=  2684354560 cpu:               3.4 elap:               0.7
 (Enter /udrive/faculty/rpeverati/g16/g16/l302.exe)
 NPDir=0 NMtPBC=     1 NCelOv=     1 NCel=       1 NClECP=     1 NCelD=      1
         NCelK=      1 NCelE2=     1 NClLst=     1 CellRange=     0.0.
 One-electron integrals computed using PRISM.
 One-electron integral symmetry used in STVInt
 NBasis=    24 RedAO= T EigKep=  2.33D-02  NBF=    19     5
 NBsUse=    24 1.00D-06 EigRej= -1.00D+00 NBFU=    19     5
 Precomputing XC quadrature grid using
 IXCGrd= 4 IRadAn=           5 IRanWt=          -1 IRanGd=           0 AccXCQ= 0.00D+00.
 Generated NRdTot=       0 NPtTot=           0 NUsed=           0 NTot=          32
 NSgBfM=    25    25    25    25    25 MxSgAt=     4 MxSgA2=     4.
 Leave Link  302 at Wed Oct  7 13:08:27 2020, MaxMem=  2684354560 cpu:               4.0 elap:               0.8
 (Enter /udrive/faculty/rpeverati/g16/g16/l303.exe)
 DipDrv:  MaxL=1.
 Leave Link  303 at Wed Oct  7 13:08:28 2020, MaxMem=  2684354560 cpu:               1.8 elap:               0.7
 (Enter /udrive/faculty/rpeverati/g16/g16/l401.exe)
 Initial guess from the checkpoint file:  "MN_90_RKT16_BH76_TPSSDBJ_631Gs.chk"
 SCF N**3 symmetry information disabled.
 B after Tr=     0.000000   -0.000000    0.000000
         Rot=    1.000000    0.000000    0.000000    0.000713 Ang=   0.08 deg.
 Guess basis will be translated and rotated to current coordinates.
 JPrj=2 DoOrth=T DoCkMO=T.
 Initial guess orbital symmetries:
 Alpha Orbitals:
       Occupied  (A') (A') (A') (A') (A") (A') (A') (A') (A') (A")
       Virtual   (A') (A') (A') (A') (A') (A") (A') (A') (A") (A')
                 (A") (A') (A') (A')
 Beta  Orbitals:
       Occupied  (A') (A') (A') (A') (A") (A') (A') (A') (A")
       Virtual   (A') (A') (A') (A') (A') (A") (A') (A') (A') (A")
                 (A") (A') (A') (A') (A')
 The electronic state of the initial guess is 2-A'.
 Initial guess <Sx>= 0.0000 <Sy>= 0.0000 <Sz>= 0.5000 <S**2>= 0.7574 S= 0.5037
 Generating alternative initial guess.
 ExpMin= 1.17D-01 ExpMax= 2.19D+04 ExpMxC= 3.30D+03 IAcc=2 IRadAn=         4 AccDes= 0.00D+00
 Harris functional with IExCor= 1009 and IRadAn=       4 diagonalized for initial guess.
 HarFok:  IExCor= 1009 AccDes= 0.00D+00 IRadAn=         4 IDoV= 1 UseB2=F ITyADJ=14
 ICtDFT=  3500011 ScaDFX=  1.000000  1.000000  1.000000  1.000000
 FoFCou: FMM=F IPFlag=           0 FMFlag=      100000 FMFlg1=           0
         NFxFlg=           0 DoJE=T BraDBF=F KetDBF=T FulRan=T
         wScrn=  0.000000 ICntrl=       500 IOpCl=  0 I1Cent=   200000004 NGrid=           0
         NMat0=    1 NMatS0=      1 NMatT0=    0 NMatD0=    1 NMtDS0=    0 NMtDT0=    0
 Petite list used in FoFCou.
 Harris En= -399.624705004052    
 Leave Link  401 at Wed Oct  7 13:08:30 2020, MaxMem=  2684354560 cpu:               5.2 elap:               0.8
 (Enter /udrive/faculty/rpeverati/g16/g16/l502.exe)
 Keep J ints in memory in symmetry-blocked form, NReq=10400129.
 FoFCou: FMM=F IPFlag=           0 FMFlag=           0 FMFlg1=           0
         NFxFlg=           0 DoJE=F BraDBF=F KetDBF=F FulRan=T
         wScrn=  0.000000 ICntrl=       600 IOpCl=  0 I1Cent=           0 NGrid=           0
         NMat0=    1 NMatS0=    300 NMatT0=    0 NMatD0=    1 NMtDS0=    0 NMtDT0=    0
 Petite list used in FoFCou.
 UHF open shell SCF:
 Using DIIS extrapolation, IDIIS=  1040.
 NGot=  2684354560 LenX=  2684325898 LenY=  2684324832
 Requested convergence on RMS density matrix=1.00D-08 within 120 cycles.
 Requested convergence on MAX density matrix=1.00D-06.
 Requested convergence on             energy=1.00D-06.
 No special actions if energy rises.
 Integral accuracy reduced to 1.0D-05 until final iterations.

 Cycle   1  Pass 0  IDiag  1:
 E= -399.893705978023    
 DIIS: error= 1.39D-03 at cycle   1 NSaved=   1.
 NSaved= 1 IEnMin= 1 EnMin= -399.893705978023     IErMin= 1 ErrMin= 1.39D-03
 ErrMax= 1.39D-03  0.00D+00 EMaxC= 1.00D-01 BMatC= 2.41D-04 BMatP= 2.41D-04
 IDIUse=3 WtCom= 9.86D-01 WtEn= 1.39D-02
 Coeff-Com:  0.100D+01
 Coeff-En:   0.100D+01
 Coeff:      0.100D+01
 Gap=     0.235 Goal=   None    Shift=    0.000
 Gap=     0.066 Goal=   None    Shift=    0.000
 GapD=    0.066 DampG=0.500 DampE=1.000 DampFc=0.5000 IDamp=-1.
 Damping current iteration by 5.00D-01
 RMSDP=8.46D-04 MaxDP=8.01D-03              OVMax= 1.08D-02

 Cycle   2  Pass 0  IDiag  1:
 E= -399.893782019025     Delta-E=       -0.000076041001 Rises=F Damp=T
 DIIS: error= 1.01D-03 at cycle   2 NSaved=   2.
 NSaved= 2 IEnMin= 2 EnMin= -399.893782019025     IErMin= 2 ErrMin= 1.01D-03
 ErrMax= 1.01D-03  0.00D+00 EMaxC= 1.00D-01 BMatC= 6.33D-05 BMatP= 2.41D-04
 IDIUse=3 WtCom= 9.90D-01 WtEn= 1.01D-02
 Coeff-Com: -0.740D+00 0.174D+01
 Coeff-En:   0.000D+00 0.100D+01
 Coeff:     -0.733D+00 0.173D+01
 Gap=     0.236 Goal=   None    Shift=    0.000
 Gap=     0.068 Goal=   None    Shift=    0.000
 RMSDP=5.81D-04 MaxDP=5.50D-03 DE=-7.60D-05 OVMax= 3.76D-03

 Cycle   3  Pass 0  IDiag  1:
 E= -399.893855355274     Delta-E=       -0.000073336249 Rises=F Damp=F
 DIIS: error= 3.81D-04 at cycle   3 NSaved=   3.
 NSaved= 3 IEnMin= 3 EnMin= -399.893855355274     IErMin= 3 ErrMin= 3.81D-04
 ErrMax= 3.81D-04  0.00D+00 EMaxC= 1.00D-01 BMatC= 2.34D-05 BMatP= 6.33D-05
 IDIUse=3 WtCom= 9.96D-01 WtEn= 3.81D-03
 Coeff-Com: -0.486D+00 0.950D+00 0.536D+00
 Coeff-En:   0.000D+00 0.000D+00 0.100D+01
 Coeff:     -0.484D+00 0.946D+00 0.538D+00
 Gap=     0.236 Goal=   None    Shift=    0.000
 Gap=     0.067 Goal=   None    Shift=    0.000
 RMSDP=1.92D-04 MaxDP=1.85D-03 DE=-7.33D-05 OVMax= 2.33D-03

 Cycle   4  Pass 0  IDiag  1:
 E= -399.893865117451     Delta-E=       -0.000009762178 Rises=F Damp=F
 DIIS: error= 7.53D-05 at cycle   4 NSaved=   4.
 NSaved= 4 IEnMin= 4 EnMin= -399.893865117451     IErMin= 4 ErrMin= 7.53D-05
 ErrMax= 7.53D-05  0.00D+00 EMaxC= 1.00D-01 BMatC= 6.91D-07 BMatP= 2.34D-05
 IDIUse=1 WtCom= 1.00D+00 WtEn= 0.00D+00
 Coeff-Com: -0.122D+00 0.221D+00 0.200D+00 0.701D+00
 Coeff:     -0.122D+00 0.221D+00 0.200D+00 0.701D+00
 Gap=     0.236 Goal=   None    Shift=    0.000
 Gap=     0.067 Goal=   None    Shift=    0.000
 RMSDP=3.48D-05 MaxDP=2.84D-04 DE=-9.76D-06 OVMax= 3.02D-04

 Cycle   5  Pass 0  IDiag  1:
 E= -399.893865387586     Delta-E=       -0.000000270135 Rises=F Damp=F
 DIIS: error= 1.92D-05 at cycle   5 NSaved=   5.
 NSaved= 5 IEnMin= 5 EnMin= -399.893865387586     IErMin= 5 ErrMin= 1.92D-05
 ErrMax= 1.92D-05  0.00D+00 EMaxC= 1.00D-01 BMatC= 4.42D-08 BMatP= 6.91D-07
 IDIUse=1 WtCom= 1.00D+00 WtEn= 0.00D+00
 Coeff-Com:  0.569D-01-0.112D+00-0.351D-01 0.118D+00 0.972D+00
 Coeff:      0.569D-01-0.112D+00-0.351D-01 0.118D+00 0.972D+00
 Gap=     0.236 Goal=   None    Shift=    0.000
 Gap=     0.067 Goal=   None    Shift=    0.000
 RMSDP=1.26D-05 MaxDP=1.07D-04 DE=-2.70D-07 OVMax= 1.31D-04

 Cycle   6  Pass 0  IDiag  1:
 E= -399.893865412162     Delta-E=       -0.000000024576 Rises=F Damp=F
 DIIS: error= 5.61D-06 at cycle   6 NSaved=   6.
 NSaved= 6 IEnMin= 6 EnMin= -399.893865412162     IErMin= 6 ErrMin= 5.61D-06
 ErrMax= 5.61D-06  0.00D+00 EMaxC= 1.00D-01 BMatC= 2.39D-09 BMatP= 4.42D-08
 IDIUse=1 WtCom= 1.00D+00 WtEn= 0.00D+00
 Coeff-Com:  0.178D-01-0.334D-01-0.153D-01-0.298D-01 0.167D+00 0.893D+00
 Coeff:      0.178D-01-0.334D-01-0.153D-01-0.298D-01 0.167D+00 0.893D+00
 Gap=     0.236 Goal=   None    Shift=    0.000
 Gap=     0.067 Goal=   None    Shift=    0.000
 RMSDP=2.71D-06 MaxDP=2.48D-05 DE=-2.46D-08 OVMax= 2.41D-05

 Initial convergence to 1.0D-05 achieved.  Increase integral accuracy.
 Cycle   7  Pass 1  IDiag  1:
 E= -399.893863729700     Delta-E=        0.000001682462 Rises=F Damp=F
 DIIS: error= 3.35D-06 at cycle   1 NSaved=   1.
 NSaved= 1 IEnMin= 1 EnMin= -399.893863729700     IErMin= 1 ErrMin= 3.35D-06
 ErrMax= 3.35D-06  0.00D+00 EMaxC= 1.00D-01 BMatC= 1.29D-09 BMatP= 1.29D-09
 IDIUse=1 WtCom= 1.00D+00 WtEn= 0.00D+00
 Coeff-Com:  0.100D+01
 Coeff:      0.100D+01
 Gap=     0.236 Goal=   None    Shift=    0.000
 Gap=     0.067 Goal=   None    Shift=    0.000
 RMSDP=2.71D-06 MaxDP=2.48D-05 DE= 1.68D-06 OVMax= 1.69D-05

 Cycle   8  Pass 1  IDiag  1:
 E= -399.893863730163     Delta-E=       -0.000000000464 Rises=F Damp=F
 DIIS: error= 7.02D-07 at cycle   2 NSaved=   2.
 NSaved= 2 IEnMin= 2 EnMin= -399.893863730163     IErMin= 2 ErrMin= 7.02D-07
 ErrMax= 7.02D-07  0.00D+00 EMaxC= 1.00D-01 BMatC= 8.23D-11 BMatP= 1.29D-09
 IDIUse=1 WtCom= 1.00D+00 WtEn= 0.00D+00
 Coeff-Com:  0.622D-01 0.938D+00
 Coeff:      0.622D-01 0.938D+00
 Gap=     0.236 Goal=   None    Shift=    0.000
 Gap=     0.067 Goal=   None    Shift=    0.000
 RMSDP=7.00D-07 MaxDP=6.43D-06 DE=-4.64D-10 OVMax= 5.42D-06

 Cycle   9  Pass 1  IDiag  1:
 E= -399.893863730161     Delta-E=        0.000000000002 Rises=F Damp=F
 DIIS: error= 7.23D-07 at cycle   3 NSaved=   3.
 NSaved= 3 IEnMin= 2 EnMin= -399.893863730163     IErMin= 2 ErrMin= 7.02D-07
 ErrMax= 7.23D-07  0.00D+00 EMaxC= 1.00D-01 BMatC= 9.47D-11 BMatP= 8.23D-11
 IDIUse=1 WtCom= 1.00D+00 WtEn= 0.00D+00
 Coeff-Com: -0.273D-01 0.525D+00 0.502D+00
 Coeff:     -0.273D-01 0.525D+00 0.502D+00
 Gap=     0.236 Goal=   None    Shift=    0.000
 Gap=     0.067 Goal=   None    Shift=    0.000
 RMSDP=3.85D-07 MaxDP=3.41D-06 DE= 2.33D-12 OVMax= 4.30D-06

 Cycle  10  Pass 1  IDiag  1:
 E= -399.893863730199     Delta-E=       -0.000000000038 Rises=F Damp=F
 DIIS: error= 1.26D-07 at cycle   4 NSaved=   4.
 NSaved= 4 IEnMin= 4 EnMin= -399.893863730199     IErMin= 4 ErrMin= 1.26D-07
 ErrMax= 1.26D-07  0.00D+00 EMaxC= 1.00D-01 BMatC= 1.43D-12 BMatP= 8.23D-11
 IDIUse=1 WtCom= 1.00D+00 WtEn= 0.00D+00
 Coeff-Com: -0.465D-02-0.851D-01 0.252D-01 0.106D+01
 Coeff:     -0.465D-02-0.851D-01 0.252D-01 0.106D+01
 Gap=     0.236 Goal=   None    Shift=    0.000
 Gap=     0.067 Goal=   None    Shift=    0.000
 RMSDP=7.15D-08 MaxDP=8.25D-07 DE=-3.85D-11 OVMax= 6.02D-07

 Cycle  11  Pass 1  IDiag  1:
 E= -399.893863730200     Delta-E=       -0.000000000000 Rises=F Damp=F
 DIIS: error= 3.51D-08 at cycle   5 NSaved=   5.
 NSaved= 5 IEnMin= 5 EnMin= -399.893863730200     IErMin= 5 ErrMin= 3.51D-08
 ErrMax= 3.51D-08  0.00D+00 EMaxC= 1.00D-01 BMatC= 1.92D-13 BMatP= 1.43D-12
 IDIUse=1 WtCom= 1.00D+00 WtEn= 0.00D+00
 Coeff-Com:  0.549D-04-0.751D-01-0.347D-01 0.377D+00 0.733D+00
 Coeff:      0.549D-04-0.751D-01-0.347D-01 0.377D+00 0.733D+00
 Gap=     0.236 Goal=   None    Shift=    0.000
 Gap=     0.067 Goal=   None    Shift=    0.000
 RMSDP=1.65D-08 MaxDP=1.37D-07 DE=-1.71D-13 OVMax= 1.75D-07

 Cycle  12  Pass 1  IDiag  1:
 E= -399.893863730200     Delta-E=        0.000000000000 Rises=F Damp=F
 DIIS: error= 1.10D-08 at cycle   6 NSaved=   6.
 NSaved= 6 IEnMin= 5 EnMin= -399.893863730200     IErMin= 6 ErrMin= 1.10D-08
 ErrMax= 1.10D-08  0.00D+00 EMaxC= 1.00D-01 BMatC= 8.12D-15 BMatP= 1.92D-13
 IDIUse=1 WtCom= 1.00D+00 WtEn= 0.00D+00
 Coeff-Com:  0.379D-03-0.116D-01-0.111D-01 0.107D-01 0.170D+00 0.842D+00
 Coeff:      0.379D-03-0.116D-01-0.111D-01 0.107D-01 0.170D+00 0.842D+00
 Gap=     0.236 Goal=   None    Shift=    0.000
 Gap=     0.067 Goal=   None    Shift=    0.000
 RMSDP=3.80D-09 MaxDP=2.98D-08 DE= 5.68D-14 OVMax= 3.91D-08

 SCF Done:  E(UTPSS-TPSS) =  -399.893863730     A.U. after   12 cycles
            NFock= 12  Conv=0.38D-08     -V/T= 2.0018
 <Sx>= 0.0000 <Sy>= 0.0000 <Sz>= 0.5000 <S**2>= 0.7580 S= 0.5040
 <L.S>= 0.000000000000E+00
 KE= 3.991663037341D+02 PE=-9.831650222170D+02 EE= 1.677698059546D+02
 Annihilation of the first spin contaminant:
 S**2 before annihilation     0.7580,   after     0.7500
 Leave Link  502 at Wed Oct  7 13:08:32 2020, MaxMem=  2684354560 cpu:              16.9 elap:               1.8
 (Enter /udrive/faculty/rpeverati/g16/g16/l508.exe)
 QCSCF skips out because SCF is already converged.
 Leave Link  508 at Wed Oct  7 13:08:33 2020, MaxMem=  2684354560 cpu:               0.6 elap:               0.6
 (Enter /udrive/faculty/rpeverati/g16/g16/l701.exe)
 ... and contract with generalized density number  0.
 Compute integral first derivatives.
 R6Disp: Adding Grimme-D3(BJ) dispersion energy 1st derivatives to the gradient.
 Leave Link  701 at Wed Oct  7 13:08:33 2020, MaxMem=  2684354560 cpu:               3.3 elap:               0.7
 (Enter /udrive/faculty/rpeverati/g16/g16/l702.exe)
 L702 exits ... SP integral derivatives will be done elsewhere.
 Leave Link  702 at Wed Oct  7 13:08:34 2020, MaxMem=  2684354560 cpu:               2.2 elap:               0.6
 (Enter /udrive/faculty/rpeverati/g16/g16/l703.exe)
 Integral derivatives from FoFJK, PRISM(SPDF).
 Compute integral first derivatives, UseDBF=F ICtDFT=           0.
 Calling FoFJK, ICntrl=      2527 FMM=F ISym2X=1 I1Cent= 0 IOpClX= 0 NMat=1 NMatS=1 NMatT=0.
 FoFJK:  IHMeth= 1 ICntrl=    2527 DoSepK=F KAlg= 0 I1Cent=           0 FoldK=F
 IRaf=         0 NMat=       1 IRICut=       1 DoRegI=T DoRafI=F ISym2E= 1 IDoP0=0 IntGTp=1.
 FoFCou: FMM=F IPFlag=           0 FMFlag=      100000 FMFlg1=         800
         NFxFlg=           0 DoJE=F BraDBF=F KetDBF=F FulRan=T
         wScrn=  0.000000 ICntrl=      2527 IOpCl=  0 I1Cent=           0 NGrid=           0
         NMat0=    1 NMatS0=      1 NMatT0=    0 NMatD0=    1 NMtDS0=    0 NMtDT0=    0
 Petite list used in FoFCou.
 Leave Link  703 at Wed Oct  7 13:08:36 2020, MaxMem=  2684354560 cpu:               6.9 elap:               1.1
 (Enter /udrive/faculty/rpeverati/g16/g16/l716.exe)
 Dipole        = 2.83779884D-01-4.28076629D-01 0.00000000D+00
 ***** Axes restored to original set *****
 -------------------------------------------------------------------
 Center     Atomic                   Forces (Hartrees/Bohr)
 Number     Number              X              Y              Z
 -------------------------------------------------------------------
      1        1           0.003247777   -0.001130534   -0.000000000
      2       16          -0.000016634    0.009567411   -0.000000000
      3        1          -0.005555212   -0.014285674   -0.000000000
      4        1           0.002324069    0.005848797   -0.000000000
 -------------------------------------------------------------------
 Cartesian Forces:  Max     0.014285674 RMS     0.005611836
 Leave Link  716 at Wed Oct  7 13:08:37 2020, MaxMem=  2684354560 cpu:               1.8 elap:               0.7
 (Enter /udrive/faculty/rpeverati/g16/g16/l103.exe)

 GradGradGradGradGradGradGradGradGradGradGradGradGradGradGradGradGradGrad
 Berny optimization.
 Optmz: redundant internal coordinate code flag= 1
 Red2BG:  D1=  2.05D-01 OD1=  1.56D-02 B2RMS=  0.00D+00 IAprox=0
 FormGI is forming the generalized inverse of G from B-inverse, IUseBI=4.
 Internal  Forces:  Max     0.009029016 RMS     0.004725052
 Search for a saddle point.
 Step number   3 out of a maximum of   50
 All quantities printed in internal units (Hartrees-Bohrs-Radians)
 Swapping is turned off.
 Update second derivatives using D2CorX and points    1    2    3
 The second derivative matrix:
                          R1        R2        R3        A1        A2
           R1           0.26696
           R2          -0.00491   0.16858
           R3           0.00845   0.04704   0.06307
           A1           0.00076   0.00194  -0.00192   0.16005
           A2           0.00817  -0.02525   0.04829   0.00505   0.07198
           A3           0.00000  -0.00000   0.00000   0.00000   0.00000
                          A3
           A3           0.00230
 ITU=  0  0  0
 Eigenvectors of the second derivative matrix:
                           1         2         3         4         5
     Eigenvalues --     0.00230   0.00253   0.11287   0.16031   0.18690
   1         R1         0.00000  -0.00986  -0.07890  -0.01283   0.02854
   2         R2         0.00000  -0.30042  -0.15619  -0.02903   0.93952
   3         R3        -0.00000   0.72732   0.59790  -0.00420   0.33388
   4         A1        -0.00000   0.03238  -0.05143   0.99757   0.03300
[...]
 Red. masses --      1.0399                 1.0351                 1.0401
 Frc consts  --      0.9267                 4.3123                 4.3912
 IR Inten    --      0.0714                17.8535                12.5227
  Atom  AN      X      Y      Z        X      Y      Z        X      Y      Z
     1   1     0.48   0.51  -0.00    -0.52   0.46   0.00     0.52  -0.49  -0.00
     2  16     0.00  -0.03   0.00    -0.00  -0.03  -0.00    -0.03   0.00   0.00
     3   1    -0.48   0.51  -0.00     0.54   0.48   0.00     0.51   0.48  -0.00
     4   1     0.00  -0.01   0.00    -0.00   0.00  -0.00    -0.01  -0.00   0.00

 -------------------
 - Thermochemistry -
 -------------------
 Temperature   298.150 Kelvin.  Pressure   1.00000 Atm.
 Atom     1 has atomic number  1 and mass   1.00783
 Atom     2 has atomic number 16 and mass  31.97207
 Atom     3 has atomic number  1 and mass   1.00783
 Atom     4 has atomic number  1 and mass   1.00783
 Molecular mass:    34.99555 amu.
 Principal axes and moments of inertia in atomic units:
                           1         2         3
     Eigenvalues --     6.86872  36.41394  43.28266
           X            0.00021   1.00000   0.00000
           Y            1.00000  -0.00021   0.00000
           Z            0.00000   0.00000   1.00000
 This molecule is an asymmetric top.
 Rotational symmetry number  1.
 Rotational temperatures (Kelvin)     12.60990     2.37859     2.00112
 Rotational constants (GHZ):         262.74767    49.56183    41.69663
    2 imaginary frequencies ignored.
 Zero-point vibrational energy      40990.1 (Joules/Mol)
                                    9.79687 (Kcal/Mol)
 Warning -- explicit consideration of   1 degrees of freedom as
           vibrations may cause significant error
 Vibrational temperatures:    413.13  1769.50  3825.97  3851.37
          (Kelvin)
 
 Zero-point correction=                           0.015612 (Hartree/Particle)
 Thermal correction to Energy=                    0.018896
 Thermal correction to Enthalpy=                  0.019840
 Thermal correction to Gibbs Free Energy=        -0.007017
 Sum of electronic and zero-point Energies=           -399.871126
 Sum of electronic and thermal Energies=              -399.867842
 Sum of electronic and thermal Enthalpies=            -399.866898
 Sum of electronic and thermal Free Energies=         -399.893756
 
                     E (Thermal)             CV                S
                      KCal/Mol        Cal/Mol-Kelvin    Cal/Mol-Kelvin
 Total                   11.858              7.847             56.526
 Electronic               0.000              0.000              1.377
 Translational            0.889              2.981             36.588
 Rotational               0.889              2.981             17.033
 Vibrational             10.080              1.885              1.527
 Vibration     1          0.684              1.698              1.491
                       Q            Log10(Q)             Ln(Q)
 Total Bot       0.168891D+04          3.227607          7.431839
 Total V=0       0.256309D+11         10.408765         23.967066
 Vib (Bot)       0.881109D-07         -7.054971        -16.244670
 Vib (Bot)    1  0.667034D+00         -0.175852         -0.404914
 Vib (V=0)       0.133717D+01          0.126187          0.290557
 Vib (V=0)    1  0.133363D+01          0.125035          0.287903
 Electronic      0.200000D+01          0.301030          0.693147
 Translational   0.813716D+07          6.910473         15.911952
 Rotational      0.117781D+04          3.071074          7.071410
 
                                                          TS search on BH76.
                                                             IR Spectrum
 
     22                                                                   1                                                          
     66                                                                   2                                            2             
     75                                                                   3                                            8             
     79                                                                   0                                            7             
 
     XX                                                                   X                                            X             
     XX                                                                                                                X             
     XX                                                                                                                X             
     XX                                                                                                                X             
     XX                                                                                                                X             
     XX                                                                                                                X             
     XX                                                                                                                X             
     XX                                                                                                                X             
     XX                                                                                                                X             
     XX                                                                                                                X             
     XX                                                                                                                X             
     XX                                                                                                                X             
     XX                                                                                                                              
     XX                                                                                                                              
      X                                                                                                                              
      X                                                                                                                              
      X                                                                                                                              
      X                                                                                                                              
      X                                                                                                                              
      X                                                                                                                              
 
 ***** Axes restored to original set *****
 -------------------------------------------------------------------
 Center     Atomic                   Forces (Hartrees/Bohr)
 Number     Number              X              Y              Z
 -------------------------------------------------------------------
      1        1           0.000010163   -0.000013387   -0.000000000
      2       16          -0.000023198    0.000009085   -0.000000000
      3        1           0.000014941    0.000006839   -0.000000000
      4        1          -0.000001905   -0.000002537   -0.000000000
 -------------------------------------------------------------------
 Cartesian Forces:  Max     0.000023198 RMS     0.000009930
 Force constants in Cartesian coordinates: 
                1             2             3             4             5 
      1  0.110531D+00
      2 -0.112709D+00  0.180381D+00
      3  0.000000D+00  0.000000D+00 -0.280280D-02
      4 -0.948079D-01  0.121315D+00  0.000000D+00  0.278872D+00
      5  0.929155D-01 -0.190196D+00  0.000000D+00  0.287509D-02  0.292950D+00
      6  0.000000D+00  0.000000D+00  0.387718D-02  0.000000D+00  0.000000D+00
      7 -0.154042D-01 -0.978311D-02  0.000000D+00 -0.185195D+00 -0.949171D-01
      8  0.203406D-01  0.984007D-02  0.000000D+00 -0.123308D+00 -0.996956D-01
      9  0.000000D+00  0.000000D+00 -0.286440D-02  0.000000D+00  0.000000D+00
     10 -0.319434D-03  0.117752D-02  0.000000D+00  0.113108D-02 -0.873437D-03
     11 -0.547088D-03 -0.258545D-04  0.000000D+00 -0.881824D-03 -0.305838D-02
     12  0.000000D+00  0.000000D+00  0.179003D-02  0.000000D+00  0.000000D+00
                6             7             8             9            10 
      6 -0.527290D-02
      7  0.000000D+00  0.201100D+00
      8  0.000000D+00  0.103951D+00  0.896941D-01
      9  0.386700D-02  0.000000D+00  0.000000D+00 -0.279336D-02
     10  0.000000D+00 -0.501523D-03 -0.983262D-03  0.000000D+00 -0.310125D-03
     11  0.000000D+00  0.749737D-03  0.161486D-03  0.000000D+00  0.679176D-03
     12 -0.247128D-02  0.000000D+00  0.000000D+00  0.179077D-02  0.000000D+00
               11            12 
     11  0.292275D-02
     12  0.000000D+00 -0.110951D-02
 FormGI is forming the generalized inverse of G from B-inverse, IUseBI=4.
 Force constants in internal coordinates: 
                1             2             3             4             5 
      1  0.263364D+00
      2 -0.125483D-03  0.263551D+00
      3 -0.216078D-04  0.299912D-02  0.242853D-02
      4  0.153090D-01  0.862895D-02  0.136399D-02  0.180008D+00
      5  0.541981D-02 -0.806133D-03  0.580532D-02 -0.287073D-02  0.403324D-02
      6  0.000000D+00  0.000000D+00  0.000000D+00  0.000000D+00  0.000000D+00
                6 
      6 -0.167020D-01
 Leave Link  716 at Wed Oct  7 13:17:30 2020, MaxMem=  2684354560 cpu:               2.6 elap:               0.8
 (Enter /udrive/faculty/rpeverati/g16/g16/l103.exe)

 GradGradGradGradGradGradGradGradGradGradGradGradGradGradGradGradGradGrad
 Berny optimization.
 Optmz: redundant internal coordinate code flag= 1
 Red2BG:  D1=  9.67D-02 OD1=  1.03D-15 B2RMS=  0.00D+00 IAprox=1
 Red2BG is reusing G-inverse.
 Internal  Forces:  Max     0.000016767 RMS     0.000009785
 Search for a local minimum.
 Step number   1 out of a maximum of    2
 All quantities printed in internal units (Hartrees-Bohrs-Radians)
 Second derivative matrix not updated -- analytic derivatives used.
 The second derivative matrix:
                          R1        R2        R3        A1        A2
           R1           0.26336
           R2          -0.00013   0.26355
           R3          -0.00002   0.00300   0.00243
           A1           0.01531   0.00863   0.00136   0.18001
           A2           0.00542  -0.00081   0.00581  -0.00287   0.00403
           A3          -0.00000   0.00000   0.00000  -0.00000   0.00000
                          A3
           A3          -0.01670
 ITU=  0
 Eigenvectors of the second derivative matrix:
                           1         2         3         4         5
     Eigenvalues --    -0.01670  -0.00276   0.00900   0.17654   0.26368
   1         R1         0.00000   0.01448  -0.01647  -0.17162  -0.48691
   2         R2        -0.00000  -0.00990  -0.00573  -0.09781   0.87330
   3         R3        -0.00000   0.75003   0.66128   0.00531   0.00979
   4         A1         0.00000  -0.01672   0.00908   0.98005   0.00157
   5         A2        -0.00000  -0.66096   0.74988  -0.02107  -0.01267
   6         A3         1.00000  -0.00000   0.00000  -0.00000   0.00000
                           6
     Eigenvalues --     0.26692
   1         R1        -0.85615
   2         R2        -0.47712
   3         R3        -0.00667
   4         A1        -0.19781
   5         A2        -0.01417
   6         A3         0.00000
 Eigenvalue     1 is  -1.67D-02 should be greater than     0.000000 Eigenvector:
                          A3        A2        R3        A1        R1
   1                    1.00000  -0.00000  -0.00000   0.00000   0.00000
                          R2
   1                   -0.00000
 Eigenvalue     2 is  -2.76D-03 should be greater than     0.000000 Eigenvector:
                          R3        A2        A1        R1        R2
   1                    0.75003  -0.66096  -0.01672   0.01448  -0.00990
                          A3
   1                   -0.00000
 Angle between quadratic step and forces=  66.49 degrees.
 Linear search not attempted -- first point.
 Iteration  1 RMS(Cart)=  0.00201988 RMS(Int)=  0.00000114
 Iteration  2 RMS(Cart)=  0.00000107 RMS(Int)=  0.00000000
 Iteration  3 RMS(Cart)=  0.00000000 RMS(Int)=  0.00000000
 ITry= 1 IFail=0 DXMaxC= 2.62D-03 DCOld= 1.00D+10 DXMaxT= 3.00D-01 DXLimC= 3.00D+00 Rises=F
 ClnCor:  largest displacement from symmetrization is 2.00D-10 for atom     2.
 Variable       Old X    -DE/DX   Delta X   Delta X   Delta X     New X
                                 (Linear)    (Quad)   (Total)
    R1        2.55393   0.00002   0.00000   0.00002   0.00002   2.55395
    R2        2.55408  -0.00001   0.00000  -0.00004  -0.00004   2.55404
    R3        4.33397   0.00000   0.00000  -0.00071  -0.00071   4.33327
    A1        1.61564   0.00000   0.00000   0.00005   0.00005   1.61569
    A2        1.89445   0.00001   0.00000   0.00195   0.00195   1.89640
    A3        3.14159   0.00000   0.00000   0.00000   0.00000   3.14159
         Item               Value     Threshold  Converged?
 Maximum Force            0.000017     0.000450     YES
 RMS     Force            0.000010     0.000300     YES
 Maximum Displacement     0.002616     0.001800     NO 
 RMS     Displacement     0.002019     0.001200     NO 
 Predicted change in Energy=-1.906239D-08
                           ----------------------------
                           ! Non-Optimized Parameters !
                           ! (Angstroms and Degrees)  !
 --------------------------                            --------------------------
 ! Name  Definition              Value          Derivative Info.                !
 --------------------------------------------------------------------------------
 ! R1    R(1,2)                  1.3515         -DE/DX =    0.0                 !
 ! R2    R(2,3)                  1.3515         -DE/DX =    0.0                 !
 ! R3    R(3,4)                  2.2931         -DE/DX =    0.0                 !
 ! A1    A(1,2,3)               92.5722         -DE/DX =    0.0                 !
 ! A2    L(2,3,4,1,-1)         108.6559         -DE/DX =    0.0                 !
 ! A3    L(2,3,4,1,-2)         180.0            -DE/DX =    0.0                 !
 --------------------------------------------------------------------------------
 GradGradGradGradGradGradGradGradGradGradGradGradGradGradGradGradGradGrad

 Leave Link  103 at Wed Oct  7 13:17:32 2020, MaxMem=  2684354560 cpu:               3.4 elap:               0.8
 (Enter /udrive/faculty/rpeverati/g16/g16/l9999.exe)

 ----------------------------------------------------------------------

 Electric dipole moment (input orientation):
 (Debye = 10**-18 statcoulomb cm , SI units = C m)
                  (au)            (Debye)         (10**-30 SI)
   Tot        0.433934D+00      0.110295D+01      0.367904D+01
   x         -0.853050D-01     -0.216824D+00     -0.723246D+00
   y         -0.425466D+00     -0.108143D+01     -0.360725D+01
   z          0.000000D+00      0.000000D+00      0.000000D+00

 Dipole polarizability, Alpha (input orientation).
 (esu units = cm**3 , SI units = C**2 m**2 J**-1)
 Alpha(0;0):
               (au)            (10**-24 esu)      (10**-40 SI)
   iso        0.179877D+02      0.266550D+01      0.296577D+01
   aniso      0.120096D+02      0.177964D+01      0.198012D+01
   xx         0.179454D+02      0.265924D+01      0.295880D+01
   yx         0.143600D+01      0.212793D+00      0.236764D+00
   yy         0.247922D+02      0.367382D+01      0.408768D+01
   zx         0.000000D+00      0.000000D+00      0.000000D+00
   zy         0.000000D+00      0.000000D+00      0.000000D+00
   zz         0.112255D+02      0.166345D+01      0.185084D+01

 ----------------------------------------------------------------------

 Dipole orientation:
     1          2.11552685         -0.42415828          1.01147503
    16          0.30595933         -0.06134414         -0.75385943
     1         -1.50441990          0.30163274          1.01082323
     1          0.30216660         -0.06058371          4.93362540

 Electric dipole moment (dipole orientation):
 (Debye = 10**-18 statcoulomb cm , SI units = C m)
                  (au)            (Debye)         (10**-30 SI)
   Tot        0.433934D+00      0.110295D+01      0.367904D+01
   x          0.000000D+00      0.000000D+00      0.000000D+00
   y          0.000000D+00      0.000000D+00      0.000000D+00
   z          0.433934D+00      0.110295D+01      0.367904D+01

 Dipole polarizability, Alpha (dipole orientation).
 (esu units = cm**3 , SI units = C**2 m**2 J**-1)
 Alpha(0;0):
               (au)            (10**-24 esu)      (10**-40 SI)
   iso        0.179877D+02      0.266550D+01      0.296577D+01
   aniso      0.120096D+02      0.177964D+01      0.198012D+01
   xx         0.174079D+02      0.257959D+01      0.287018D+01
   yx        -0.123956D+01     -0.183684D+00     -0.204376D+00
   yy         0.114740D+02      0.170028D+01      0.189182D+01
   zx        -0.519762D-02     -0.770208D-03     -0.856972D-03
   zy         0.104211D-02      0.154425D-03      0.171821D-03
   zz         0.250812D+02      0.371665D+01      0.413533D+01

 ----------------------------------------------------------------------

 Test job not archived.
 1\1\GINC-NODE51\Freq\UTPSSTPSS\6-31G(d)\H3S1(2)\RPEVERATI\07-Oct-2020\
 0\\#P Freq TPSSTPSS/6-31G* 5D 7F Integral=UltraFineGrid SCF=(NoSymm,XQ
 C,MaxCyc=120) EmpiricalDispersion=GD3BJ IOp(1/33=1) Geom=Check Guess=R
 ead\\TS search on BH76.\\0,2\H,1.0142663901,-0.7492599531,0.\S,0.24032
 9554,0.3586789678,0.\H,-0.9012591323,-0.3648497016,0.\H,-0.3533378701,
 -2.5918771141,0.\\Version=ES64L-G16RevA.03\State=2-A'\HF=-399.8867385\
 S2=0.750077\S2-1=0.\S2A=0.75\RMSD=2.156e-09\RMSF=9.930e-06\ZeroPoint=0
 .0156123\Thermal=0.0188963\Dipole=-0.085305,-0.4254662,0.\DipoleDeriv=
 0.0570622,0.0418173,0.,0.1161085,-0.1068607,0.,0.,0.,0.1927703,-0.0103
 874,0.0093919,0.,0.0093977,0.034641,0.,0.,0.,-0.3421393,-0.0236178,-0.
 0767093,0.,-0.1509847,-0.0262019,0.,0.,0.,0.1927735,-0.023057,0.025500
 1,0.,0.0254786,0.0984217,0.,0.,0.,-0.0434044\Polar=17.9454434,1.435996
 9,24.7921884,0.,0.,11.2255203\Quadrupole=1.6560627,-0.1107917,-1.54527
 1,-0.369942,0.,0.\PG=CS [SG(H3S1)]\NImag=2\\0.11053149,-0.11270899,0.1
 8038132,0.,0.,-0.00280280,-0.09480790,0.12131458,0.,0.27887162,0.09291
 547,-0.19019553,0.,0.00287509,0.29294955,0.,0.,0.00387718,0.,0.,-0.005
 27290,-0.01540415,-0.00978311,0.,-0.18519480,-0.09491712,0.,0.20110048
 ,0.02034061,0.00984007,0.,-0.12330784,-0.09969564,0.,0.10395050,0.0896
 9409,0.,0.,-0.00286440,0.,0.,0.00386700,0.,0.,-0.00279336,-0.00031943,
 0.00117752,0.,0.00113108,-0.00087344,0.,-0.00050152,-0.00098326,0.,-0.
 00031013,-0.00054709,-0.00002585,0.,-0.00088182,-0.00305838,0.,0.00074
 974,0.00016149,0.,0.00067918,0.00292275,0.,0.,0.00179003,0.,0.,-0.0024
 7128,0.,0.,0.00179077,0.,0.,-0.00110951\\-0.00001016,0.00001339,0.,0.0
 0002320,-0.00000909,0.,-0.00001494,-0.00000684,0.,0.00000190,0.0000025
 4,0.\\\@


 CHILDREN YOU ARE VERY LITTLE,
 AND YOUR BONES ARE VERY BRITTLE;
 IF YOU WOULD GROW GREAT AND STATELY
 YOU MUST TRY TO WALK SEDATELY.
 YOU MUST STILL BE BRIGHT AND QUIET,
 AND CONTENT WITH SIMPLE DIET;
 AND REMAIN, THROUGH ALL BEWILD'RING
 INNOCENT AND HONEST CHILDREN.
     -- A CHILD'S GARDEN OF VERSE,
        ROBERT LOUIS STEVENSON
 Job cpu time:       0 days  0 hours  2 minutes 12.3 seconds.
 Elapsed time:       0 days  0 hours  0 minutes 21.0 seconds.
 File lengths (MBytes):  RWF=      5 Int=      0 D2E=      0 Chk=      1 Scr=      1
 Normal termination of Gaussian 16 at Wed Oct  7 13:17:33 2020.
