 Entering Gaussian System, Link 0=g16
 Input=MN_12_c2h5_lower_BH76_M062X_631Gs.in
 Output=MN_12_c2h5_lower_BH76_M062X_631Gs.log
 Initial command:
 /udrive/faculty/rpeverati/g16/g16/l1.exe "/udrive/scratch-directories/gaussian09/rpeverati/Gau-3039.inp" -scrdir="/udrive/scratch-directories/gaussian09/rpeverati/"
 Entering Link 1 = /udrive/faculty/rpeverati/g16/g16/l1.exe PID=      3040.
  
 Copyright (c) 1988,1990,1992,1993,1995,1998,2003,2009,2016,
            Gaussian, Inc.  All Rights Reserved.
  
 This is part of the Gaussian(R) 16 program.  It is based on
 the Gaussian(R) 09 system (copyright 2009, Gaussian, Inc.),
 the Gaussian(R) 03 system (copyright 2003, Gaussian, Inc.),
 the Gaussian(R) 98 system (copyright 1998, Gaussian, Inc.),
 the Gaussian(R) 94 system (copyright 1995, Gaussian, Inc.),
 the Gaussian 92(TM) system (copyright 1992, Gaussian, Inc.),
 the Gaussian 90(TM) system (copyright 1990, Gaussian, Inc.),
 the Gaussian 88(TM) system (copyright 1988, Gaussian, Inc.),
 the Gaussian 86(TM) system (copyright 1986, Carnegie Mellon
 University), and the Gaussian 82(TM) system (copyright 1983,
 Carnegie Mellon University). Gaussian is a federally registered
 trademark of Gaussian, Inc.
  
 This software contains proprietary and confidential information,
 including trade secrets, belonging to Gaussian, Inc.
  
 This software is provided under written license and may be
 used, copied, transmitted, or stored only in accord with that
 written license.
  
 The following legend is applicable only to US Government
 contracts under FAR:
  
                    RESTRICTED RIGHTS LEGEND
  
 Use, reproduction and disclosure by the US Government is
 subject to restrictions as set forth in subparagraphs (a)
 and (c) of the Commercial Computer Software - Restricted
 Rights clause in FAR 52.227-19.
  
 Gaussian, Inc.
 340 Quinnipiac St., Bldg. 40, Wallingford CT 06492
  
  
 ---------------------------------------------------------------
 Warning -- This program may not be used in any manner that
 competes with the business of Gaussian, Inc. or will provide
 assistance to any competitor of Gaussian, Inc.  The licensee
 of this program is prohibited from giving any competitor of
 Gaussian, Inc. access to this program.  By using this program,
 the user acknowledges that Gaussian, Inc. is engaged in the
 business of creating and licensing software in the field of
 computational chemistry and represents and warrants to the
 licensee that it is not a competitor of Gaussian, Inc. and that
 it will not use this program in any manner prohibited above.
 ---------------------------------------------------------------
  

 Cite this work as:
 Gaussian 16, Revision A.03,
 M. J. Frisch, G. W. Trucks, H. B. Schlegel, G. E. Scuseria, 
 M. A. Robb, J. R. Cheeseman, G. Scalmani, V. Barone, 
 G. A. Petersson, H. Nakatsuji, X. Li, M. Caricato, A. V. Marenich, 
 J. Bloino, B. G. Janesko, R. Gomperts, B. Mennucci, H. P. Hratchian, 
 J. V. Ortiz, A. F. Izmaylov, J. L. Sonnenberg, D. Williams-Young, 
 F. Ding, F. Lipparini, F. Egidi, J. Goings, B. Peng, A. Petrone, 
 T. Henderson, D. Ranasinghe, V. G. Zakrzewski, J. Gao, N. Rega, 
 G. Zheng, W. Liang, M. Hada, M. Ehara, K. Toyota, R. Fukuda, 
 J. Hasegawa, M. Ishida, T. Nakajima, Y. Honda, O. Kitao, H. Nakai, 
 T. Vreven, K. Throssell, J. A. Montgomery, Jr., J. E. Peralta, 
 F. Ogliaro, M. J. Bearpark, J. J. Heyd, E. N. Brothers, K. N. Kudin, 
 V. N. Staroverov, T. A. Keith, R. Kobayashi, J. Normand, 
 K. Raghavachari, A. P. Rendell, J. C. Burant, S. S. Iyengar, 
 J. Tomasi, M. Cossi, J. M. Millam, M. Klene, C. Adamo, R. Cammi, 
 J. W. Ochterski, R. L. Martin, K. Morokuma, O. Farkas, 
 J. B. Foresman, and D. J. Fox, Gaussian, Inc., Wallingford CT, 2016.
 
 ******************************************
 Gaussian 16:  ES64L-G16RevA.03 25-Dec-2016
                 7-Oct-2020 
 ******************************************
 %NoSave
 %nproc=12
 Will use up to   12 processors via shared memory.
 %mem=20GB
 %chk=MN_12_c2h5_lower_BH76_M062X_631Gs
 ----------------------------------------------------------------------
 #P Opt(MaxCyc=100) M062X/6-31G* 5D 7F Integral=UltraFineGrid SCF=(NoSy
 mm,XQC,MaxCyc=120) IOp(1/33=1)
 ----------------------------------------------------------------------
 1/6=100,18=20,19=15,26=4,33=1,38=1/1,3;
 2/9=110,12=2,17=6,18=5,40=1/2;
 3/5=1,6=6,7=1,8=11,11=2,25=1,30=1,71=1,74=-55,75=-5/1,2,3;
 4/9=2/1;
 5/5=2,7=120,8=3,13=1,38=5/2,8;
 6/7=2,8=2,9=2,10=2,28=1/1;
 7//1,2,3,16;
 1/6=100,18=20,19=15,26=4,33=1/3(2);
 2/9=110/2;
 99//99;
 2/9=110/2;
 3/5=1,6=6,7=1,8=11,11=2,25=1,30=1,71=1,74=-55,75=-5/1,2,3;
 4/5=5,9=2,16=3,69=1/1;
 5/5=2,7=120,8=3,13=1,38=5/2,8;
 7//1,2,3,16;
 1/6=100,18=20,19=15,26=4,33=1/3(-5);
 2/9=110/2;
 6/7=2,8=2,9=2,10=2,19=2,28=1/1;
 99/9=1/99;
 Leave Link    1 at Wed Oct  7 13:27:02 2020, MaxMem=  2684354560 cpu:              10.5 elap:               1.1
 (Enter /udrive/faculty/rpeverati/g16/g16/l101.exe)
 ONIOM data not found on unit 2.
 ------------------
 TS search on BH76.
 ------------------
 TstMul:  ICh=     0
 TstMul:  Mul=     2
 TstMul:  ICh=     0
 TstMul:  Mul=     2
 Symbolic Z-matrix:
 Charge =  0 Multiplicity = 2
 C                    -0.01058  -0.69586   0. 
 C                    -0.01058   0.79518   0. 
 H                     1.00908  -1.09968   0. 
 H                    -0.50862  -1.09548   0.88342 
 H                    -0.50862  -1.09548  -0.88342 
 H                     0.06753   1.34734  -0.92432 
 H                     0.06753   1.34734   0.92432 
 
 RdStrC is calling ZToCFu for IStruc=1 NZ=     7.
 PrtBox:  NBox=     1 Levels=  1 BoxLen=    8.00 SMaxX=        4.62
          Shift=            0.961153            2.078100            1.746710
 Box      1 Number                   0 centers from      1 to      7:
 After GenITR:
 ITRead=  0  0  0  0  0  0  0
 MicOpt= -1 -1 -1 -1 -1 -1 -1
 ITRead=  0  0  0  0  0  0  0
 MicOpt= -1 -1 -1 -1 -1 -1 -1
 NAtoms=      7 NQM=        7 NQMF=       0 NMMI=      0 NMMIF=      0
                NMic=       0 NMicF=      0.
                    Isotopes and Nuclear Properties:
 (Nuclear quadrupole moments (NQMom) in fm**2, nuclear magnetic moments (NMagM)
  in nuclear magnetons)

  Atom         1           2           3           4           5           6           7
 IAtWgt=          12          12           1           1           1           1           1
 AtmWgt=  12.0000000  12.0000000   1.0078250   1.0078250   1.0078250   1.0078250   1.0078250
 NucSpn=           0           0           1           1           1           1           1
 AtZEff=   0.0000000   0.0000000   0.0000000   0.0000000   0.0000000   0.0000000   0.0000000
 NQMom=    0.0000000   0.0000000   0.0000000   0.0000000   0.0000000   0.0000000   0.0000000
 NMagM=    0.0000000   0.0000000   2.7928460   2.7928460   2.7928460   2.7928460   2.7928460
 AtZNuc=   6.0000000   6.0000000   1.0000000   1.0000000   1.0000000   1.0000000   1.0000000
 No MM parameters found.
 Leave Link  101 at Wed Oct  7 13:27:03 2020, MaxMem=  2684354560 cpu:               5.2 elap:               0.8
 (Enter /udrive/faculty/rpeverati/g16/g16/l103.exe)

 GradGradGradGradGradGradGradGradGradGradGradGradGradGradGradGradGradGrad
 Berny optimization.
 Optmz: redundant internal coordinate code flag= 1
 Initialization pass.
                           ----------------------------
                           !    Initial Parameters    !
                           ! (Angstroms and Degrees)  !
 --------------------------                            --------------------------
 ! Name  Definition              Value          Derivative Info.                !
 --------------------------------------------------------------------------------
 ! R1    R(1,2)                  1.491          estimate D2E/DX2                !
 ! R2    R(1,3)                  1.0967         estimate D2E/DX2                !
 ! R3    R(1,4)                  1.09           estimate D2E/DX2                !
 ! R4    R(1,5)                  1.09           estimate D2E/DX2                !
 ! R5    R(2,6)                  1.0795         estimate D2E/DX2                !
 ! R6    R(2,7)                  1.0795         estimate D2E/DX2                !
 ! A1    A(2,1,3)              111.6056         estimate D2E/DX2                !
 ! A2    A(2,1,4)              111.507          estimate D2E/DX2                !
 ! A3    A(2,1,5)              111.507          estimate D2E/DX2                !
 ! A4    A(3,1,4)              106.8467         estimate D2E/DX2                !
 ! A5    A(3,1,5)              106.8467         estimate D2E/DX2                !
 ! A6    A(4,1,5)              108.2798         estimate D2E/DX2                !
 ! A7    A(1,2,6)              120.7631         estimate D2E/DX2                !
 ! A8    A(1,2,7)              120.7631         estimate D2E/DX2                !
 ! A9    A(6,2,7)              117.7935         estimate D2E/DX2                !
 ! D1    D(3,1,2,6)             85.17           estimate D2E/DX2                !
 ! D2    D(3,1,2,7)            -85.17           estimate D2E/DX2                !
 ! D3    D(4,1,2,6)           -155.4169         estimate D2E/DX2                !
 ! D4    D(4,1,2,7)             34.243          estimate D2E/DX2                !
 ! D5    D(5,1,2,6)            -34.243          estimate D2E/DX2                !
 ! D6    D(5,1,2,7)            155.4169         estimate D2E/DX2                !
 --------------------------------------------------------------------------------
 Maximum allowed force set to 1.00D+20.
 Trust Radius=3.00D-01 FncErr=1.00D-07 GrdErr=1.00D-06 EigMax=2.50D+02 EigMin=1.00D-04
 Number of steps in this run=    100 maximum allowed number of steps=    100.
 GradGradGradGradGradGradGradGradGradGradGradGradGradGradGradGradGradGrad

 Leave Link  103 at Wed Oct  7 13:27:04 2020, MaxMem=  2684354560 cpu:               1.2 elap:               0.6
 (Enter /udrive/faculty/rpeverati/g16/g16/l202.exe)
                          Input orientation:                          
 ---------------------------------------------------------------------
 Center     Atomic      Atomic             Coordinates (Angstroms)
 Number     Number       Type             X           Y           Z
 ---------------------------------------------------------------------
      1          6           0       -0.010575   -0.695857    0.000000
      2          6           0       -0.010575    0.795184    0.000000
      3          1           0        1.009083   -1.099683    0.000000
      4          1           0       -0.508620   -1.095481    0.883419
      5          1           0       -0.508620   -1.095481   -0.883419
      6          1           0        0.067529    1.347343   -0.924319
      7          1           0        0.067529    1.347343    0.924319
 ---------------------------------------------------------------------
                    Distance matrix (angstroms):
                    1          2          3          4          5
     1  C    0.000000
     2  C    1.491041   0.000000
     3  H    1.096712   2.151795   0.000000
     4  H    1.090036   2.145482   1.756095   0.000000
     5  H    1.090036   2.145482   1.756095   1.766838   0.000000
     6  H    2.243911   1.079512   2.780077   3.093099   2.510182
     7  H    2.243911   1.079512   2.780077   2.510182   3.093099
                    6          7
     6  H    0.000000
     7  H    1.848638   0.000000
 Stoichiometry    C2H5(2)
 Framework group  CS[SG(C2H),X(H4)]
 Deg. of freedom     9
 Full point group                 CS      NOp   2
 Largest Abelian subgroup         CS      NOp   2
 Largest concise Abelian subgroup CS      NOp   2
                         Standard orientation:                         
 ---------------------------------------------------------------------
 Center     Atomic      Atomic             Coordinates (Angstroms)
 Number     Number       Type             X           Y           Z
 ---------------------------------------------------------------------
      1          6           0       -0.010575   -0.695857    0.000000
      2          6           0       -0.010575    0.795184   -0.000000
      3          1           0        1.009083   -1.099683    0.000000
      4          1           0       -0.508620   -1.095481    0.883419
      5          1           0       -0.508620   -1.095481   -0.883419
      6          1           0        0.067529    1.347343   -0.924319
      7          1           0        0.067529    1.347343    0.924319
 ---------------------------------------------------------------------
 Rotational constants (GHZ):         104.1481796          22.7216789          21.0750208
 Leave Link  202 at Wed Oct  7 13:27:05 2020, MaxMem=  2684354560 cpu:               2.3 elap:               0.8
 (Enter /udrive/faculty/rpeverati/g16/g16/l301.exe)
 Standard basis: 6-31G(d) (5D, 7F)
 Ernie: Thresh=  0.10000D-02 Tol=  0.10000D-05 Strict=F.
 There are    28 symmetry adapted cartesian basis functions of A'  symmetry.
 There are    12 symmetry adapted cartesian basis functions of A"  symmetry.
 There are    26 symmetry adapted basis functions of A'  symmetry.
 There are    12 symmetry adapted basis functions of A"  symmetry.
    38 basis functions,    76 primitive gaussians,    40 cartesian basis functions
     9 alpha electrons        8 beta electrons
       nuclear repulsion energy        36.9778142119 Hartrees.
 IExCor= 4336 DFT=T Ex+Corr=M062X ExCW=0 ScaHFX=  0.540000
 ScaDFX=  1.000000  1.000000  1.000000  1.000000 ScalE2=  1.000000  1.000000
 IRadAn=      5 IRanWt=     -1 IRanGd=            0 ICorTp=0 IEmpDi=  4
 NAtoms=    7 NActive=    7 NUniq=    5 SFac= 1.96D+00 NAtFMM=   60 NAOKFM=F Big=F
 Integral buffers will be    131072 words long.
 Raffenetti 2 integral format.
 Two-electron integral symmetry is turned on.
 Leave Link  301 at Wed Oct  7 13:27:06 2020, MaxMem=  2684354560 cpu:               2.6 elap:               0.6
 (Enter /udrive/faculty/rpeverati/g16/g16/l302.exe)
 NPDir=0 NMtPBC=     1 NCelOv=     1 NCel=       1 NClECP=     1 NCelD=      1
         NCelK=      1 NCelE2=     1 NClLst=     1 CellRange=     0.0.
 One-electron integrals computed using PRISM.
 One-electron integral symmetry used in STVInt
 NBasis=    38 RedAO= T EigKep=  1.05D-02  NBF=    26    12
 NBsUse=    38 1.00D-06 EigRej= -1.00D+00 NBFU=    26    12
 Precomputing XC quadrature grid using
 IXCGrd= 4 IRadAn=           5 IRanWt=          -1 IRanGd=           0 AccXCQ= 0.00D+00.
 Generated NRdTot=       0 NPtTot=           0 NUsed=           0 NTot=          32
 NSgBfM=    40    40    40    40    40 MxSgAt=     7 MxSgA2=     7.
 Leave Link  302 at Wed Oct  7 13:27:08 2020, MaxMem=  2684354560 cpu:               6.5 elap:               1.4
 (Enter /udrive/faculty/rpeverati/g16/g16/l303.exe)
 DipDrv:  MaxL=1.
 Leave Link  303 at Wed Oct  7 13:27:09 2020, MaxMem=  2684354560 cpu:               3.9 elap:               1.0
 (Enter /udrive/faculty/rpeverati/g16/g16/l401.exe)
 SCF N**3 symmetry information disabled.
 ExpMin= 1.61D-01 ExpMax= 3.05D+03 ExpMxC= 4.57D+02 IAcc=3 IRadAn=         5 AccDes= 0.00D+00
 Harris functional with IExCor= 1009 and IRadAn=       5 diagonalized for initial guess.
 HarFok:  IExCor= 1009 AccDes= 0.00D+00 IRadAn=         5 IDoV= 1 UseB2=F ITyADJ=14
 ICtDFT=  3500011 ScaDFX=  1.000000  1.000000  1.000000  1.000000
 FoFCou: FMM=F IPFlag=           0 FMFlag=      100000 FMFlg1=           0
         NFxFlg=           0 DoJE=T BraDBF=F KetDBF=T FulRan=T
         wScrn=  0.000000 ICntrl=       500 IOpCl=  0 I1Cent=   200000004 NGrid=           0
         NMat0=    1 NMatS0=      1 NMatT0=    0 NMatD0=    1 NMtDS0=    0 NMtDT0=    0
 Petite list used in FoFCou.
 Harris En= -79.0853521227161    
 JPrj=0 DoOrth=F DoCkMO=F.
 Initial guess orbital symmetries:
 Alpha Orbitals:
       Occupied  (A') (A') (A') (A') (A") (A') (A') (A") (A')
       Virtual   (A') (A") (A') (A') (A') (A") (A') (A") (A') (A')
                 (A') (A") (A') (A') (A") (A") (A') (A') (A') (A')
                 (A") (A") (A') (A') (A") (A') (A') (A") (A')
 Beta  Orbitals:
       Occupied  (A') (A') (A') (A') (A") (A') (A') (A")
       Virtual   (A') (A') (A") (A') (A') (A') (A") (A') (A") (A')
                 (A') (A') (A") (A') (A') (A") (A") (A') (A') (A')
                 (A') (A") (A") (A') (A') (A") (A') (A') (A") (A')
 The electronic state of the initial guess is 2-A'.
 Initial guess <Sx>= 0.0000 <Sy>= 0.0000 <Sz>= 0.5000 <S**2>= 0.7500 S= 0.5000
 Leave Link  401 at Wed Oct  7 13:27:11 2020, MaxMem=  2684354560 cpu:               5.6 elap:               1.0
 (Enter /udrive/faculty/rpeverati/g16/g16/l502.exe)
 Keep R1 and R2 ints in memory in symmetry-blocked form, NReq=10650061.
 FoFCou: FMM=F IPFlag=           0 FMFlag=           0 FMFlg1=           0
         NFxFlg=           0 DoJE=F BraDBF=F KetDBF=F FulRan=T
         wScrn=  0.000000 ICntrl=       600 IOpCl=  0 I1Cent=           0 NGrid=           0
         NMat0=    1 NMatS0=    741 NMatT0=    0 NMatD0=    1 NMtDS0=    0 NMtDT0=    0
 Petite list used in FoFCou.
 UHF open shell SCF:
 Using DIIS extrapolation, IDIIS=  1040.
 NGot=  2684354560 LenX=  2684066045 LenY=  2684064004
 Requested convergence on RMS density matrix=1.00D-08 within 120 cycles.
 Requested convergence on MAX density matrix=1.00D-06.
 Requested convergence on             energy=1.00D-06.
 No special actions if energy rises.
 Integral accuracy reduced to 1.0D-05 until final iterations.

 Cycle   1  Pass 0  IDiag  1:
 E= -79.0063018248033    
 DIIS: error= 6.14D-02 at cycle   1 NSaved=   1.
 NSaved= 1 IEnMin= 1 EnMin= -79.0063018248033     IErMin= 1 ErrMin= 6.14D-02
 ErrMax= 6.14D-02  0.00D+00 EMaxC= 1.00D-01 BMatC= 3.21D-01 BMatP= 3.21D-01
 IDIUse=3 WtCom= 3.86D-01 WtEn= 6.14D-01
 Coeff-Com:  0.100D+01
 Coeff-En:   0.100D+01
 Coeff:      0.100D+01
 Gap=     0.360 Goal=   None    Shift=    0.000
 Gap=     0.456 Goal=   None    Shift=    0.000
 GapD=    0.360 DampG=1.000 DampE=0.500 DampFc=0.5000 IDamp=-1.
 Damping current iteration by 5.00D-01
 RMSDP=1.19D-02 MaxDP=1.27D-01              OVMax= 1.54D-01

 Cycle   2  Pass 0  IDiag  1:
 E= -79.0559027952916     Delta-E=       -0.049600970488 Rises=F Damp=T
 DIIS: error= 9.18D-03 at cycle   2 NSaved=   2.
 NSaved= 2 IEnMin= 2 EnMin= -79.0559027952916     IErMin= 2 ErrMin= 9.18D-03
 ErrMax= 9.18D-03  0.00D+00 EMaxC= 1.00D-01 BMatC= 1.29D-02 BMatP= 3.21D-01
 IDIUse=3 WtCom= 9.08D-01 WtEn= 9.18D-02
 Coeff-Com: -0.120D+00 0.112D+01
 Coeff-En:   0.000D+00 0.100D+01
 Coeff:     -0.109D+00 0.111D+01
 Gap=     0.406 Goal=   None    Shift=    0.000
 Gap=     0.461 Goal=   None    Shift=    0.000
 RMSDP=1.94D-03 MaxDP=1.83D-02 DE=-4.96D-02 OVMax= 6.24D-02

 Cycle   3  Pass 0  IDiag  1:
 E= -79.0991966079794     Delta-E=       -0.043293812688 Rises=F Damp=F
 DIIS: error= 2.00D-03 at cycle   3 NSaved=   3.
 NSaved= 3 IEnMin= 3 EnMin= -79.0991966079794     IErMin= 3 ErrMin= 2.00D-03
 ErrMax= 2.00D-03  0.00D+00 EMaxC= 1.00D-01 BMatC= 4.66D-04 BMatP= 1.29D-02
 IDIUse=3 WtCom= 9.80D-01 WtEn= 2.00D-02
 Coeff-Com:  0.111D-02 0.138D-01 0.985D+00
 Coeff-En:   0.000D+00 0.000D+00 0.100D+01
 Coeff:      0.109D-02 0.135D-01 0.985D+00
 Gap=     0.412 Goal=   None    Shift=    0.000
 Gap=     0.433 Goal=   None    Shift=    0.000
 RMSDP=4.30D-04 MaxDP=6.50D-03 DE=-4.33D-02 OVMax= 8.00D-03

 Cycle   4  Pass 0  IDiag  1:
 E= -79.0994126669415     Delta-E=       -0.000216058962 Rises=F Damp=F
 DIIS: error= 9.08D-04 at cycle   4 NSaved=   4.
 NSaved= 4 IEnMin= 4 EnMin= -79.0994126669415     IErMin= 4 ErrMin= 9.08D-04
 ErrMax= 9.08D-04  0.00D+00 EMaxC= 1.00D-01 BMatC= 9.41D-05 BMatP= 4.66D-04
 IDIUse=3 WtCom= 9.91D-01 WtEn= 9.08D-03
 Coeff-Com:  0.661D-02-0.436D-01 0.143D+00 0.894D+00
 Coeff-En:   0.000D+00 0.000D+00 0.000D+00 0.100D+01
 Coeff:      0.655D-02-0.432D-01 0.141D+00 0.895D+00
 Gap=     0.412 Goal=   None    Shift=    0.000
 Gap=     0.436 Goal=   None    Shift=    0.000
 RMSDP=1.63D-04 MaxDP=2.15D-03 DE=-2.16D-04 OVMax= 4.29D-03

 Cycle   5  Pass 0  IDiag  1:
 E= -79.0994542020004     Delta-E=       -0.000041535059 Rises=F Damp=F
 DIIS: error= 4.30D-04 at cycle   5 NSaved=   5.
 NSaved= 5 IEnMin= 5 EnMin= -79.0994542020004     IErMin= 5 ErrMin= 4.30D-04
 ErrMax= 4.30D-04  0.00D+00 EMaxC= 1.00D-01 BMatC= 2.13D-05 BMatP= 9.41D-05
 IDIUse=3 WtCom= 9.96D-01 WtEn= 4.30D-03
 Coeff-Com:  0.868D-03-0.126D-01-0.122D+00 0.199D+00 0.935D+00
 Coeff-En:   0.000D+00 0.000D+00 0.000D+00 0.000D+00 0.100D+01
 Coeff:      0.864D-03-0.126D-01-0.121D+00 0.198D+00 0.935D+00
 Gap=     0.413 Goal=   None    Shift=    0.000
 Gap=     0.436 Goal=   None    Shift=    0.000
 RMSDP=9.92D-05 MaxDP=1.56D-03 DE=-4.15D-05 OVMax= 1.48D-03

 Cycle   6  Pass 0  IDiag  1:
 E= -79.0994642252367     Delta-E=       -0.000010023236 Rises=F Damp=F
 DIIS: error= 1.25D-04 at cycle   6 NSaved=   6.
 NSaved= 6 IEnMin= 6 EnMin= -79.0994642252367     IErMin= 6 ErrMin= 1.25D-04
 ErrMax= 1.25D-04  0.00D+00 EMaxC= 1.00D-01 BMatC= 1.77D-06 BMatP= 2.13D-05
 IDIUse=3 WtCom= 9.99D-01 WtEn= 1.25D-03
 Coeff-Com: -0.125D-02 0.504D-02-0.379D-01-0.104D+00 0.156D+00 0.982D+00
 Coeff-En:   0.000D+00 0.000D+00 0.000D+00 0.000D+00 0.000D+00 0.100D+01
 Coeff:     -0.125D-02 0.503D-02-0.378D-01-0.104D+00 0.156D+00 0.982D+00
 Gap=     0.413 Goal=   None    Shift=    0.000
 Gap=     0.436 Goal=   None    Shift=    0.000
 RMSDP=3.08D-05 MaxDP=4.03D-04 DE=-1.00D-05 OVMax= 5.54D-04

 Cycle   7  Pass 0  IDiag  1:
 E= -79.0994651119295     Delta-E=       -0.000000886693 Rises=F Damp=F
 DIIS: error= 1.56D-05 at cycle   7 NSaved=   7.
 NSaved= 7 IEnMin= 7 EnMin= -79.0994651119295     IErMin= 7 ErrMin= 1.56D-05
 ErrMax= 1.56D-05  0.00D+00 EMaxC= 1.00D-01 BMatC= 3.26D-08 BMatP= 1.77D-06
 IDIUse=1 WtCom= 1.00D+00 WtEn= 0.00D+00
 Coeff-Com:  0.228D-03-0.844D-03 0.148D-01 0.223D-01-0.698D-01-0.296D+00
 Coeff-Com:  0.133D+01
 Coeff:      0.228D-03-0.844D-03 0.148D-01 0.223D-01-0.698D-01-0.296D+00
 Coeff:      0.133D+01
 Gap=     0.413 Goal=   None    Shift=    0.000
 Gap=     0.436 Goal=   None    Shift=    0.000
 RMSDP=6.16D-06 MaxDP=6.58D-05 DE=-8.87D-07 OVMax= 8.08D-05

 Initial convergence to 1.0D-05 achieved.  Increase integral accuracy.
 Cycle   8  Pass 1  IDiag  1:
 E= -79.0994731656342     Delta-E=       -0.000008053705 Rises=F Damp=F
 DIIS: error= 3.41D-05 at cycle   1 NSaved=   1.
 NSaved= 1 IEnMin= 1 EnMin= -79.0994731656342     IErMin= 1 ErrMin= 3.41D-05
 ErrMax= 3.41D-05  0.00D+00 EMaxC= 1.00D-01 BMatC= 1.11D-07 BMatP= 1.11D-07
 IDIUse=1 WtCom= 1.00D+00 WtEn= 0.00D+00
 Coeff-Com:  0.100D+01
 Coeff:      0.100D+01
 Gap=     0.413 Goal=   None    Shift=    0.000
 Gap=     0.436 Goal=   None    Shift=    0.000
 RMSDP=6.16D-06 MaxDP=6.58D-05 DE=-8.05D-06 OVMax= 6.37D-05

 Cycle   9  Pass 1  IDiag  1:
 E= -79.0994731959511     Delta-E=       -0.000000030317 Rises=F Damp=F
 DIIS: error= 4.68D-06 at cycle   2 NSaved=   2.
 NSaved= 2 IEnMin= 2 EnMin= -79.0994731959511     IErMin= 2 ErrMin= 4.68D-06
 ErrMax= 4.68D-06  0.00D+00 EMaxC= 1.00D-01 BMatC= 3.22D-09 BMatP= 1.11D-07
 IDIUse=1 WtCom= 1.00D+00 WtEn= 0.00D+00
 Coeff-Com: -0.130D+00 0.113D+01
 Coeff:     -0.130D+00 0.113D+01
 Gap=     0.413 Goal=   None    Shift=    0.000
 Gap=     0.436 Goal=   None    Shift=    0.000
 RMSDP=9.36D-07 MaxDP=8.95D-06 DE=-3.03D-08 OVMax= 2.52D-05

 Cycle  10  Pass 1  IDiag  1:
 E= -79.0994731975387     Delta-E=       -0.000000001588 Rises=F Damp=F
 DIIS: error= 1.58D-06 at cycle   3 NSaved=   3.
 NSaved= 3 IEnMin= 3 EnMin= -79.0994731975387     IErMin= 3 ErrMin= 1.58D-06
 ErrMax= 1.58D-06  0.00D+00 EMaxC= 1.00D-01 BMatC= 3.51D-10 BMatP= 3.22D-09
 IDIUse=1 WtCom= 1.00D+00 WtEn= 0.00D+00
 Coeff-Com: -0.371D-01 0.174D+00 0.863D+00
 Coeff:     -0.371D-01 0.174D+00 0.863D+00
 Gap=     0.413 Goal=   None    Shift=    0.000
 Gap=     0.436 Goal=   None    Shift=    0.000
 RMSDP=3.33D-07 MaxDP=4.43D-06 DE=-1.59D-09 OVMax= 8.91D-06

 Cycle  11  Pass 1  IDiag  1:
 E= -79.0994731976903     Delta-E=       -0.000000000152 Rises=F Damp=F
 DIIS: error= 8.72D-07 at cycle   4 NSaved=   4.
 NSaved= 4 IEnMin= 4 EnMin= -79.0994731976903     IErMin= 4 ErrMin= 8.72D-07
 ErrMax= 8.72D-07  0.00D+00 EMaxC= 1.00D-01 BMatC= 7.34D-11 BMatP= 3.51D-10
 IDIUse=1 WtCom= 1.00D+00 WtEn= 0.00D+00
 Coeff-Com:  0.835D-02-0.121D+00 0.228D+00 0.885D+00
 Coeff:      0.835D-02-0.121D+00 0.228D+00 0.885D+00
 Gap=     0.413 Goal=   None    Shift=    0.000
 Gap=     0.436 Goal=   None    Shift=    0.000
 RMSDP=1.55D-07 MaxDP=1.39D-06 DE=-1.52D-10 OVMax= 5.08D-06

 Cycle  12  Pass 1  IDiag  1:
 E= -79.0994731977309     Delta-E=       -0.000000000041 Rises=F Damp=F
 DIIS: error= 3.55D-07 at cycle   5 NSaved=   5.
 NSaved= 5 IEnMin= 5 EnMin= -79.0994731977309     IErMin= 5 ErrMin= 3.55D-07
 ErrMax= 3.55D-07  0.00D+00 EMaxC= 1.00D-01 BMatC= 4.63D-12 BMatP= 7.34D-11
 IDIUse=1 WtCom= 1.00D+00 WtEn= 0.00D+00
 Coeff-Com:  0.460D-02-0.316D-01-0.650D-01 0.788D-01 0.101D+01
 Coeff:      0.460D-02-0.316D-01-0.650D-01 0.788D-01 0.101D+01
 Gap=     0.413 Goal=   None    Shift=    0.000
 Gap=     0.436 Goal=   None    Shift=    0.000
 RMSDP=5.84D-08 MaxDP=5.87D-07 DE=-4.06D-11 OVMax= 2.29D-06

 Cycle  13  Pass 1  IDiag  1:
 E= -79.0994731977346     Delta-E=       -0.000000000004 Rises=F Damp=F
 DIIS: error= 9.27D-08 at cycle   6 NSaved=   6.
 NSaved= 6 IEnMin= 6 EnMin= -79.0994731977346     IErMin= 6 ErrMin= 9.27D-08
 ErrMax= 9.27D-08  0.00D+00 EMaxC= 1.00D-01 BMatC= 3.73D-13 BMatP= 4.63D-12
 IDIUse=1 WtCom= 1.00D+00 WtEn= 0.00D+00
 Coeff-Com: -0.758D-03 0.965D-02-0.149D-01-0.719D-01-0.425D-01 0.112D+01
 Coeff:     -0.758D-03 0.965D-02-0.149D-01-0.719D-01-0.425D-01 0.112D+01
 Gap=     0.413 Goal=   None    Shift=    0.000
 Gap=     0.436 Goal=   None    Shift=    0.000
 RMSDP=2.17D-08 MaxDP=2.01D-07 DE=-3.72D-12 OVMax= 7.27D-07

 Cycle  14  Pass 1  IDiag  1:
 E= -79.0994731977350     Delta-E=       -0.000000000000 Rises=F Damp=F
 DIIS: error= 2.87D-08 at cycle   7 NSaved=   7.
 NSaved= 7 IEnMin= 7 EnMin= -79.0994731977350     IErMin= 7 ErrMin= 2.87D-08
 ErrMax= 2.87D-08  0.00D+00 EMaxC= 1.00D-01 BMatC= 8.55D-14 BMatP= 3.73D-13
 IDIUse=1 WtCom= 1.00D+00 WtEn= 0.00D+00
 Coeff-Com: -0.806D-03 0.737D-02 0.206D-02-0.353D-01-0.128D+00 0.403D+00
 Coeff-Com:  0.751D+00
 Coeff:     -0.806D-03 0.737D-02 0.206D-02-0.353D-01-0.128D+00 0.403D+00
 Coeff:      0.751D+00
 Gap=     0.413 Goal=   None    Shift=    0.000
 Gap=     0.436 Goal=   None    Shift=    0.000
 RMSDP=5.63D-09 MaxDP=5.53D-08 DE=-3.69D-13 OVMax= 1.53D-07

 SCF Done:  E(UM062X) =  -79.0994731977     A.U. after   14 cycles
            NFock= 14  Conv=0.56D-08     -V/T= 2.0055
 <Sx>= 0.0000 <Sy>= 0.0000 <Sz>= 0.5000 <S**2>= 0.7550 S= 0.5025
 <L.S>= 0.000000000000E+00
 KE= 7.866302907647D+01 PE=-2.567384750184D+02 EE= 6.199815853228D+01
 Annihilation of the first spin contaminant:
 S**2 before annihilation     0.7550,   after     0.7500
 Leave Link  502 at Wed Oct  7 13:27:15 2020, MaxMem=  2684354560 cpu:              32.7 elap:               3.4
 (Enter /udrive/faculty/rpeverati/g16/g16/l508.exe)
 QCSCF skips out because SCF is already converged.
 Leave Link  508 at Wed Oct  7 13:27:15 2020, MaxMem=  2684354560 cpu:               1.0 elap:               0.5
 (Enter /udrive/faculty/rpeverati/g16/g16/l601.exe)
 Copying SCF densities to generalized density rwf, IOpCl= 1 IROHF=0.

 **********************************************************************

            Population analysis using the SCF density.

 **********************************************************************

 Orbital symmetries:
 Alpha Orbitals:
       Occupied  (A') (A') (A') (A') (A") (A') (A') (A") (A')
       Virtual   (A') (A') (A") (A') (A") (A') (A') (A") (A') (A')
                 (A') (A") (A') (A") (A') (A") (A') (A') (A') (A')
                 (A") (A") (A') (A') (A') (A") (A') (A") (A')
 Beta  Orbitals:
       Occupied  (A') (A') (A') (A') (A") (A') (A') (A")
       Virtual   (A') (A') (A") (A') (A') (A") (A') (A') (A") (A')
                 (A') (A') (A") (A') (A') (A") (A") (A') (A') (A')
                 (A') (A") (A") (A') (A') (A") (A') (A') (A") (A')
 The electronic state is 2-A'.
 Alpha  occ. eigenvalues --  -10.53701 -10.52836  -0.84735  -0.68951  -0.51846
 Alpha  occ. eigenvalues --   -0.47667  -0.44905  -0.41672  -0.24780
 Alpha virt. eigenvalues --    0.16505   0.19378   0.19757   0.22979   0.27004
 Alpha virt. eigenvalues --    0.30316   0.56191   0.58295   0.60458   0.66414
 Alpha virt. eigenvalues --    0.67209   0.79258   0.84794   0.94206   0.94488
 Alpha virt. eigenvalues --    1.01390   1.01974   1.03803   1.31500   1.51800
 Alpha virt. eigenvalues --    1.69954   1.81451   1.96763   2.04352   2.20342
 Alpha virt. eigenvalues --    2.24255   2.38116   2.49867   2.60632
  Beta  occ. eigenvalues --  -10.52971 -10.52899  -0.82723  -0.65996  -0.50832
  Beta  occ. eigenvalues --   -0.45811  -0.43816  -0.41203
  Beta virt. eigenvalues --    0.02383   0.16607   0.20206   0.20308   0.23265
  Beta virt. eigenvalues --    0.27626   0.31589   0.56360   0.58452   0.64156
  Beta virt. eigenvalues --    0.68277   0.69492   0.79628   0.87536   0.94737
  Beta virt. eigenvalues --    0.95585   1.02902   1.03673   1.05855   1.31882
  Beta virt. eigenvalues --    1.55147   1.76622   1.82592   2.00790   2.09062
  Beta virt. eigenvalues --    2.26077   2.26884   2.39709   2.53527   2.66245
          Condensed to atoms (all electrons):
               1          2          3          4          5          6
     1  C    5.058151   0.369674   0.379518   0.386360   0.386360  -0.036228
     2  C    0.369674   5.294541  -0.046390  -0.035170  -0.035170   0.387314
     3  H    0.379518  -0.046390   0.561255  -0.033096  -0.033096   0.000471
     4  H    0.386360  -0.035170  -0.033096   0.538706  -0.026215   0.003439
     5  H    0.386360  -0.035170  -0.033096  -0.026215   0.538706  -0.004576
     6  H   -0.036228   0.387314   0.000471   0.003439  -0.004576   0.523155
     7  H   -0.036228   0.387314   0.000471  -0.004576   0.003439  -0.032450
               7
     1  C   -0.036228
     2  C    0.387314
     3  H    0.000471
     4  H   -0.004576
     5  H    0.003439
     6  H   -0.032450
     7  H    0.523155
          Atomic-Atomic Spin Densities.
               1          2          3          4          5          6
     1  C   -0.070699  -0.041031   0.015770   0.005840   0.005840   0.001036
     2  C   -0.041031   1.230083  -0.031988  -0.008652  -0.008652  -0.008934
     3  H    0.015770  -0.031988   0.091570  -0.010492  -0.010492  -0.000402
     4  H    0.005840  -0.008652  -0.010492   0.020853   0.004278   0.000019
     5  H    0.005840  -0.008652  -0.010492   0.004278   0.020853   0.000475
     6  H    0.001036  -0.008934  -0.000402   0.000019   0.000475  -0.053631
     7  H    0.001036  -0.008934  -0.000402   0.000475   0.000019   0.002490
               7
     1  C    0.001036
     2  C   -0.008934
     3  H   -0.000402
     4  H    0.000475
     5  H    0.000019
     6  H    0.002490
     7  H   -0.053631
 Mulliken charges and spin densities:
               1          2
     1  C   -0.507609  -0.082208
     2  C   -0.322114   1.121892
     3  H    0.170868   0.053564
     4  H    0.170553   0.012321
     5  H    0.170553   0.012321
     6  H    0.158875  -0.058945
     7  H    0.158875  -0.058945
 Sum of Mulliken charges =   0.00000   1.00000
 Mulliken charges and spin densities with hydrogens summed into heavy atoms:
               1          2
     1  C    0.004365  -0.004002
     2  C   -0.004365   1.004002
 Electronic spatial extent (au):  <R**2>=             98.4916
 Charge=              0.0000 electrons
 Dipole moment (field-independent basis, Debye):
    X=              0.1188    Y=             -0.1739    Z=             -0.0000  Tot=              0.2106
 Quadrupole moment (field-independent basis, Debye-Ang):
   XX=            -14.9573   YY=            -14.0062   ZZ=            -13.4267
   XY=              0.1809   XZ=             -0.0000   YZ=              0.0000
 Traceless Quadrupole moment (field-independent basis, Debye-Ang):
   XX=             -0.8272   YY=              0.1238   ZZ=              0.7034
   XY=              0.1809   XZ=             -0.0000   YZ=              0.0000
 Octapole moment (field-independent basis, Debye-Ang**2):
  XXX=              0.6327  YYY=              0.3361  ZZZ=             -0.0000  XYY=              0.2379
  XXY=             -1.3506  XXZ=              0.0000  XZZ=             -0.4315  YZZ=              0.5455
  YYZ=             -0.0000  XYZ=             -0.0000
 Hexadecapole moment (field-independent basis, Debye-Ang**3):
 XXXX=            -22.1735 YYYY=            -83.6380 ZZZZ=            -27.1313 XXXY=             -0.8736
 XXXZ=             -0.0000 YYYX=              0.0601 YYYZ=              0.0000 ZZZX=             -0.0000
 ZZZY=             -0.0000 XXYY=            -18.0725 XXZZ=             -8.5051 YYZZ=            -16.3978
 XXYZ=             -0.0000 YYXZ=             -0.0000 ZZXY=              0.7175
 N-N= 3.697781421193D+01 E-N=-2.567384747528D+02  KE= 7.866302907647D+01
                          Isotropic Fermi Contact Couplings
        Atom                 a.u.       MegaHertz       Gauss      10(-4) cm-1
     1  C(13)             -0.02941     -33.06154     -11.79718     -11.02814
     2  C(13)              0.16978     190.86760      68.10630      63.66658
     3  H(1)               0.03038     135.80932      48.46014      45.30111
     4  H(1)               0.00750      33.51926      11.96051      11.18082
     5  H(1)               0.00750      33.51926      11.96051      11.18082
     6  H(1)              -0.01681     -75.15890     -26.81856     -25.07031
     7  H(1)              -0.01681     -75.15890     -26.81856     -25.07031
 --------------------------------------------------------
       Center         ----  Spin Dipole Couplings  ----
                      3XX-RR        3YY-RR        3ZZ-RR
 --------------------------------------------------------
     1   Atom        0.007836      0.005605     -0.013441
     2   Atom        1.032504     -0.519739     -0.512765
     3   Atom       -0.002447      0.013777     -0.011330
     4   Atom       -0.008203      0.013670     -0.005468
     5   Atom       -0.008203      0.013670     -0.005468
     6   Atom       -0.007306     -0.033628      0.040934
     7   Atom       -0.007306     -0.033628      0.040934
 --------------------------------------------------------
                        XY            XZ            YZ
 --------------------------------------------------------
     1   Atom       -0.003084     -0.000000     -0.000000
     2   Atom       -0.077478     -0.000000     -0.000000
     3   Atom       -0.010410      0.000000     -0.000000
     4   Atom        0.004040     -0.001235     -0.010760
     5   Atom        0.004040      0.001235      0.010760
     6   Atom        0.002070     -0.009423     -0.066767
     7   Atom        0.002070      0.009423      0.066767
 --------------------------------------------------------


 ---------------------------------------------------------------------------------
              Anisotropic Spin Dipole Couplings in Principal Axis System
 ---------------------------------------------------------------------------------

       Atom             a.u.   MegaHertz   Gauss  10(-4) cm-1        Axes

              Baa    -0.0134    -1.804    -0.644    -0.602  0.0000  0.0000  1.0000
     1 C(13)  Bbb     0.0034     0.462     0.165     0.154  0.5744  0.8186 -0.0000
              Bcc     0.0100     1.342     0.479     0.448  0.8186 -0.5744  0.0000
 
              Baa    -0.5236   -70.262   -25.071   -23.437  0.0497  0.9988 -0.0000
     2 C(13)  Bbb    -0.5128   -68.808   -24.552   -22.952  0.0000  0.0000  1.0000
              Bcc     1.0364   139.070    49.624    46.389  0.9988 -0.0497  0.0000
 
              Baa    -0.0113    -6.045    -2.157    -2.016  0.0000  0.0000  1.0000
     3 H(1)   Bbb    -0.0075    -4.019    -1.434    -1.341  0.8985  0.4390  0.0000
              Bcc     0.0189    10.064     3.591     3.357 -0.4390  0.8985  0.0000
 
              Baa    -0.0105    -5.584    -1.993    -1.863 -0.3031  0.4299  0.8505
     4 H(1)   Bbb    -0.0087    -4.630    -1.652    -1.544  0.9408 -0.0069  0.3388
              Bcc     0.0191    10.214     3.645     3.407  0.1515  0.9029 -0.4023
 
              Baa    -0.0105    -5.584    -1.993    -1.863  0.3031 -0.4299  0.8505
     5 H(1)   Bbb    -0.0087    -4.630    -1.652    -1.544  0.9408 -0.0069 -0.3388
              Bcc     0.0191    10.214     3.645     3.407  0.1515  0.9029  0.4023
 
              Baa    -0.0730   -38.925   -13.889   -12.984  0.0458  0.8601  0.5080
     6 H(1)   Bbb    -0.0081    -4.333    -1.546    -1.445  0.9936 -0.0918  0.0659
              Bcc     0.0811    43.258    15.436    14.429 -0.1033 -0.5018  0.8588
 
              Baa    -0.0730   -38.925   -13.889   -12.984  0.0458  0.8601 -0.5080
     7 H(1)   Bbb    -0.0081    -4.333    -1.546    -1.445  0.9936 -0.0918 -0.0659
              Bcc     0.0811    43.258    15.436    14.429  0.1033  0.5018  0.8588
 

 ---------------------------------------------------------------------------------

 No NMR shielding tensors so no spin-rotation constants.
 Leave Link  601 at Wed Oct  7 13:27:17 2020, MaxMem=  2684354560 cpu:               7.5 elap:               1.3
 (Enter /udrive/faculty/rpeverati/g16/g16/l701.exe)
 ... and contract with generalized density number  0.
 Compute integral first derivatives.
 Leave Link  701 at Wed Oct  7 13:27:19 2020, MaxMem=  2684354560 cpu:               6.3 elap:               1.2
 (Enter /udrive/faculty/rpeverati/g16/g16/l702.exe)
 L702 exits ... SP integral derivatives will be done elsewhere.
 Leave Link  702 at Wed Oct  7 13:27:20 2020, MaxMem=  2684354560 cpu:               1.4 elap:               0.7
 (Enter /udrive/faculty/rpeverati/g16/g16/l703.exe)
 Integral derivatives from FoFJK, PRISM(SPDF).
 Compute integral first derivatives, UseDBF=F ICtDFT=           0.
 Calling FoFJK, ICntrl=      2127 FMM=F ISym2X=1 I1Cent= 0 IOpClX= 1 NMat=1 NMatS=1 NMatT=0.
 FoFJK:  IHMeth= 1 ICntrl=    2127 DoSepK=F KAlg= 0 I1Cent=           0 FoldK=F
 IRaf=         0 NMat=       1 IRICut=       1 DoRegI=T DoRafI=F ISym2E= 1 IDoP0=0 IntGTp=1.
 FoFCou: FMM=F IPFlag=           0 FMFlag=      100000 FMFlg1=         800
         NFxFlg=           0 DoJE=F BraDBF=F KetDBF=F FulRan=T
         wScrn=  0.000000 ICntrl=      2127 IOpCl=  1 I1Cent=           0 NGrid=           0
         NMat0=    1 NMatS0=      1 NMatT0=    0 NMatD0=    1 NMtDS0=    0 NMtDT0=    0
 Petite list used in FoFCou.
 Leave Link  703 at Wed Oct  7 13:27:22 2020, MaxMem=  2684354560 cpu:              14.0 elap:               1.9
 (Enter /udrive/faculty/rpeverati/g16/g16/l716.exe)
 Dipole        = 4.67228566D-02-6.84174574D-02 0.00000000D+00
 ***** Axes restored to original set *****
 -------------------------------------------------------------------
 Center     Atomic                   Forces (Hartrees/Bohr)
 Number     Number              X              Y              Z
 -------------------------------------------------------------------
      1        6           0.000789004    0.004974141    0.000000000
      2        6          -0.001646561   -0.003086684   -0.000000000
      3        1           0.002535255   -0.001724243   -0.000000000
      4        1          -0.001346134   -0.001255551    0.002210040
      5        1          -0.001346134   -0.001255551   -0.002210040
      6        1           0.000507285    0.001173944   -0.001676120
      7        1           0.000507285    0.001173944    0.001676120
 -------------------------------------------------------------------
 Cartesian Forces:  Max     0.004974141 RMS     0.001857279
 Leave Link  716 at Wed Oct  7 13:27:23 2020, MaxMem=  2684354560 cpu:               1.5 elap:               0.8
 (Enter /udrive/faculty/rpeverati/g16/g16/l103.exe)

 GradGradGradGradGradGradGradGradGradGradGradGradGradGradGradGradGradGrad
 Berny optimization.
 Optmz: redundant internal coordinate code flag= 1
 FormGI is forming the generalized inverse of G from B-inverse, IUseBI=4.
 Internal  Forces:  Max     0.002991668 RMS     0.001313496
 Search for a local minimum.
 Step number   1 out of a maximum of  100
 All quantities printed in internal units (Hartrees-Bohrs-Radians)
 RMS Force = .13135D-02 SwitMx=.10000D-02 MixMth= 1
 Mixed Optimization -- RFO/linear search
 Second derivative matrix not updated -- first step.
 The second derivative matrix:
                          R1        R2        R3        R4        R5
           R1           0.33336
           R2           0.00000   0.34048
           R3           0.00000   0.00000   0.34809
           R4           0.00000   0.00000   0.00000   0.34809
           R5           0.00000   0.00000   0.00000   0.00000   0.36053
           R6           0.00000   0.00000   0.00000   0.00000   0.00000
           A1           0.00000   0.00000   0.00000   0.00000   0.00000
           A2           0.00000   0.00000   0.00000   0.00000   0.00000
           A3           0.00000   0.00000   0.00000   0.00000   0.00000
           A4           0.00000   0.00000   0.00000   0.00000   0.00000
           A5           0.00000   0.00000   0.00000   0.00000   0.00000
           A6           0.00000   0.00000   0.00000   0.00000   0.00000
           A7           0.00000   0.00000   0.00000   0.00000   0.00000
           A8           0.00000   0.00000   0.00000   0.00000   0.00000
           A9           0.00000   0.00000   0.00000   0.00000   0.00000
           D1           0.00000   0.00000   0.00000   0.00000   0.00000
           D2           0.00000   0.00000   0.00000   0.00000   0.00000
           D3           0.00000   0.00000   0.00000   0.00000   0.00000
           D4           0.00000   0.00000   0.00000   0.00000   0.00000
           D5           0.00000   0.00000   0.00000   0.00000   0.00000
           D6           0.00000   0.00000   0.00000   0.00000   0.00000
                          R6        A1        A2        A3        A4
           R6           0.36053
           A1           0.00000   0.16000
           A2           0.00000   0.00000   0.16000
           A3           0.00000   0.00000   0.00000   0.16000
           A4           0.00000   0.00000   0.00000   0.00000   0.16000
           A5           0.00000   0.00000   0.00000   0.00000   0.00000
           A6           0.00000   0.00000   0.00000   0.00000   0.00000
           A7           0.00000   0.00000   0.00000   0.00000   0.00000
           A8           0.00000   0.00000   0.00000   0.00000   0.00000
           A9           0.00000   0.00000   0.00000   0.00000   0.00000
           D1           0.00000   0.00000   0.00000   0.00000   0.00000
           D2           0.00000   0.00000   0.00000   0.00000   0.00000
           D3           0.00000   0.00000   0.00000   0.00000   0.00000
           D4           0.00000   0.00000   0.00000   0.00000   0.00000
           D5           0.00000   0.00000   0.00000   0.00000   0.00000
           D6           0.00000   0.00000   0.00000   0.00000   0.00000
                          A5        A6        A7        A8        A9
           A5           0.16000
           A6           0.00000   0.16000
           A7           0.00000   0.00000   0.16000
           A8           0.00000   0.00000   0.00000   0.16000
           A9           0.00000   0.00000   0.00000   0.00000   0.16000
           D1           0.00000   0.00000   0.00000   0.00000   0.00000
           D2           0.00000   0.00000   0.00000   0.00000   0.00000
           D3           0.00000   0.00000   0.00000   0.00000   0.00000
           D4           0.00000   0.00000   0.00000   0.00000   0.00000
           D5           0.00000   0.00000   0.00000   0.00000   0.00000
           D6           0.00000   0.00000   0.00000   0.00000   0.00000
                          D1        D2        D3        D4        D5
           D1           0.00884
           D2           0.00000   0.00884
           D3           0.00000   0.00000   0.00884
           D4           0.00000   0.00000   0.00000   0.00884
           D5           0.00000   0.00000   0.00000   0.00000   0.00884
           D6           0.00000   0.00000   0.00000   0.00000   0.00000
                          D6
           D6           0.00884
 ITU=  0
 Eigenvectors of the second derivative matrix:
                           1         2         3         4         5
     Eigenvalues --     0.00884   0.00951   0.07164   0.07233   0.16000
   1         R1         0.00000   0.00000  -0.00000   0.00000   0.00000
   2         R2         0.00000   0.00000  -0.00000   0.00000  -0.00000
   3         R3         0.00000   0.00000   0.00000   0.00000  -0.00000
   4         R4         0.00000   0.00000   0.00000  -0.00000  -0.00000
   5         R5        -0.00000  -0.00000  -0.00000  -0.00000   0.00000
   6         R6        -0.00000   0.00000  -0.00000   0.00000  -0.00000
   7         A1        -0.00000   0.00000  -0.24987   0.00000  -0.23853
   8         A2        -0.00000  -0.00000   0.12540   0.21550   0.48042
   9         A3        -0.00000  -0.00000   0.12540  -0.21550  -0.09023
  10         A4         0.00000  -0.00000  -0.23487   0.40443  -0.12911
  11         A5         0.00000   0.00000  -0.23487  -0.40443   0.17496
  12         A6         0.00000  -0.00000   0.45960  -0.00000  -0.21271
  13         A7         0.00000  -0.03820   0.00000   0.00000  -0.10053
  14         A8         0.00000  -0.03820   0.00000  -0.00000   0.59940
  15         A9        -0.00000  -0.03872  -0.00000   0.00000  -0.49219
  16         D1        -0.40825  -0.40735  -0.00000  -0.43970  -0.00000
  17         D2        -0.40825   0.40735  -0.00000  -0.43970  -0.00000
  18         D3        -0.40825  -0.40735  -0.38228   0.21985   0.00000
  19         D4        -0.40825   0.40735  -0.38228   0.21985   0.00000
  20         D5        -0.40825  -0.40735   0.38228   0.21985   0.00000
  21         D6        -0.40825   0.40735   0.38228   0.21985   0.00000
                           6         7         8         9        10
     Eigenvalues --     0.16000   0.16000   0.16000   0.16000   0.33336
   1         R1        -0.00000   0.00000  -0.00000   0.00000   1.00000
   2         R2        -0.00000   0.00000  -0.00000   0.00000   0.00000
   3         R3        -0.00000   0.00000  -0.00000   0.00000  -0.00000
   4         R4         0.00000   0.00000  -0.00000  -0.00000   0.00000
   5         R5        -0.00000   0.00000   0.00000  -0.00000   0.00000
   6         R6        -0.00000   0.00000   0.00000  -0.00000  -0.00000
   7         A1         0.69654   0.19179   0.26183   0.16768   0.00000
   8         A2         0.18946   0.15920  -0.61240   0.06268   0.00000
   9         A3        -0.16967  -0.52277  -0.02162   0.60027  -0.00000
  10         A4        -0.47146  -0.18685   0.18704  -0.12259  -0.00000
  11         A5        -0.28010   0.17653  -0.12776  -0.40904  -0.00000
  12         A6        -0.01079   0.19820   0.34564  -0.36142  -0.00000
  13         A7         0.30120  -0.58212  -0.18241  -0.44351   0.00000
  14         A8        -0.06481   0.12295   0.50228   0.19695   0.00000
  15         A9        -0.23322   0.45303  -0.31559   0.24327  -0.00000
  16         D1         0.00000   0.00000   0.00000  -0.00000   0.00000
  17         D2         0.00000  -0.00000   0.00000  -0.00000   0.00000
  18         D3        -0.00000  -0.00000   0.00000  -0.00000  -0.00000
  19         D4        -0.00000  -0.00000   0.00000  -0.00000  -0.00000
  20         D5        -0.00000  -0.00000   0.00000  -0.00000   0.00000
  21         D6        -0.00000  -0.00000   0.00000  -0.00000   0.00000
                          11        12        13        14        15
     Eigenvalues --     0.34048   0.34809   0.34809   0.36053   0.36053
   1         R1         0.00000   0.00000   0.00000  -0.00000  -0.00000
   2         R2        -1.00000   0.00000   0.00000   0.00000   0.00000
   3         R3        -0.00000  -0.41695   0.90893   0.00000   0.00000
   4         R4        -0.00000  -0.90893  -0.41695   0.00000  -0.00000
   5         R5         0.00000  -0.00000  -0.00000  -0.69572   0.71831
   6         R6        -0.00000  -0.00000   0.00000  -0.71831  -0.69572
   7         A1        -0.00000   0.00000   0.00000  -0.00000  -0.00000
   8         A2         0.00000   0.00000   0.00000  -0.00000   0.00000
   9         A3         0.00000  -0.00000  -0.00000  -0.00000  -0.00000
  10         A4         0.00000  -0.00000  -0.00000   0.00000   0.00000
  11         A5        -0.00000  -0.00000   0.00000   0.00000   0.00000
  12         A6        -0.00000   0.00000  -0.00000   0.00000   0.00000
  13         A7        -0.00000  -0.00000   0.00000   0.00000   0.00000
  14         A8        -0.00000  -0.00000  -0.00000  -0.00000  -0.00000
  15         A9         0.00000   0.00000  -0.00000  -0.00000  -0.00000
  16         D1        -0.00000  -0.00000   0.00000   0.00000  -0.00000
  17         D2        -0.00000  -0.00000   0.00000   0.00000  -0.00000
  18         D3         0.00000  -0.00000   0.00000   0.00000   0.00000
  19         D4        -0.00000  -0.00000   0.00000   0.00000   0.00000
  20         D5        -0.00000   0.00000   0.00000   0.00000   0.00000
  21         D6        -0.00000   0.00000   0.00000   0.00000   0.00000
 Iter=   1 RLamda= 0.00000000D+00 Sum=-1.35470307D-04.
 Iter=   2 RLamda=-1.35470307D-04 Sum=-1.35051050D-04.
 Iter=   3 RLamda=-1.35051050D-04 Sum=-1.35052331D-04.
 RFO step:  Lambda=-1.35051050D-04 EMin= 8.84451838D-03
 Linear search not attempted -- first point.
 Iteration  1 RMS(Cart)=  0.00638420 RMS(Int)=  0.00012429
 Iteration  2 RMS(Cart)=  0.00008288 RMS(Int)=  0.00009469
 Iteration  3 RMS(Cart)=  0.00000001 RMS(Int)=  0.00009469
 ITry= 1 IFail=0 DXMaxC= 2.06D-02 DCOld= 1.00D+10 DXMaxT= 3.00D-01 DXLimC= 3.00D+00 Rises=F
 ClnCor:  largest displacement from symmetrization is 1.34D-14 for atom     7.
 Variable       Old X    -DE/DX   Delta X   Delta X   Delta X     New X
                                 (Linear)    (Quad)   (Total)
    R1        2.81766  -0.00074   0.00000  -0.00222  -0.00222   2.81544
    R2        2.07249   0.00299   0.00000   0.00878   0.00878   2.08127
    R3        2.05987   0.00287   0.00000   0.00823   0.00823   2.06810
    R4        2.05987   0.00287   0.00000   0.00823   0.00823   2.06810
    R5        2.03998   0.00207   0.00000   0.00575   0.00575   2.04573
    R6        2.03998   0.00207   0.00000   0.00575   0.00575   2.04573
    A1        1.94788   0.00094   0.00000   0.00655   0.00654   1.95443
    A2        1.94617   0.00007   0.00000   0.00007   0.00007   1.94623
    A3        1.94617   0.00007   0.00000   0.00007   0.00007   1.94623
    A4        1.86483  -0.00043   0.00000  -0.00200  -0.00201   1.86282
    A5        1.86483  -0.00043   0.00000  -0.00200  -0.00201   1.86282
    A6        1.88984  -0.00029   0.00000  -0.00309  -0.00309   1.88675
    A7        2.10771   0.00007   0.00000  -0.00141  -0.00166   2.10606
    A8        2.10771   0.00007   0.00000  -0.00141  -0.00166   2.10606
    A9        2.05589  -0.00020   0.00000  -0.00314  -0.00339   2.05249
    D1        1.48650  -0.00020   0.00000  -0.02115  -0.02113   1.46536
    D2       -1.48650   0.00020   0.00000   0.02115   0.02113  -1.46536
    D3       -2.71254  -0.00007   0.00000  -0.01922  -0.01920  -2.73174
    D4        0.59765   0.00034   0.00000   0.02308   0.02307   0.62072
    D5       -0.59765  -0.00034   0.00000  -0.02308  -0.02307  -0.62072
    D6        2.71254   0.00007   0.00000   0.01922   0.01920   2.73174
         Item               Value     Threshold  Converged?
 Maximum Force            0.002992     0.000450     NO 
 RMS     Force            0.001313     0.000300     NO 
 Maximum Displacement     0.020628     0.001800     NO 
 RMS     Displacement     0.006380     0.001200     NO 
 Predicted change in Energy=-6.749374D-05
 Lowest energy point so far.  Saving SCF results.
 Largest change from initial coordinates is atom    2       0.006 Angstoms.
 GradGradGradGradGradGradGradGradGradGradGradGradGradGradGradGradGradGrad

 Leave Link  103 at Wed Oct  7 13:27:26 2020, MaxMem=  2684354560 cpu:              18.3 elap:               2.8
 (Enter /udrive/faculty/rpeverati/g16/g16/l202.exe)
                          Input orientation:                          
 ---------------------------------------------------------------------
 Center     Atomic      Atomic             Coordinates (Angstroms)
 Number     Number       Type             X           Y           Z
 ---------------------------------------------------------------------
      1          6           0       -0.011091   -0.693880   -0.000000
      2          6           0       -0.021491    0.795953    0.000000
      3          1           0        1.013067   -1.098966   -0.000000
      4          1           0       -0.510011   -1.098665    0.885958
      5          1           0       -0.510011   -1.098665   -0.885958
      6          1           0        0.072643    1.348795   -0.925972
      7          1           0        0.072643    1.348795    0.925972
 ---------------------------------------------------------------------
                    Distance matrix (angstroms):
                    1          2          3          4          5
     1  C    0.000000
     2  C    1.489869   0.000000
     3  H    1.101360   2.158942   0.000000
     4  H    1.094392   2.147824   1.762012   0.000000
     5  H    1.094392   2.147824   1.762012   1.771915   0.000000
     6  H    2.244316   1.082553   2.780891   3.100425   2.516177
     7  H    2.244316   1.082553   2.780891   2.516177   3.100425
                    6          7
     6  H    0.000000
     7  H    1.851944   0.000000
 Stoichiometry    C2H5(2)
 Framework group  CS[SG(C2H),X(H4)]
 Deg. of freedom     9
 Full point group                 CS      NOp   2
 RotChk:  IX=0 Diff= 9.87D-03
 Largest Abelian subgroup         CS      NOp   2
 Largest concise Abelian subgroup CS      NOp   2
                         Standard orientation:                         
 ---------------------------------------------------------------------
 Center     Atomic      Atomic             Coordinates (Angstroms)
 Number     Number       Type             X           Y           Z
 ---------------------------------------------------------------------
      1          6           0       -0.012578   -0.694617    0.000000
      2          6           0       -0.012578    0.795252   -0.000000
      3          1           0        1.008727   -1.106843    0.000000
      4          1           0       -0.514312   -1.095909    0.885958
      5          1           0       -0.514312   -1.095909   -0.885958
      6          1           0        0.085414    1.347424   -0.925972
      7          1           0        0.085414    1.347424    0.925972
 ---------------------------------------------------------------------
 Rotational constants (GHZ):         103.4764055          22.7054063          21.0619548
 Leave Link  202 at Wed Oct  7 13:27:27 2020, MaxMem=  2684354560 cpu:               1.8 elap:               0.5
 (Enter /udrive/faculty/rpeverati/g16/g16/l301.exe)
 Standard basis: 6-31G(d) (5D, 7F)
 Ernie: Thresh=  0.10000D-02 Tol=  0.10000D-05 Strict=F.
 There are    28 symmetry adapted cartesian basis functions of A'  symmetry.
 There are    12 symmetry adapted cartesian basis functions of A"  symmetry.
 There are    26 symmetry adapted basis functions of A'  symmetry.
 There are    12 symmetry adapted basis functions of A"  symmetry.
    38 basis functions,    76 primitive gaussians,    40 cartesian basis functions
     9 alpha electrons        8 beta electrons
       nuclear repulsion energy        36.9219983590 Hartrees.
 IExCor= 4336 DFT=T Ex+Corr=M062X ExCW=0 ScaHFX=  0.540000
 ScaDFX=  1.000000  1.000000  1.000000  1.000000 ScalE2=  1.000000  1.000000
 IRadAn=      5 IRanWt=     -1 IRanGd=            0 ICorTp=0 IEmpDi=  4
 NAtoms=    7 NActive=    7 NUniq=    5 SFac= 1.96D+00 NAtFMM=   60 NAOKFM=F Big=F
 Integral buffers will be    131072 words long.
 Raffenetti 2 integral format.
 Two-electron integral symmetry is turned on.
 Leave Link  301 at Wed Oct  7 13:27:28 2020, MaxMem=  2684354560 cpu:               2.3 elap:               0.7
 (Enter /udrive/faculty/rpeverati/g16/g16/l302.exe)
 NPDir=0 NMtPBC=     1 NCelOv=     1 NCel=       1 NClECP=     1 NCelD=      1
         NCelK=      1 NCelE2=     1 NClLst=     1 CellRange=     0.0.
 One-electron integrals computed using PRISM.
 One-electron integral symmetry used in STVInt
 NBasis=    38 RedAO= T EigKep=  1.05D-02  NBF=    26    12
 NBsUse=    38 1.00D-06 EigRej= -1.00D+00 NBFU=    26    12
 Precomputing XC quadrature grid using
 IXCGrd= 4 IRadAn=           5 IRanWt=          -1 IRanGd=           0 AccXCQ= 0.00D+00.
 Generated NRdTot=       0 NPtTot=           0 NUsed=           0 NTot=          32
 NSgBfM=    40    40    40    40    40 MxSgAt=     7 MxSgA2=     7.
 Leave Link  302 at Wed Oct  7 13:27:30 2020, MaxMem=  2684354560 cpu:               6.6 elap:               1.1
 (Enter /udrive/faculty/rpeverati/g16/g16/l303.exe)
 DipDrv:  MaxL=1.
 Leave Link  303 at Wed Oct  7 13:27:31 2020, MaxMem=  2684354560 cpu:               2.1 elap:               0.7
 (Enter /udrive/faculty/rpeverati/g16/g16/l401.exe)
 Initial guess from the checkpoint file:  "MN_12_c2h5_lower_BH76_M062X_631Gs.chk"
 SCF N**3 symmetry information disabled.
 B after Tr=     0.000000   -0.000000    0.000000
         Rot=    0.999998    0.000000    0.000000    0.002153 Ang=   0.25 deg.
 Guess basis will be translated and rotated to current coordinates.
 JPrj=2 DoOrth=T DoCkMO=T.
 Initial guess orbital symmetries:
 Alpha Orbitals:
       Occupied  (A') (A') (A') (A') (A") (A') (A') (A") (A')
       Virtual   (A') (A') (A") (A') (A") (A') (A') (A") (A') (A')
                 (A') (A") (A') (A") (A') (A") (A') (A') (A') (A')
                 (A") (A") (A') (A') (A') (A") (A') (A") (A')
 Beta  Orbitals:
       Occupied  (A') (A') (A') (A') (A") (A') (A') (A")
       Virtual   (A') (A') (A") (A') (A') (A") (A') (A') (A") (A')
                 (A') (A') (A") (A') (A') (A") (A") (A') (A') (A')
                 (A') (A") (A") (A') (A') (A") (A') (A') (A") (A')
 The electronic state of the initial guess is 2-A'.
 Initial guess <Sx>= 0.0000 <Sy>= 0.0000 <Sz>= 0.5000 <S**2>= 0.7550 S= 0.5025
 Generating alternative initial guess.
 ExpMin= 1.61D-01 ExpMax= 3.05D+03 ExpMxC= 4.57D+02 IAcc=2 IRadAn=         4 AccDes= 0.00D+00
 Harris functional with IExCor= 1009 and IRadAn=       4 diagonalized for initial guess.
 HarFok:  IExCor= 1009 AccDes= 0.00D+00 IRadAn=         4 IDoV= 1 UseB2=F ITyADJ=14
 ICtDFT=  3500011 ScaDFX=  1.000000  1.000000  1.000000  1.000000
 FoFCou: FMM=F IPFlag=           0 FMFlag=      100000 FMFlg1=           0
         NFxFlg=           0 DoJE=T BraDBF=F KetDBF=T FulRan=T
         wScrn=  0.000000 ICntrl=       500 IOpCl=  0 I1Cent=   200000004 NGrid=           0
         NMat0=    1 NMatS0=      1 NMatT0=    0 NMatD0=    1 NMtDS0=    0 NMtDT0=    0
 Petite list used in FoFCou.
 Harris En= -79.0840543521288    
 Leave Link  401 at Wed Oct  7 13:27:34 2020, MaxMem=  2684354560 cpu:              24.5 elap:               2.8
 (Enter /udrive/faculty/rpeverati/g16/g16/l502.exe)
 Keep R1 and R2 ints in memory in symmetry-blocked form, NReq=10650061.
 FoFCou: FMM=F IPFlag=           0 FMFlag=           0 FMFlg1=           0
         NFxFlg=           0 DoJE=F BraDBF=F KetDBF=F FulRan=T
         wScrn=  0.000000 ICntrl=       600 IOpCl=  0 I1Cent=           0 NGrid=           0
         NMat0=    1 NMatS0=    741 NMatT0=    0 NMatD0=    1 NMtDS0=    0 NMtDT0=    0
 Petite list used in FoFCou.
 UHF open shell SCF:
 Using DIIS extrapolation, IDIIS=  1040.
 NGot=  2684354560 LenX=  2684066045 LenY=  2684064004
 Requested convergence on RMS density matrix=1.00D-08 within 120 cycles.
 Requested convergence on MAX density matrix=1.00D-06.
 Requested convergence on             energy=1.00D-06.
 No special actions if energy rises.
 Integral accuracy reduced to 1.0D-05 until final iterations.

 Cycle   1  Pass 0  IDiag  1:
 E= -79.0994734597255    
 DIIS: error= 1.38D-03 at cycle   1 NSaved=   1.
 NSaved= 1 IEnMin= 1 EnMin= -79.0994734597255     IErMin= 1 ErrMin= 1.38D-03
 ErrMax= 1.38D-03  0.00D+00 EMaxC= 1.00D-01 BMatC= 1.39D-04 BMatP= 1.39D-04
 IDIUse=3 WtCom= 9.86D-01 WtEn= 1.38D-02
 Coeff-Com:  0.100D+01
 Coeff-En:   0.100D+01
 Coeff:      0.100D+01
 Gap=     0.412 Goal=   None    Shift=    0.000
 Gap=     0.434 Goal=   None    Shift=    0.000
 GapD=    0.412 DampG=2.000 DampE=1.000 DampFc=2.0000 IDamp=-1.
 RMSDP=2.13D-04 MaxDP=2.23D-03              OVMax= 4.46D-03

 Cycle   2  Pass 0  IDiag  1:
 E= -79.0995330931477     Delta-E=       -0.000059633422 Rises=F Damp=F
 DIIS: error= 4.23D-04 at cycle   2 NSaved=   2.
 NSaved= 2 IEnMin= 2 EnMin= -79.0995330931477     IErMin= 2 ErrMin= 4.23D-04
 ErrMax= 4.23D-04  0.00D+00 EMaxC= 1.00D-01 BMatC= 1.81D-05 BMatP= 1.39D-04
 IDIUse=3 WtCom= 9.96D-01 WtEn= 4.23D-03
 Coeff-Com:  0.811D-01 0.919D+00
 Coeff-En:   0.000D+00 0.100D+01
 Coeff:      0.807D-01 0.919D+00
 Gap=     0.413 Goal=   None    Shift=    0.000
 Gap=     0.434 Goal=   None    Shift=    0.000
 RMSDP=1.13D-04 MaxDP=1.91D-03 DE=-5.96D-05 OVMax= 1.98D-03

 Cycle   3  Pass 0  IDiag  1:
 E= -79.0995405755102     Delta-E=       -0.000007482362 Rises=F Damp=F
 DIIS: error= 2.36D-04 at cycle   3 NSaved=   3.
 NSaved= 3 IEnMin= 3 EnMin= -79.0995405755102     IErMin= 3 ErrMin= 2.36D-04
 ErrMax= 2.36D-04  0.00D+00 EMaxC= 1.00D-01 BMatC= 6.41D-06 BMatP= 1.81D-05
 IDIUse=3 WtCom= 9.98D-01 WtEn= 2.36D-03
 Coeff-Com: -0.897D-01 0.318D+00 0.772D+00
 Coeff-En:   0.000D+00 0.000D+00 0.100D+01
 Coeff:     -0.895D-01 0.317D+00 0.773D+00
 Gap=     0.413 Goal=   None    Shift=    0.000
 Gap=     0.434 Goal=   None    Shift=    0.000
 RMSDP=5.69D-05 MaxDP=9.70D-04 DE=-7.48D-06 OVMax= 9.52D-04

 Cycle   4  Pass 0  IDiag  1:
 E= -79.0995432880700     Delta-E=       -0.000002712560 Rises=F Damp=F
 DIIS: error= 1.02D-04 at cycle   4 NSaved=   4.
 NSaved= 4 IEnMin= 4 EnMin= -79.0995432880700     IErMin= 4 ErrMin= 1.02D-04
 ErrMax= 1.02D-04  0.00D+00 EMaxC= 1.00D-01 BMatC= 5.00D-07 BMatP= 6.41D-06
 IDIUse=3 WtCom= 9.99D-01 WtEn= 1.02D-03
 Coeff-Com: -0.126D-01-0.134D+00-0.217D-01 0.117D+01
 Coeff-En:   0.000D+00 0.000D+00 0.000D+00 0.100D+01
 Coeff:     -0.126D-01-0.134D+00-0.217D-01 0.117D+01
 Gap=     0.413 Goal=   None    Shift=    0.000
 Gap=     0.434 Goal=   None    Shift=    0.000
 RMSDP=3.73D-05 MaxDP=7.09D-04 DE=-2.71D-06 OVMax= 6.19D-04

 Cycle   5  Pass 0  IDiag  1:
 E= -79.0995437537516     Delta-E=       -0.000000465682 Rises=F Damp=F
 DIIS: error= 2.08D-05 at cycle   5 NSaved=   5.
 NSaved= 5 IEnMin= 5 EnMin= -79.0995437537516     IErMin= 5 ErrMin= 2.08D-05
 ErrMax= 2.08D-05  0.00D+00 EMaxC= 1.00D-01 BMatC= 3.95D-08 BMatP= 5.00D-07
 IDIUse=1 WtCom= 1.00D+00 WtEn= 0.00D+00
 Coeff-Com:  0.114D-01-0.424D-01-0.943D-01 0.453D-01 0.108D+01
 Coeff:      0.114D-01-0.424D-01-0.943D-01 0.453D-01 0.108D+01
 Gap=     0.413 Goal=   None    Shift=    0.000
 Gap=     0.434 Goal=   None    Shift=    0.000
 RMSDP=1.25D-05 MaxDP=2.51D-04 DE=-4.66D-07 OVMax= 1.95D-04

 Cycle   6  Pass 0  IDiag  1:
 E= -79.0995437847500     Delta-E=       -0.000000030998 Rises=F Damp=F
 DIIS: error= 4.22D-06 at cycle   6 NSaved=   6.
 NSaved= 6 IEnMin= 6 EnMin= -79.0995437847500     IErMin= 6 ErrMin= 4.22D-06
 ErrMax= 4.22D-06  0.00D+00 EMaxC= 1.00D-01 BMatC= 3.43D-09 BMatP= 3.95D-08
 IDIUse=1 WtCom= 1.00D+00 WtEn= 0.00D+00
 Coeff-Com:  0.429D-02-0.725D-02-0.282D-01-0.397D-01 0.323D+00 0.748D+00
 Coeff:      0.429D-02-0.725D-02-0.282D-01-0.397D-01 0.323D+00 0.748D+00
 Gap=     0.413 Goal=   None    Shift=    0.000
 Gap=     0.434 Goal=   None    Shift=    0.000
 RMSDP=1.29D-06 MaxDP=2.04D-05 DE=-3.10D-08 OVMax= 2.08D-05

 Initial convergence to 1.0D-05 achieved.  Increase integral accuracy.
 Cycle   7  Pass 1  IDiag  1:
 E= -79.0995504281158     Delta-E=       -0.000006643366 Rises=F Damp=F
 DIIS: error= 3.09D-05 at cycle   1 NSaved=   1.
 NSaved= 1 IEnMin= 1 EnMin= -79.0995504281158     IErMin= 1 ErrMin= 3.09D-05
 ErrMax= 3.09D-05  0.00D+00 EMaxC= 1.00D-01 BMatC= 1.00D-07 BMatP= 1.00D-07
 IDIUse=1 WtCom= 1.00D+00 WtEn= 0.00D+00
 Coeff-Com:  0.100D+01
 Coeff:      0.100D+01
 Gap=     0.413 Goal=   None    Shift=    0.000
 Gap=     0.434 Goal=   None    Shift=    0.000
 RMSDP=1.29D-06 MaxDP=2.04D-05 DE=-6.64D-06 OVMax= 6.00D-05

 Cycle   8  Pass 1  IDiag  1:
 E= -79.0995504549801     Delta-E=       -0.000000026864 Rises=F Damp=F
 DIIS: error= 5.23D-06 at cycle   2 NSaved=   2.
 NSaved= 2 IEnMin= 2 EnMin= -79.0995504549801     IErMin= 2 ErrMin= 5.23D-06
 ErrMax= 5.23D-06  0.00D+00 EMaxC= 1.00D-01 BMatC= 3.27D-09 BMatP= 1.00D-07
 IDIUse=1 WtCom= 1.00D+00 WtEn= 0.00D+00
 Coeff-Com: -0.107D+00 0.111D+01
 Coeff:     -0.107D+00 0.111D+01
 Gap=     0.413 Goal=   None    Shift=    0.000
 Gap=     0.434 Goal=   None    Shift=    0.000
 RMSDP=1.01D-06 MaxDP=9.66D-06 DE=-2.69D-08 OVMax= 2.81D-05

 Cycle   9  Pass 1  IDiag  1:
 E= -79.0995504563423     Delta-E=       -0.000000001362 Rises=F Damp=F
 DIIS: error= 2.95D-06 at cycle   3 NSaved=   3.
 NSaved= 3 IEnMin= 3 EnMin= -79.0995504563423     IErMin= 3 ErrMin= 2.95D-06
 ErrMax= 2.95D-06  0.00D+00 EMaxC= 1.00D-01 BMatC= 8.79D-10 BMatP= 3.27D-09
 IDIUse=1 WtCom= 1.00D+00 WtEn= 0.00D+00
 Coeff-Com: -0.581D-01 0.373D+00 0.685D+00
 Coeff:     -0.581D-01 0.373D+00 0.685D+00
 Gap=     0.413 Goal=   None    Shift=    0.000
 Gap=     0.434 Goal=   None    Shift=    0.000
 RMSDP=3.66D-07 MaxDP=4.44D-06 DE=-1.36D-09 OVMax= 8.32D-06

 Cycle  10  Pass 1  IDiag  1:
 E= -79.0995504566252     Delta-E=       -0.000000000283 Rises=F Damp=F
 DIIS: error= 1.22D-06 at cycle   4 NSaved=   4.
 NSaved= 4 IEnMin= 4 EnMin= -79.0995504566252     IErMin= 4 ErrMin= 1.22D-06
 ErrMax= 1.22D-06  0.00D+00 EMaxC= 1.00D-01 BMatC= 8.03D-11 BMatP= 8.79D-10
 IDIUse=1 WtCom= 1.00D+00 WtEn= 0.00D+00
 Coeff-Com:  0.947D-02-0.139D+00 0.717D-01 0.106D+01
 Coeff:      0.947D-02-0.139D+00 0.717D-01 0.106D+01
 Gap=     0.413 Goal=   None    Shift=    0.000
 Gap=     0.434 Goal=   None    Shift=    0.000
 RMSDP=1.95D-07 MaxDP=2.24D-06 DE=-2.83D-10 OVMax= 7.69D-06

 Cycle  11  Pass 1  IDiag  1:
 E= -79.0995504566829     Delta-E=       -0.000000000058 Rises=F Damp=F
 DIIS: error= 4.22D-07 at cycle   5 NSaved=   5.
 NSaved= 5 IEnMin= 5 EnMin= -79.0995504566829     IErMin= 5 ErrMin= 4.22D-07
 ErrMax= 4.22D-07  0.00D+00 EMaxC= 1.00D-01 BMatC= 5.06D-12 BMatP= 8.03D-11
 IDIUse=1 WtCom= 1.00D+00 WtEn= 0.00D+00
 Coeff-Com:  0.559D-02-0.404D-01-0.596D-01 0.325D-01 0.106D+01
 Coeff:      0.559D-02-0.404D-01-0.596D-01 0.325D-01 0.106D+01
 Gap=     0.413 Goal=   None    Shift=    0.000
 Gap=     0.434 Goal=   None    Shift=    0.000
 RMSDP=7.21D-08 MaxDP=7.93D-07 DE=-5.77D-11 OVMax= 2.83D-06

 Cycle  12  Pass 1  IDiag  1:
 E= -79.0995504566881     Delta-E=       -0.000000000005 Rises=F Damp=F
 DIIS: error= 9.69D-08 at cycle   6 NSaved=   6.
 NSaved= 6 IEnMin= 6 EnMin= -79.0995504566881     IErMin= 6 ErrMin= 9.69D-08
 ErrMax= 9.69D-08  0.00D+00 EMaxC= 1.00D-01 BMatC= 4.60D-13 BMatP= 5.06D-12
 IDIUse=1 WtCom= 1.00D+00 WtEn= 0.00D+00
 Coeff-Com: -0.213D-03 0.608D-02-0.979D-02-0.733D-01 0.608D-01 0.102D+01
 Coeff:     -0.213D-03 0.608D-02-0.979D-02-0.733D-01 0.608D-01 0.102D+01
 Gap=     0.413 Goal=   None    Shift=    0.000
 Gap=     0.434 Goal=   None    Shift=    0.000
 RMSDP=2.56D-08 MaxDP=3.53D-07 DE=-5.23D-12 OVMax= 7.21D-07

 Cycle  13  Pass 1  IDiag  1:
 E= -79.0995504566886     Delta-E=       -0.000000000001 Rises=F Damp=F
 DIIS: error= 2.01D-08 at cycle   7 NSaved=   7.
 NSaved= 7 IEnMin= 7 EnMin= -79.0995504566886     IErMin= 7 ErrMin= 2.01D-08
 ErrMax= 2.01D-08  0.00D+00 EMaxC= 1.00D-01 BMatC= 1.01D-13 BMatP= 4.60D-13
 IDIUse=1 WtCom= 1.00D+00 WtEn= 0.00D+00
 Coeff-Com: -0.881D-03 0.824D-02 0.507D-02-0.313D-01-0.122D+00 0.348D+00
 Coeff-Com:  0.794D+00
 Coeff:     -0.881D-03 0.824D-02 0.507D-02-0.313D-01-0.122D+00 0.348D+00
 Coeff:      0.794D+00
 Gap=     0.413 Goal=   None    Shift=    0.000
 Gap=     0.434 Goal=   None    Shift=    0.000
 RMSDP=8.18D-09 MaxDP=1.21D-07 DE=-5.12D-13 OVMax= 1.77D-07

 SCF Done:  E(UM062X) =  -79.0995504567     A.U. after   13 cycles
            NFock= 13  Conv=0.82D-08     -V/T= 2.0059
 <Sx>= 0.0000 <Sy>= 0.0000 <Sz>= 0.5000 <S**2>= 0.7550 S= 0.5025
 <L.S>= 0.000000000000E+00
 KE= 7.863885061216D+01 PE=-2.566080559381D+02 EE= 6.194765651020D+01
 Annihilation of the first spin contaminant:
 S**2 before annihilation     0.7550,   after     0.7500
 Leave Link  502 at Wed Oct  7 13:27:38 2020, MaxMem=  2684354560 cpu:              32.9 elap:               3.7
 (Enter /udrive/faculty/rpeverati/g16/g16/l508.exe)
 QCSCF skips out because SCF is already converged.
 Leave Link  508 at Wed Oct  7 13:27:39 2020, MaxMem=  2684354560 cpu:               0.6 elap:               0.7
 (Enter /udrive/faculty/rpeverati/g16/g16/l701.exe)
 ... and contract with generalized density number  0.
 Compute integral first derivatives.
 Leave Link  701 at Wed Oct  7 13:27:41 2020, MaxMem=  2684354560 cpu:               7.5 elap:               1.5
 (Enter /udrive/faculty/rpeverati/g16/g16/l702.exe)
 L702 exits ... SP integral derivatives will be done elsewhere.
 Leave Link  702 at Wed Oct  7 13:27:42 2020, MaxMem=  2684354560 cpu:               1.4 elap:               0.6
 (Enter /udrive/faculty/rpeverati/g16/g16/l703.exe)
 Integral derivatives from FoFJK, PRISM(SPDF).
 Compute integral first derivatives, UseDBF=F ICtDFT=           0.
 Calling FoFJK, ICntrl=      2127 FMM=F ISym2X=1 I1Cent= 0 IOpClX= 1 NMat=1 NMatS=1 NMatT=0.
 FoFJK:  IHMeth= 1 ICntrl=    2127 DoSepK=F KAlg= 0 I1Cent=           0 FoldK=F
 IRaf=         0 NMat=       1 IRICut=       1 DoRegI=T DoRafI=F ISym2E= 1 IDoP0=0 IntGTp=1.
 FoFCou: FMM=F IPFlag=           0 FMFlag=      100000 FMFlg1=         800
         NFxFlg=           0 DoJE=F BraDBF=F KetDBF=F FulRan=T
         wScrn=  0.000000 ICntrl=      2127 IOpCl=  1 I1Cent=           0 NGrid=           0
         NMat0=    1 NMatS0=      1 NMatT0=    0 NMatD0=    1 NMtDS0=    0 NMtDT0=    0
 Petite list used in FoFCou.
 Leave Link  703 at Wed Oct  7 13:27:44 2020, MaxMem=  2684354560 cpu:               9.6 elap:               1.5
 (Enter /udrive/faculty/rpeverati/g16/g16/l716.exe)
 Dipole        = 5.58479743D-02-6.86041898D-02 0.00000000D+00
 ***** Axes restored to original set *****
 -------------------------------------------------------------------
 Center     Atomic                   Forces (Hartrees/Bohr)
 Number     Number              X              Y              Z
 -------------------------------------------------------------------
      1        6           0.000199489    0.000989864   -0.000000000
      2        6          -0.000590885   -0.000714923    0.000000000
      3        1          -0.000027285   -0.000198390   -0.000000000
      4        1           0.000006753   -0.000137196   -0.000030184
      5        1           0.000006753   -0.000137196    0.000030184
      6        1           0.000202587    0.000098921    0.000049281
      7        1           0.000202587    0.000098921   -0.000049281
 -------------------------------------------------------------------
 Cartesian Forces:  Max     0.000989864 RMS     0.000313662
 Leave Link  716 at Wed Oct  7 13:27:45 2020, MaxMem=  2684354560 cpu:               1.6 elap:               0.7
 (Enter /udrive/faculty/rpeverati/g16/g16/l103.exe)

 GradGradGradGradGradGradGradGradGradGradGradGradGradGradGradGradGradGrad
 Berny optimization.
 Optmz: redundant internal coordinate code flag= 1
 Using GEDIIS/GDIIS optimizer.
 Red2BG:  D1=  2.84D-01 OD1=  5.98D-02 B2RMS=  0.00D+00 IAprox=0
 FormGI is forming the generalized inverse of G from B-inverse, IUseBI=4.
 Internal  Forces:  Max     0.000515823 RMS     0.000159339
 Search for a local minimum.
 Step number   2 out of a maximum of  100
 All quantities printed in internal units (Hartrees-Bohrs-Radians)
 RMS Force = .15934D-03 SwitMx=.10000D-02 MixMth= 2
 Mixed Optimization -- En-DIIS/RFO-DIIS
 Update second derivatives using D2CorX and points    1    2
 DE= -7.73D-05 DEPred=-6.75D-05 R= 1.14D+00
 TightC=F SS=  1.41D+00  RLast= 5.53D-02 DXNew= 5.0454D-01 1.6584D-01
 Trust test= 1.14D+00 RLast= 5.53D-02 DXMaxT set to 3.00D-01
 The second derivative matrix:
                          R1        R2        R3        R4        R5
           R1           0.32975
           R2           0.01065   0.34946
           R3           0.01017   0.00916   0.35740
           R4           0.01017   0.00916   0.00932   0.35740
           R5           0.00737   0.00639   0.00651   0.00651   0.36508
           R6           0.00737   0.00639   0.00651   0.00651   0.00454
           A1           0.00435  -0.00503  -0.00468  -0.00468  -0.00344
           A2           0.00015  -0.00141  -0.00136  -0.00136  -0.00098
           A3           0.00015  -0.00141  -0.00136  -0.00136  -0.00098
           A4          -0.00126   0.00055   0.00048   0.00048   0.00036
           A5          -0.00126   0.00055   0.00048   0.00048   0.00036
           A6          -0.00243   0.00738   0.00704   0.00704   0.00510
           A7          -0.00148   0.00631   0.00605   0.00605   0.00437
           A8          -0.00148   0.00631   0.00605   0.00605   0.00437
           A9          -0.00287   0.01068   0.01022   0.01022   0.00740
           D1          -0.00085   0.00182   0.00173   0.00173   0.00126
           D2           0.00085  -0.00182  -0.00173  -0.00173  -0.00126
           D3          -0.00099   0.00454   0.00436   0.00436   0.00315
           D4           0.00071   0.00089   0.00090   0.00090   0.00063
           D5          -0.00071  -0.00089  -0.00090  -0.00090  -0.00063
           D6           0.00099  -0.00454  -0.00436  -0.00436  -0.00315
                          R6        A1        A2        A3        A4
           R6           0.36508
           A1          -0.00344   0.15627
           A2          -0.00098  -0.00037   0.16002
           A3          -0.00098  -0.00037   0.00002   0.16002
           A4           0.00036   0.00090   0.00013   0.00013   0.15981
           A5           0.00036   0.00090   0.00013   0.00013  -0.00019
           A6           0.00510   0.00297   0.00010   0.00010  -0.00086
           A7           0.00437   0.00216   0.00002   0.00002  -0.00067
           A8           0.00437   0.00216   0.00002   0.00002  -0.00067
           A9           0.00740   0.00388   0.00007   0.00007  -0.00117
           D1           0.00126   0.00089   0.00005   0.00005  -0.00024
           D2          -0.00126  -0.00089  -0.00005  -0.00005   0.00024
           D3           0.00315   0.00150   0.00000   0.00000  -0.00047
           D4           0.00063  -0.00027  -0.00010  -0.00010   0.00001
           D5          -0.00063   0.00027   0.00010   0.00010  -0.00001
           D6          -0.00315  -0.00150  -0.00000  -0.00000   0.00047
                          A5        A6        A7        A8        A9
           A5           0.15981
           A6          -0.00086   0.15836
           A7          -0.00067  -0.00099   0.15948
           A8          -0.00067  -0.00099  -0.00052   0.15948
           A9          -0.00117  -0.00192  -0.00107  -0.00107   0.15784
           D1          -0.00024  -0.00057  -0.00038  -0.00038  -0.00071
           D2           0.00024   0.00057   0.00038   0.00038   0.00071
           D3          -0.00047  -0.00066  -0.00033  -0.00033  -0.00070
           D4           0.00001   0.00049   0.00043   0.00043   0.00072
           D5          -0.00001  -0.00049  -0.00043  -0.00043  -0.00072
           D6           0.00047   0.00066   0.00033   0.00033   0.00070
                          D1        D2        D3        D4        D5
           D1           0.00866
           D2           0.00019   0.00866
           D3          -0.00026   0.00026   0.00864
           D4           0.00012  -0.00012   0.00031   0.00893
           D5          -0.00012   0.00012  -0.00031  -0.00008   0.00893
           D6           0.00026  -0.00026   0.00021  -0.00031   0.00031
                          D6
           D6           0.00864
 ITU=  1  0
 Use linear search instead of GDIIS.
 Eigenvectors of the second derivative matrix:
                           1         2         3         4         5
     Eigenvalues --     0.00799   0.00884   0.07153   0.07184   0.15417
   1         R1        -0.00960   0.00000  -0.00537   0.00000  -0.03336
   2         R2         0.01587   0.00000  -0.00006   0.00000   0.03264
   3         R3         0.01464   0.00000  -0.00028   0.00000   0.02905
   4         R4         0.01464   0.00000  -0.00028   0.00000   0.02905
   5         R5         0.01030   0.00000  -0.00010   0.00000   0.02013
   6         R6         0.01030   0.00000  -0.00010   0.00000   0.02013
   7         A1         0.01763  -0.00000   0.25586  -0.00000   0.59699
   8         A2         0.00254  -0.00000  -0.12121  -0.21645   0.21800
   9         A3         0.00254  -0.00000  -0.12121   0.21645   0.21800
  10         A4        -0.00712   0.00000   0.22821  -0.40189  -0.44027
  11         A5        -0.00712   0.00000   0.22821   0.40189  -0.44027
  12         A6        -0.01007   0.00000  -0.46522   0.00000  -0.22916
  13         A7        -0.04504   0.00000   0.00269  -0.00000   0.13402
  14         A8        -0.04504   0.00000   0.00269  -0.00000   0.13402
  15         A9        -0.05386   0.00000  -0.00348   0.00000  -0.25899
  16         D1        -0.40650   0.40825   0.00511   0.44093   0.00988
  17         D2         0.40650   0.40825  -0.00511   0.44093  -0.00988
  18         D3        -0.40182   0.40825   0.38733  -0.22047   0.00488
  19         D4         0.41118   0.40825   0.37710  -0.22047  -0.01488
  20         D5        -0.41118   0.40825  -0.37710  -0.22047   0.01488
  21         D6         0.40182   0.40825  -0.38733  -0.22047  -0.00488
                           6         7         8         9        10
     Eigenvalues --     0.16000   0.16000   0.16000   0.16041   0.32328
   1         R1         0.00000   0.00000   0.00000   0.00294  -0.94489
   2         R2         0.00000   0.00000   0.00000   0.01313   0.23366
   3         R3         0.00000   0.00000   0.00000   0.01233   0.14033
   4         R4         0.00000   0.00000   0.00000   0.01233   0.14033
   5         R5         0.00000   0.00000   0.00000   0.00826   0.07171
   6         R6         0.00000   0.00000   0.00000   0.00826   0.07171
   7         A1        -0.04583   0.00288   0.00358  -0.55801  -0.02893
   8         A2         0.33789   0.31740   0.49970   0.39674  -0.01244
   9         A3         0.21446  -0.35207  -0.54283   0.39674  -0.01244
  10         A4        -0.15749  -0.17248  -0.27104   0.08375   0.02080
  11         A5        -0.09102   0.18808   0.29045   0.08375   0.02080
  12         A6        -0.30020   0.01884   0.02344  -0.42989   0.01622
  13         A7        -0.34247   0.61652  -0.35536   0.17281  -0.00681
  14         A8        -0.35735  -0.57259   0.41001   0.17281  -0.00681
  15         A9         0.68523  -0.04301  -0.05351  -0.33859   0.01578
  16         D1        -0.00000  -0.00000   0.00000  -0.00054   0.00700
  17         D2        -0.00000  -0.00000   0.00000   0.00054  -0.00700
  18         D3         0.00000  -0.00000  -0.00000  -0.00142   0.00527
  19         D4         0.00000  -0.00000  -0.00000  -0.00033  -0.00873
  20         D5         0.00000   0.00000   0.00000   0.00033   0.00873
  21         D6        -0.00000   0.00000   0.00000   0.00142  -0.00527
                          11        12        13        14        15
     Eigenvalues --     0.34262   0.34809   0.35626   0.36053   0.39484
   1         R1         0.10406   0.00000  -0.09039  -0.00000  -0.29487
   2         R2         0.86790  -0.00000  -0.21272   0.00000  -0.38134
   3         R3        -0.33568   0.70711  -0.40876  -0.00000  -0.44647
[...]
 En-DIIS/RFO-DIIS/Sim-DIIS IScMMF=       -3 using points:     4    3    2
 Iter=   1 RLamda=-4.41822476D-02 Sum=-5.27635795D-08.
 Iter=   2 RLamda=-5.27635795D-08 Sum=-7.06642425D-08.
 Iter=   3 RLamda=-7.06642425D-08 Sum=-7.06642101D-08.
 RFO step:  Lambda=-7.06642425D-08.
 NNeg= 0 NGDIIS= 3 SimSw=  2.50D-01 Rises=F DC= -6.54D-07 SmlDif=  1.00D-05
 NRisDI= 0 DoIntr=F SqrtH=F CThrHd= 10.0 CDAdj=  3.0
 RMS Error=  0.2935421981D-03 NUsed= 3 OKEnD=F EnDIS=F
 Total RFO-DIIS matrix:
                 1             2             3             4 
      1   0.000000D+00 -0.100000D+01 -0.100000D+01 -0.100000D+01
      2  -0.100000D+01  0.180951D-05  0.171080D-04  0.587896D-04
      3  -0.100000D+01  0.171080D-04  0.184013D-03  0.656064D-03
      4  -0.100000D+01  0.587896D-04  0.656064D-03  0.236585D-02
 InvSVX:  RCond= 1.80D-07 Info=           0 Equed=N FErr=  1.57D-13 BErr=  7.96D-17
 DidBck=F Rises=F RFO-DIIS coefs:    1.41000   -0.51889    0.10888
 Iteration  1 RMS(Cart)=  0.00020181 RMS(Int)=  0.00000658
 Iteration  2 RMS(Cart)=  0.00000005 RMS(Int)=  0.00000658
 ITry= 1 IFail=0 DXMaxC= 6.39D-04 DCOld= 1.00D+10 DXMaxT= 3.00D-01 DXLimC= 3.00D+00 Rises=F
 ClnCor:  largest displacement from symmetrization is 2.09D-13 for atom     7.
 Variable       Old X    -DE/DX   Delta X   Delta X   Delta X     New X
                                 (Linear)    (Quad)   (Total)
    R1        2.81332   0.00005   0.00015   0.00003   0.00019   2.81350
    R2        2.08176  -0.00005  -0.00022   0.00004  -0.00017   2.08159
    R3        2.06845  -0.00006  -0.00021   0.00004  -0.00018   2.06827
    R4        2.06845  -0.00006  -0.00021   0.00004  -0.00018   2.06827
    R5        2.04623  -0.00002  -0.00005   0.00001  -0.00004   2.04619
    R6        2.04623  -0.00002  -0.00005   0.00001  -0.00004   2.04619
    A1        1.95652  -0.00004  -0.00030  -0.00006  -0.00036   1.95616
    A2        1.94728  -0.00001   0.00002  -0.00012  -0.00009   1.94719
    A3        1.94728  -0.00001   0.00002  -0.00012  -0.00009   1.94719
    A4        1.86140   0.00003   0.00009   0.00012   0.00020   1.86161
    A5        1.86140   0.00003   0.00009   0.00012   0.00020   1.86161
    A6        1.88507   0.00002   0.00010   0.00008   0.00018   1.88525
    A7        2.10426   0.00000  -0.00003  -0.00002  -0.00003   2.10423
    A8        2.10426   0.00000  -0.00003  -0.00002  -0.00003   2.10423
    A9        2.04831  -0.00001  -0.00015   0.00003  -0.00011   2.04820
    D1        1.44525  -0.00000  -0.00040  -0.00001  -0.00041   1.44485
    D2       -1.44525   0.00000   0.00040   0.00001   0.00041  -1.44485
    D3       -2.75151  -0.00001  -0.00048   0.00002  -0.00046  -2.75196
    D4        0.64117  -0.00000   0.00032   0.00003   0.00036   0.64153
    D5       -0.64117   0.00000  -0.00032  -0.00003  -0.00036  -0.64153
    D6        2.75151   0.00001   0.00048  -0.00002   0.00046   2.75196
         Item               Value     Threshold  Converged?
 Maximum Force            0.000055     0.000450     YES
 RMS     Force            0.000028     0.000300     YES
 Maximum Displacement     0.000639     0.001800     YES
 RMS     Displacement     0.000202     0.001200     YES
 Predicted change in Energy=-3.387912D-08
 Optimization completed.
    -- Stationary point found.
                           ----------------------------
                           !   Optimized Parameters   !
                           ! (Angstroms and Degrees)  !
 --------------------------                            --------------------------
 ! Name  Definition              Value          Derivative Info.                !
 --------------------------------------------------------------------------------
 ! R1    R(1,2)                  1.4887         -DE/DX =    0.0                 !
 ! R2    R(1,3)                  1.1016         -DE/DX =   -0.0001              !
 ! R3    R(1,4)                  1.0946         -DE/DX =   -0.0001              !
 ! R4    R(1,5)                  1.0946         -DE/DX =   -0.0001              !
 ! R5    R(2,6)                  1.0828         -DE/DX =    0.0                 !
 ! R6    R(2,7)                  1.0828         -DE/DX =    0.0                 !
 ! A1    A(2,1,3)              112.1004         -DE/DX =    0.0                 !
 ! A2    A(2,1,4)              111.5711         -DE/DX =    0.0                 !
 ! A3    A(2,1,5)              111.5711         -DE/DX =    0.0                 !
 ! A4    A(3,1,4)              106.6505         -DE/DX =    0.0                 !
 ! A5    A(3,1,5)              106.6505         -DE/DX =    0.0                 !
 ! A6    A(4,1,5)              108.0066         -DE/DX =    0.0                 !
 ! A7    A(1,2,6)              120.5651         -DE/DX =    0.0                 !
 ! A8    A(1,2,7)              120.5651         -DE/DX =    0.0                 !
 ! A9    A(6,2,7)              117.3596         -DE/DX =    0.0                 !
 ! D1    D(3,1,2,6)             82.8069         -DE/DX =    0.0                 !
 ! D2    D(3,1,2,7)            -82.8069         -DE/DX =    0.0                 !
 ! D3    D(4,1,2,6)           -157.6498         -DE/DX =    0.0                 !
 ! D4    D(4,1,2,7)             36.7365         -DE/DX =    0.0                 !
 ! D5    D(5,1,2,6)            -36.7365         -DE/DX =    0.0                 !
 ! D6    D(5,1,2,7)            157.6498         -DE/DX =    0.0                 !
 --------------------------------------------------------------------------------
 Lowest energy point so far.  Saving SCF results.
 Largest change from initial coordinates is atom    6       0.035 Angstoms.
 GradGradGradGradGradGradGradGradGradGradGradGradGradGradGradGradGradGrad

 Leave Link  103 at Wed Oct  7 13:28:27 2020, MaxMem=  2684354560 cpu:              11.7 elap:               1.7
 (Enter /udrive/faculty/rpeverati/g16/g16/l202.exe)
                          Input orientation:                          
 ---------------------------------------------------------------------
 Center     Atomic      Atomic             Coordinates (Angstroms)
 Number     Number       Type             X           Y           Z
 ---------------------------------------------------------------------
      1          6           0       -0.012827   -0.692516   -0.000000
      2          6           0       -0.031583    0.796108    0.000000
      3          1           0        1.012994   -1.094089   -0.000000
      4          1           0       -0.509633   -1.101235    0.885568
      5          1           0       -0.509633   -1.101235   -0.885568
      6          1           0        0.078216    1.348167   -0.925027
      7          1           0        0.078216    1.348167    0.925027
 ---------------------------------------------------------------------
                    Distance matrix (angstroms):
                    1          2          3          4          5
     1  C    0.000000
     2  C    1.488743   0.000000
     3  H    1.101621   2.159626   0.000000
     4  H    1.094576   2.147714   1.761441   0.000000
     5  H    1.094576   2.147714   1.761441   1.771135   0.000000
     6  H    2.242399   1.082821   2.773824   3.102160   2.519265
     7  H    2.242399   1.082821   2.773824   2.519265   3.102160
                    6          7
     6  H    0.000000
     7  H    1.850055   0.000000
 Stoichiometry    C2H5(2)
 Framework group  CS[SG(C2H),X(H4)]
 Deg. of freedom     9
 Full point group                 CS      NOp   2
 RotChk:  IX=0 Diff= 3.60D-16
 Largest Abelian subgroup         CS      NOp   2
 Largest concise Abelian subgroup CS      NOp   2
                         Standard orientation:                         
 ---------------------------------------------------------------------
 Center     Atomic      Atomic             Coordinates (Angstroms)
 Number     Number       Type             X           Y           Z
 ---------------------------------------------------------------------
      1          6           0       -0.014726   -0.693640   -0.000000
      2          6           0       -0.014726    0.795102    0.000000
      3          1           0        1.005954   -1.108105   -0.000000
      4          1           0       -0.516642   -1.096068    0.885568
      5          1           0       -0.516642   -1.096068   -0.885568
      6          1           0        0.102020    1.345734   -0.925027
      7          1           0        0.102020    1.345734    0.925027
 ---------------------------------------------------------------------
 Rotational constants (GHZ):         103.4689329          22.7241673          21.0870583
 Leave Link  202 at Wed Oct  7 13:28:28 2020, MaxMem=  2684354560 cpu:               2.6 elap:               0.9
 (Enter /udrive/faculty/rpeverati/g16/g16/l601.exe)
 Copying SCF densities to generalized density rwf, IOpCl= 1 IROHF=0.

 **********************************************************************

            Population analysis using the SCF density.

 **********************************************************************

 Orbital symmetries:
 Alpha Orbitals:
       Occupied  (A') (A') (A') (A') (A") (A') (A') (A") (A')
       Virtual   (A') (A') (A") (A') (A") (A') (A') (A") (A') (A')
                 (A') (A") (A') (A") (A') (A") (A') (A') (A') (A')
                 (A") (A") (A') (A') (A') (A") (A') (A") (A')
 Beta  Orbitals:
       Occupied  (A') (A') (A') (A') (A") (A') (A') (A")
       Virtual   (A') (A') (A") (A') (A') (A") (A') (A') (A") (A')
                 (A') (A') (A") (A') (A') (A") (A") (A') (A') (A')
                 (A') (A") (A") (A') (A') (A") (A') (A') (A") (A')
 The electronic state is 2-A'.
 Alpha  occ. eigenvalues --  -10.53814 -10.52974  -0.84720  -0.68852  -0.51750
 Alpha  occ. eigenvalues --   -0.47619  -0.44938  -0.41524  -0.24905
 Alpha virt. eigenvalues --    0.16434   0.19359   0.19692   0.22781   0.26700
 Alpha virt. eigenvalues --    0.30358   0.56115   0.58435   0.60439   0.66524
 Alpha virt. eigenvalues --    0.67510   0.78537   0.84772   0.93949   0.94205
 Alpha virt. eigenvalues --    1.01003   1.01684   1.03385   1.31518   1.52130
 Alpha virt. eigenvalues --    1.69318   1.82342   1.96616   2.03196   2.20665
 Alpha virt. eigenvalues --    2.24376   2.37629   2.49116   2.60720
  Beta  occ. eigenvalues --  -10.53082 -10.53033  -0.82701  -0.65928  -0.50729
  Beta  occ. eigenvalues --   -0.45718  -0.43870  -0.41052
  Beta virt. eigenvalues --    0.02296   0.16522   0.20140   0.20278   0.23076
  Beta virt. eigenvalues --    0.27346   0.31635   0.56297   0.58591   0.64272
  Beta virt. eigenvalues --    0.68213   0.69803   0.78905   0.87468   0.94448
  Beta virt. eigenvalues --    0.95288   1.02505   1.03221   1.05529   1.31912
  Beta virt. eigenvalues --    1.55468   1.75350   1.84026   2.00825   2.07668
  Beta virt. eigenvalues --    2.26139   2.27352   2.39114   2.52776   2.66297
          Condensed to atoms (all electrons):
               1          2          3          4          5          6
     1  C    5.059984   0.370457   0.378020   0.385657   0.385657  -0.036449
     2  C    0.370457   5.291587  -0.045517  -0.035351  -0.035351   0.386273
     3  H    0.378020  -0.045517   0.563594  -0.033110  -0.033110   0.000251
     4  H    0.385657  -0.035351  -0.033110   0.540230  -0.026394   0.003496
     5  H    0.385657  -0.035351  -0.033110  -0.026394   0.540230  -0.004479
     6  H   -0.036449   0.386273   0.000251   0.003496  -0.004479   0.525683
     7  H   -0.036449   0.386273   0.000251  -0.004479   0.003496  -0.032636
               7
     1  C   -0.036449
     2  C    0.386273
     3  H    0.000251
     4  H   -0.004479
     5  H    0.003496
     6  H   -0.032636
     7  H    0.525683
          Atomic-Atomic Spin Densities.
               1          2          3          4          5          6
     1  C   -0.071035  -0.040476   0.015181   0.005960   0.005960   0.001150
     2  C   -0.040476   1.226422  -0.031745  -0.008619  -0.008619  -0.009332
     3  H    0.015181  -0.031745   0.094285  -0.010500  -0.010500  -0.000572
     4  H    0.005960  -0.008619  -0.010500   0.020563   0.004181   0.000050
     5  H    0.005960  -0.008619  -0.010500   0.004181   0.020563   0.000575
     6  H    0.001150  -0.009332  -0.000572   0.000050   0.000575  -0.052661
     7  H    0.001150  -0.009332  -0.000572   0.000575   0.000050   0.002698
               7
     1  C    0.001150
     2  C   -0.009332
     3  H   -0.000572
     4  H    0.000575
     5  H    0.000050
     6  H    0.002698
     7  H   -0.052661
 Mulliken charges and spin densities:
               1          2
     1  C   -0.506876  -0.082110
     2  C   -0.318371   1.118299
     3  H    0.169623   0.055577
     4  H    0.169952   0.012210
     5  H    0.169952   0.012210
     6  H    0.157861  -0.058093
     7  H    0.157861  -0.058093
 Sum of Mulliken charges =  -0.00000   1.00000
 Mulliken charges and spin densities with hydrogens summed into heavy atoms:
               1          2
     1  C    0.002650  -0.002113
     2  C   -0.002650   1.002113
 Electronic spatial extent (au):  <R**2>=             98.6319
 Charge=             -0.0000 electrons
 Dipole moment (field-independent basis, Debye):
    X=              0.1657    Y=             -0.1789    Z=              0.0000  Tot=              0.2439
 Quadrupole moment (field-independent basis, Debye-Ang):
   XX=            -14.9627   YY=            -14.0289   ZZ=            -13.4600
   XY=              0.2571   XZ=              0.0000   YZ=              0.0000
 Traceless Quadrupole moment (field-independent basis, Debye-Ang):
   XX=             -0.8122   YY=              0.1216   ZZ=              0.6905
   XY=              0.2571   XZ=              0.0000   YZ=              0.0000
 Octapole moment (field-independent basis, Debye-Ang**2):
  XXX=              0.6718  YYY=              0.2930  ZZZ=              0.0000  XYY=              0.3694
  XXY=             -1.3341  XXZ=              0.0000  XZZ=             -0.3756  YZZ=              0.5356
  YYZ=              0.0000  XYZ=              0.0000
 Hexadecapole moment (field-independent basis, Debye-Ang**3):
 XXXX=            -22.3483 YYYY=            -83.7939 ZZZZ=            -27.2962 XXXY=             -1.0655
 XXXZ=              0.0000 YYYX=             -0.0053 YYYZ=              0.0000 ZZZX=              0.0000
 ZZZY=              0.0000 XXYY=            -18.0781 XXZZ=             -8.5364 YYZZ=            -16.4682
 XXYZ=             -0.0000 YYXZ=              0.0000 ZZXY=              0.7364
 N-N= 3.693154557296D+01 E-N=-2.566264554282D+02  KE= 7.863962671503D+01
                          Isotropic Fermi Contact Couplings
        Atom                 a.u.       MegaHertz       Gauss      10(-4) cm-1
     1  C(13)             -0.02922     -32.84735     -11.72075     -10.95670
     2  C(13)              0.17715     199.15212      71.06243      66.43000
     3  H(1)               0.03082     137.74740      49.15170      45.94759
     4  H(1)               0.00747      33.39040      11.91453      11.13784
     5  H(1)               0.00747      33.39040      11.91453      11.13784
     6  H(1)              -0.01643     -73.44673     -26.20762     -24.49919
     7  H(1)              -0.01643     -73.44673     -26.20762     -24.49919
 --------------------------------------------------------
       Center         ----  Spin Dipole Couplings  ----
                      3XX-RR        3YY-RR        3ZZ-RR
 --------------------------------------------------------
     1   Atom        0.006031      0.007282     -0.013313
     2   Atom        1.022919     -0.513198     -0.509720
     3   Atom       -0.002221      0.013226     -0.011005
     4   Atom       -0.008246      0.013787     -0.005542
     5   Atom       -0.008246      0.013787     -0.005542
     6   Atom       -0.006951     -0.033282      0.040233
     7   Atom       -0.006951     -0.033282      0.040233
 --------------------------------------------------------
                        XY            XZ            YZ
 --------------------------------------------------------
     1   Atom       -0.004478     -0.000000     -0.000000
     2   Atom       -0.111991     -0.000000     -0.000000
     3   Atom       -0.010162     -0.000000      0.000000
     4   Atom        0.003899     -0.001245     -0.010856
     5   Atom        0.003899      0.001245      0.010856
     6   Atom        0.003078     -0.013404     -0.065676
     7   Atom        0.003078      0.013404      0.065676
 --------------------------------------------------------


 ---------------------------------------------------------------------------------
              Anisotropic Spin Dipole Couplings in Principal Axis System
 ---------------------------------------------------------------------------------

       Atom             a.u.   MegaHertz   Gauss  10(-4) cm-1        Axes

              Baa    -0.0133    -1.786    -0.637    -0.596  0.0000  0.0000  1.0000
     1 C(13)  Bbb     0.0021     0.286     0.102     0.096  0.7544  0.6564 -0.0000
              Bcc     0.0112     1.500     0.535     0.500 -0.6564  0.7544 -0.0000
 
              Baa    -0.5213   -69.956   -24.962   -23.335  0.0723  0.9974  0.0000
     2 C(13)  Bbb    -0.5097   -68.400   -24.407   -22.816 -0.0000 -0.0000  1.0000
              Bcc     1.0310   138.356    49.369    46.151  0.9974 -0.0723 -0.0000
 
              Baa    -0.0110    -5.872    -2.095    -1.959  0.0000  0.0000  1.0000
     3 H(1)   Bbb    -0.0073    -3.874    -1.382    -1.292  0.8959  0.4443  0.0000
              Bcc     0.0183     9.746     3.478     3.251 -0.4443  0.8959  0.0000
 
              Baa    -0.0105    -5.621    -2.006    -1.875 -0.2581  0.4280  0.8662
     4 H(1)   Bbb    -0.0087    -4.655    -1.661    -1.553  0.9550 -0.0228  0.2958
              Bcc     0.0193    10.276     3.667     3.428  0.1463  0.9035 -0.4028
 
              Baa    -0.0105    -5.621    -2.006    -1.875  0.2581 -0.4280  0.8662
     5 H(1)   Bbb    -0.0087    -4.655    -1.661    -1.553  0.9550 -0.0228 -0.2958
              Bcc     0.0193    10.276     3.667     3.428  0.1463  0.9035  0.4028
 
              Baa    -0.0721   -38.444   -13.718   -12.824  0.0643  0.8580  0.5095
     6 H(1)   Bbb    -0.0087    -4.616    -1.647    -1.540  0.9869 -0.1305  0.0952
              Bcc     0.0807    43.060    15.365    14.363 -0.1482 -0.4967  0.8552
 
              Baa    -0.0721   -38.444   -13.718   -12.824  0.0643  0.8580 -0.5095
     7 H(1)   Bbb    -0.0087    -4.616    -1.647    -1.540  0.9869 -0.1305 -0.0952
              Bcc     0.0807    43.060    15.365    14.363  0.1482  0.4967  0.8552
 

 ---------------------------------------------------------------------------------

 No NMR shielding tensors so no spin-rotation constants.
 Leave Link  601 at Wed Oct  7 13:28:30 2020, MaxMem=  2684354560 cpu:              14.3 elap:               2.0
 (Enter /udrive/faculty/rpeverati/g16/g16/l9999.exe)

 Test job not archived.
 1\1\GINC-NODE62\FOpt\UM062X\6-31G(d)\C2H5(2)\RPEVERATI\07-Oct-2020\0\\
 #P Opt(MaxCyc=100) M062X/6-31G* 5D 7F Integral=UltraFineGrid SCF=(NoSy
 mm,XQC,MaxCyc=120) IOp(1/33=1)\\TS search on BH76.\\0,2\C,-0.012827188
 3,-0.6925163685,0.\C,-0.0315829391,0.7961082254,0.\H,1.0129935608,-1.0
 940886862,0.\H,-0.5096330808,-1.1012353583,0.8855676236\H,-0.509633080
 8,-1.1012353583,-0.8855676236\H,0.0782162746,1.3481673667,-0.925027315
 2\H,0.0782162746,1.3481673667,0.9250273152\\Version=ES64L-G16RevA.03\S
 tate=2-A'\HF=-79.0995589\S2=0.754942\S2-1=0.\S2A=0.750018\RMSD=2.319e-
 09\RMSF=4.655e-05\Dipole=0.0660913,-0.0695766,0.\Quadrupole=-0.608537,
 0.0951485,0.5133884,0.1823574,0.,0.\PG=CS [SG(C2H1),X(H4)]\\@


 NATURE REVEALS EVERY SECRET ONCE.
                    - RALPH WALDO EMERSON
 Job cpu time:       0 days  0 hours  7 minutes 39.2 seconds.
 Elapsed time:       0 days  0 hours  1 minutes 11.8 seconds.
 File lengths (MBytes):  RWF=      5 Int=      0 D2E=      0 Chk=      1 Scr=      1
 Normal termination of Gaussian 16 at Wed Oct  7 13:28:32 2020.
