 Entering Gaussian System, Link 0=g16
 Input=MN_11_c2h4_BH76_M062X_631Gs.in
 Output=MN_11_c2h4_BH76_M062X_631Gs.log
 Initial command:
 /udrive/faculty/rpeverati/g16/g16/l1.exe "/udrive/scratch-directories/gaussian09/rpeverati/Gau-19515.inp" -scrdir="/udrive/scratch-directories/gaussian09/rpeverati/"
 Entering Link 1 = /udrive/faculty/rpeverati/g16/g16/l1.exe PID=     19530.
  
 Copyright (c) 1988,1990,1992,1993,1995,1998,2003,2009,2016,
            Gaussian, Inc.  All Rights Reserved.
  
 This is part of the Gaussian(R) 16 program.  It is based on
 the Gaussian(R) 09 system (copyright 2009, Gaussian, Inc.),
 the Gaussian(R) 03 system (copyright 2003, Gaussian, Inc.),
 the Gaussian(R) 98 system (copyright 1998, Gaussian, Inc.),
 the Gaussian(R) 94 system (copyright 1995, Gaussian, Inc.),
 the Gaussian 92(TM) system (copyright 1992, Gaussian, Inc.),
 the Gaussian 90(TM) system (copyright 1990, Gaussian, Inc.),
 the Gaussian 88(TM) system (copyright 1988, Gaussian, Inc.),
 the Gaussian 86(TM) system (copyright 1986, Carnegie Mellon
 University), and the Gaussian 82(TM) system (copyright 1983,
 Carnegie Mellon University). Gaussian is a federally registered
 trademark of Gaussian, Inc.
  
 This software contains proprietary and confidential information,
 including trade secrets, belonging to Gaussian, Inc.
  
 This software is provided under written license and may be
 used, copied, transmitted, or stored only in accord with that
 written license.
  
 The following legend is applicable only to US Government
 contracts under FAR:
  
                    RESTRICTED RIGHTS LEGEND
  
 Use, reproduction and disclosure by the US Government is
 subject to restrictions as set forth in subparagraphs (a)
 and (c) of the Commercial Computer Software - Restricted
 Rights clause in FAR 52.227-19.
  
 Gaussian, Inc.
 340 Quinnipiac St., Bldg. 40, Wallingford CT 06492
  
  
 ---------------------------------------------------------------
 Warning -- This program may not be used in any manner that
 competes with the business of Gaussian, Inc. or will provide
 assistance to any competitor of Gaussian, Inc.  The licensee
 of this program is prohibited from giving any competitor of
 Gaussian, Inc. access to this program.  By using this program,
 the user acknowledges that Gaussian, Inc. is engaged in the
 business of creating and licensing software in the field of
 computational chemistry and represents and warrants to the
 licensee that it is not a competitor of Gaussian, Inc. and that
 it will not use this program in any manner prohibited above.
 ---------------------------------------------------------------
  

 Cite this work as:
 Gaussian 16, Revision A.03,
 M. J. Frisch, G. W. Trucks, H. B. Schlegel, G. E. Scuseria, 
 M. A. Robb, J. R. Cheeseman, G. Scalmani, V. Barone, 
 G. A. Petersson, H. Nakatsuji, X. Li, M. Caricato, A. V. Marenich, 
 J. Bloino, B. G. Janesko, R. Gomperts, B. Mennucci, H. P. Hratchian, 
 J. V. Ortiz, A. F. Izmaylov, J. L. Sonnenberg, D. Williams-Young, 
 F. Ding, F. Lipparini, F. Egidi, J. Goings, B. Peng, A. Petrone, 
 T. Henderson, D. Ranasinghe, V. G. Zakrzewski, J. Gao, N. Rega, 
 G. Zheng, W. Liang, M. Hada, M. Ehara, K. Toyota, R. Fukuda, 
 J. Hasegawa, M. Ishida, T. Nakajima, Y. Honda, O. Kitao, H. Nakai, 
 T. Vreven, K. Throssell, J. A. Montgomery, Jr., J. E. Peralta, 
 F. Ogliaro, M. J. Bearpark, J. J. Heyd, E. N. Brothers, K. N. Kudin, 
 V. N. Staroverov, T. A. Keith, R. Kobayashi, J. Normand, 
 K. Raghavachari, A. P. Rendell, J. C. Burant, S. S. Iyengar, 
 J. Tomasi, M. Cossi, J. M. Millam, M. Klene, C. Adamo, R. Cammi, 
 J. W. Ochterski, R. L. Martin, K. Morokuma, O. Farkas, 
 J. B. Foresman, and D. J. Fox, Gaussian, Inc., Wallingford CT, 2016.
 
 ******************************************
 Gaussian 16:  ES64L-G16RevA.03 25-Dec-2016
                 7-Oct-2020 
 ******************************************
 %NoSave
 %nproc=12
 Will use up to   12 processors via shared memory.
 %mem=20GB
 %chk=MN_11_c2h4_BH76_M062X_631Gs
 ----------------------------------------------------------------------
 #P Opt(MaxCyc=100) M062X/6-31G* 5D 7F Integral=UltraFineGrid SCF=(NoSy
 mm,XQC,MaxCyc=120) IOp(1/33=1)
 ----------------------------------------------------------------------
 1/6=100,18=20,19=15,26=4,33=1,38=1/1,3;
 2/9=110,12=2,17=6,18=5,40=1/2;
 3/5=1,6=6,7=1,8=11,11=2,25=1,30=1,71=1,74=-55,75=-5/1,2,3;
 4/9=2/1;
 5/5=2,7=120,8=3,13=1,38=5/2,8;
 6/7=2,8=2,9=2,10=2,28=1/1;
 7//1,2,3,16;
 1/6=100,18=20,19=15,26=4,33=1/3(2);
 2/9=110/2;
 99//99;
 2/9=110/2;
 3/5=1,6=6,7=1,8=11,11=2,25=1,30=1,71=1,74=-55,75=-5/1,2,3;
 4/5=5,9=2,16=3,69=1/1;
 5/5=2,7=120,8=3,13=1,38=5/2,8;
 7//1,2,3,16;
 1/6=100,18=20,19=15,26=4,33=1/3(-5);
 2/9=110/2;
 6/7=2,8=2,9=2,10=2,19=2,28=1/1;
 99/9=1/99;
 Leave Link    1 at Wed Oct  7 13:26:46 2020, MaxMem=  2684354560 cpu:               5.3 elap:               0.5
 (Enter /udrive/faculty/rpeverati/g16/g16/l101.exe)
 ONIOM data not found on unit 2.
 ------------------
 TS search on BH76.
 ------------------
 TstMul:  ICh=     0
 TstMul:  Mul=     1
 TstMul:  ICh=     0
 TstMul:  Mul=     1
 Symbolic Z-matrix:
 Charge =  0 Multiplicity = 1
 C                     0.        0.        0.66559 
 C                     0.        0.       -0.66559 
 H                     0.        0.92149   1.23167 
 H                     0.       -0.92149   1.23167 
 H                     0.        0.92149  -1.23167 
 H                     0.       -0.92149  -1.23167 
 
 RdStrC is calling ZToCFu for IStruc=1 NZ=     6.
 PrtBox:  NBox=     1 Levels=  1 BoxLen=    8.00 SMaxX=        4.66
          Shift=            0.000000            1.741370            2.327520
 Box      1 Number                   0 centers from      1 to      6:
 After GenITR:
 ITRead=  0  0  0  0  0  0
 MicOpt= -1 -1 -1 -1 -1 -1
 ITRead=  0  0  0  0  0  0
 MicOpt= -1 -1 -1 -1 -1 -1
 NAtoms=      6 NQM=        6 NQMF=       0 NMMI=      0 NMMIF=      0
                NMic=       0 NMicF=      0.
                    Isotopes and Nuclear Properties:
 (Nuclear quadrupole moments (NQMom) in fm**2, nuclear magnetic moments (NMagM)
  in nuclear magnetons)

  Atom         1           2           3           4           5           6
 IAtWgt=          12          12           1           1           1           1
 AtmWgt=  12.0000000  12.0000000   1.0078250   1.0078250   1.0078250   1.0078250
 NucSpn=           0           0           1           1           1           1
 AtZEff=   0.0000000   0.0000000   0.0000000   0.0000000   0.0000000   0.0000000
 NQMom=    0.0000000   0.0000000   0.0000000   0.0000000   0.0000000   0.0000000
 NMagM=    0.0000000   0.0000000   2.7928460   2.7928460   2.7928460   2.7928460
 AtZNuc=   6.0000000   6.0000000   1.0000000   1.0000000   1.0000000   1.0000000
 No MM parameters found.
 Leave Link  101 at Wed Oct  7 13:26:48 2020, MaxMem=  2684354560 cpu:              13.5 elap:               1.3
 (Enter /udrive/faculty/rpeverati/g16/g16/l103.exe)

 GradGradGradGradGradGradGradGradGradGradGradGradGradGradGradGradGradGrad
 Berny optimization.
 Optmz: redundant internal coordinate code flag= 1
 Initialization pass.
                           ----------------------------
                           !    Initial Parameters    !
                           ! (Angstroms and Degrees)  !
 --------------------------                            --------------------------
 ! Name  Definition              Value          Derivative Info.                !
 --------------------------------------------------------------------------------
 ! R1    R(1,2)                  1.3312         estimate D2E/DX2                !
 ! R2    R(1,3)                  1.0815         estimate D2E/DX2                !
 ! R3    R(1,4)                  1.0815         estimate D2E/DX2                !
 ! R4    R(2,5)                  1.0815         estimate D2E/DX2                !
 ! R5    R(2,6)                  1.0815         estimate D2E/DX2                !
 ! A1    A(2,1,3)              121.5626         estimate D2E/DX2                !
 ! A2    A(2,1,4)              121.5626         estimate D2E/DX2                !
 ! A3    A(3,1,4)              116.8749         estimate D2E/DX2                !
 ! A4    A(1,2,5)              121.5626         estimate D2E/DX2                !
 ! A5    A(1,2,6)              121.5626         estimate D2E/DX2                !
 ! A6    A(5,2,6)              116.8749         estimate D2E/DX2                !
 ! D1    D(3,1,2,5)              0.0            estimate D2E/DX2                !
 ! D2    D(3,1,2,6)            180.0            estimate D2E/DX2                !
 ! D3    D(4,1,2,5)            180.0            estimate D2E/DX2                !
 ! D4    D(4,1,2,6)              0.0            estimate D2E/DX2                !
 --------------------------------------------------------------------------------
 Maximum allowed force set to 1.00D+20.
 Trust Radius=3.00D-01 FncErr=1.00D-07 GrdErr=1.00D-06 EigMax=2.50D+02 EigMin=1.00D-04
 Number of steps in this run=    100 maximum allowed number of steps=    100.
 GradGradGradGradGradGradGradGradGradGradGradGradGradGradGradGradGradGrad

 Leave Link  103 at Wed Oct  7 13:26:49 2020, MaxMem=  2684354560 cpu:               2.0 elap:               0.6
 (Enter /udrive/faculty/rpeverati/g16/g16/l202.exe)
                          Input orientation:                          
 ---------------------------------------------------------------------
 Center     Atomic      Atomic             Coordinates (Angstroms)
 Number     Number       Type             X           Y           Z
 ---------------------------------------------------------------------
      1          6           0        0.000000    0.000000    0.665594
      2          6           0        0.000000    0.000000   -0.665594
      3          1           0        0.000000    0.921493    1.231671
      4          1           0        0.000000   -0.921493    1.231671
      5          1           0        0.000000    0.921493   -1.231671
      6          1           0        0.000000   -0.921493   -1.231671
 ---------------------------------------------------------------------
                    Distance matrix (angstroms):
                    1          2          3          4          5
     1  C    0.000000
     2  C    1.331188   0.000000
     3  H    1.081477   2.109209   0.000000
     4  H    1.081477   2.109209   1.842987   0.000000
     5  H    2.109209   1.081477   2.463341   3.076467   0.000000
     6  H    2.109209   1.081477   3.076467   2.463341   1.842987
                    6
     6  H    0.000000
 Stoichiometry    C2H4
 Framework group  D2H[C2"(C.C),SG(H4)]
 Deg. of freedom     3
 Full point group                 D2H     NOp   8
 Largest Abelian subgroup         D2H     NOp   8
 Largest concise Abelian subgroup D2      NOp   4
                         Standard orientation:                         
 ---------------------------------------------------------------------
 Center     Atomic      Atomic             Coordinates (Angstroms)
 Number     Number       Type             X           Y           Z
 ---------------------------------------------------------------------
      1          6           0        0.000000    0.000000    0.665594
      2          6           0        0.000000    0.000000   -0.665594
      3          1           0        0.000000    0.921493    1.231671
      4          1           0       -0.000000   -0.921493    1.231671
      5          1           0        0.000000    0.921493   -1.231671
      6          1           0       -0.000000   -0.921493   -1.231671
 ---------------------------------------------------------------------
 Rotational constants (GHZ):         147.6344406          30.1756739          25.0546419
 Leave Link  202 at Wed Oct  7 13:26:49 2020, MaxMem=  2684354560 cpu:               1.2 elap:               0.5
 (Enter /udrive/faculty/rpeverati/g16/g16/l301.exe)
 Standard basis: 6-31G(d) (5D, 7F)
 Ernie: Thresh=  0.10000D-02 Tol=  0.10000D-05 Strict=F.
 There are    10 symmetry adapted cartesian basis functions of AG  symmetry.
 There are     1 symmetry adapted cartesian basis functions of B1G symmetry.
 There are     3 symmetry adapted cartesian basis functions of B2G symmetry.
 There are     5 symmetry adapted cartesian basis functions of B3G symmetry.
 There are     1 symmetry adapted cartesian basis functions of AU  symmetry.
 There are    10 symmetry adapted cartesian basis functions of B1U symmetry.
 There are     5 symmetry adapted cartesian basis functions of B2U symmetry.
 There are     3 symmetry adapted cartesian basis functions of B3U symmetry.
 There are     9 symmetry adapted basis functions of AG  symmetry.
 There are     1 symmetry adapted basis functions of B1G symmetry.
 There are     3 symmetry adapted basis functions of B2G symmetry.
 There are     5 symmetry adapted basis functions of B3G symmetry.
 There are     1 symmetry adapted basis functions of AU  symmetry.
 There are     9 symmetry adapted basis functions of B1U symmetry.
 There are     5 symmetry adapted basis functions of B2U symmetry.
 There are     3 symmetry adapted basis functions of B3U symmetry.
    36 basis functions,    72 primitive gaussians,    38 cartesian basis functions
     8 alpha electrons        8 beta electrons
       nuclear repulsion energy        33.4235003430 Hartrees.
 IExCor= 4336 DFT=T Ex+Corr=M062X ExCW=0 ScaHFX=  0.540000
 ScaDFX=  1.000000  1.000000  1.000000  1.000000 ScalE2=  1.000000  1.000000
 IRadAn=      5 IRanWt=     -1 IRanGd=            0 ICorTp=0 IEmpDi=  4
 NAtoms=    6 NActive=    6 NUniq=    2 SFac= 4.00D+00 NAtFMM=   60 NAOKFM=F Big=F
 Integral buffers will be    131072 words long.
 Raffenetti 2 integral format.
 Two-electron integral symmetry is turned on.
 Leave Link  301 at Wed Oct  7 13:26:50 2020, MaxMem=  2684354560 cpu:               2.2 elap:               0.6
 (Enter /udrive/faculty/rpeverati/g16/g16/l302.exe)
 NPDir=0 NMtPBC=     1 NCelOv=     1 NCel=       1 NClECP=     1 NCelD=      1
         NCelK=      1 NCelE2=     1 NClLst=     1 CellRange=     0.0.
 One-electron integrals computed using PRISM.
 One-electron integral symmetry used in STVInt
 NBasis=    36 RedAO= T EigKep=  8.11D-03  NBF=     9     1     3     5     1     9     5     3
 NBsUse=    36 1.00D-06 EigRej= -1.00D+00 NBFU=     9     1     3     5     1     9     5     3
 Precomputing XC quadrature grid using
 IXCGrd= 4 IRadAn=           5 IRanWt=          -1 IRanGd=           0 AccXCQ= 0.00D+00.
 Generated NRdTot=       0 NPtTot=           0 NUsed=           0 NTot=          32
 NSgBfM=    38    38    38    38    38 MxSgAt=     6 MxSgA2=     6.
 Leave Link  302 at Wed Oct  7 13:26:51 2020, MaxMem=  2684354560 cpu:               3.9 elap:               0.8
 (Enter /udrive/faculty/rpeverati/g16/g16/l303.exe)
 DipDrv:  MaxL=1.
 Leave Link  303 at Wed Oct  7 13:26:52 2020, MaxMem=  2684354560 cpu:               1.1 elap:               0.5
 (Enter /udrive/faculty/rpeverati/g16/g16/l401.exe)
 SCF N**3 symmetry information disabled.
 ExpMin= 1.61D-01 ExpMax= 3.05D+03 ExpMxC= 4.57D+02 IAcc=3 IRadAn=         5 AccDes= 0.00D+00
 Harris functional with IExCor= 1009 and IRadAn=       5 diagonalized for initial guess.
 HarFok:  IExCor= 1009 AccDes= 0.00D+00 IRadAn=         5 IDoV= 1 UseB2=F ITyADJ=14
 ICtDFT=  3500011 ScaDFX=  1.000000  1.000000  1.000000  1.000000
 FoFCou: FMM=F IPFlag=           0 FMFlag=      100000 FMFlg1=           0
         NFxFlg=           0 DoJE=T BraDBF=F KetDBF=T FulRan=T
         wScrn=  0.000000 ICntrl=       500 IOpCl=  0 I1Cent=   200000004 NGrid=           0
         NMat0=    1 NMatS0=      1 NMatT0=    0 NMatD0=    1 NMtDS0=    0 NMtDT0=    0
 Petite list used in FoFCou.
 Harris En= -78.5398300934429    
 JPrj=0 DoOrth=F DoCkMO=F.
 Initial guess orbital symmetries:
       Occupied  (AG) (B1U) (AG) (B1U) (B2U) (AG) (B3G) (B3U)
       Virtual   (B2G) (B2U) (AG) (B1U) (B3G) (B1U) (AG) (B3U)
                 (B2U) (B2G) (B1U) (AG) (B2U) (B3G) (B1U) (AG)
                 (B1U) (B3G) (B3U) (B1G) (AU) (AG) (B2U) (AG) (B1U)
                 (B2G) (B1U) (B3G)
 The electronic state of the initial guess is 1-AG.
 Leave Link  401 at Wed Oct  7 13:26:53 2020, MaxMem=  2684354560 cpu:               5.0 elap:               0.8
 (Enter /udrive/faculty/rpeverati/g16/g16/l502.exe)
 Keep R1 ints in memory in symmetry-blocked form, NReq=10589939.
 FoFCou: FMM=F IPFlag=           0 FMFlag=           0 FMFlg1=           0
         NFxFlg=           0 DoJE=F BraDBF=F KetDBF=F FulRan=T
         wScrn=  0.000000 ICntrl=       600 IOpCl=  0 I1Cent=           0 NGrid=           0
         NMat0=    1 NMatS0=    666 NMatT0=    0 NMatD0=    1 NMtDS0=    0 NMtDT0=    0
 Petite list used in FoFCou.
 Closed shell SCF:
 Using DIIS extrapolation, IDIIS=  1040.
 NGot=  2684354560 LenX=  2684315185 LenY=  2684313300
 Requested convergence on RMS density matrix=1.00D-08 within 120 cycles.
 Requested convergence on MAX density matrix=1.00D-06.
 Requested convergence on             energy=1.00D-06.
 No special actions if energy rises.
 Integral accuracy reduced to 1.0D-05 until final iterations.

 Cycle   1  Pass 0  IDiag  1:
 E= -78.4486684993938    
 DIIS: error= 5.50D-02 at cycle   1 NSaved=   1.
 NSaved= 1 IEnMin= 1 EnMin= -78.4486684993938     IErMin= 1 ErrMin= 5.50D-02
 ErrMax= 5.50D-02  0.00D+00 EMaxC= 1.00D-01 BMatC= 7.52D-02 BMatP= 7.52D-02
 IDIUse=3 WtCom= 4.50D-01 WtEn= 5.50D-01
 Coeff-Com:  0.100D+01
 Coeff-En:   0.100D+01
 Coeff:      0.100D+01
 Gap=     0.387 Goal=   None    Shift=    0.000
 GapD=    0.387 DampG=1.000 DampE=0.500 DampFc=0.5000 IDamp=-1.
 Damping current iteration by 5.00D-01
 RMSDP=1.18D-02 MaxDP=1.09D-01              OVMax= 1.38D-01

 Cycle   2  Pass 0  IDiag  1:
 E= -78.4960334852829     Delta-E=       -0.047364985889 Rises=F Damp=T
 DIIS: error= 9.21D-03 at cycle   2 NSaved=   2.
 NSaved= 2 IEnMin= 2 EnMin= -78.4960334852829     IErMin= 2 ErrMin= 9.21D-03
 ErrMax= 9.21D-03  0.00D+00 EMaxC= 1.00D-01 BMatC= 2.87D-03 BMatP= 7.52D-02
 IDIUse=3 WtCom= 9.08D-01 WtEn= 9.21D-02
 Coeff-Com: -0.157D+00 0.116D+01
 Coeff-En:   0.000D+00 0.100D+01
 Coeff:     -0.142D+00 0.114D+01
 Gap=     0.390 Goal=   None    Shift=    0.000
 RMSDP=1.63D-03 MaxDP=1.32D-02 DE=-4.74D-02 OVMax= 5.44D-02

 Cycle   3  Pass 0  IDiag  1:
 E= -78.5356993263003     Delta-E=       -0.039665841017 Rises=F Damp=F
 DIIS: error= 7.59D-04 at cycle   3 NSaved=   3.
 NSaved= 3 IEnMin= 3 EnMin= -78.5356993263003     IErMin= 3 ErrMin= 7.59D-04
 ErrMax= 7.59D-04  0.00D+00 EMaxC= 1.00D-01 BMatC= 1.34D-05 BMatP= 2.87D-03
 IDIUse=3 WtCom= 9.92D-01 WtEn= 7.59D-03
 Coeff-Com:  0.617D-02-0.114D-01 0.101D+01
 Coeff-En:   0.000D+00 0.000D+00 0.100D+01
 Coeff:      0.612D-02-0.113D-01 0.101D+01
 Gap=     0.387 Goal=   None    Shift=    0.000
 RMSDP=1.23D-04 MaxDP=1.06D-03 DE=-3.97D-02 OVMax= 1.40D-03

 Cycle   4  Pass 0  IDiag  1:
 E= -78.5357122754577     Delta-E=       -0.000012949157 Rises=F Damp=F
 DIIS: error= 2.13D-04 at cycle   4 NSaved=   4.
 NSaved= 4 IEnMin= 4 EnMin= -78.5357122754577     IErMin= 4 ErrMin= 2.13D-04
 ErrMax= 2.13D-04  0.00D+00 EMaxC= 1.00D-01 BMatC= 5.18D-07 BMatP= 1.34D-05
 IDIUse=3 WtCom= 9.98D-01 WtEn= 2.13D-03
 Coeff-Com:  0.245D-02-0.886D-02 0.121D+00 0.886D+00
 Coeff-En:   0.000D+00 0.000D+00 0.000D+00 0.100D+01
 Coeff:      0.245D-02-0.884D-02 0.120D+00 0.886D+00
 Gap=     0.387 Goal=   None    Shift=    0.000
 RMSDP=2.26D-05 MaxDP=1.79D-04 DE=-1.29D-05 OVMax= 2.68D-04

 Cycle   5  Pass 0  IDiag  1:
 E= -78.5357128004833     Delta-E=       -0.000000525026 Rises=F Damp=F
 DIIS: error= 2.25D-05 at cycle   5 NSaved=   5.
 NSaved= 5 IEnMin= 5 EnMin= -78.5357128004833     IErMin= 5 ErrMin= 2.25D-05
 ErrMax= 2.25D-05  0.00D+00 EMaxC= 1.00D-01 BMatC= 1.16D-08 BMatP= 5.18D-07
 IDIUse=1 WtCom= 1.00D+00 WtEn= 0.00D+00
 Coeff-Com:  0.694D-05 0.313D-03-0.315D-01-0.706D-01 0.110D+01
 Coeff:      0.694D-05 0.313D-03-0.315D-01-0.706D-01 0.110D+01
 Gap=     0.387 Goal=   None    Shift=    0.000
 RMSDP=5.42D-06 MaxDP=3.44D-05 DE=-5.25D-07 OVMax= 5.62D-05

 Initial convergence to 1.0D-05 achieved.  Increase integral accuracy.
 Cycle   6  Pass 1  IDiag  1:
 E= -78.5357177686117     Delta-E=       -0.000004968128 Rises=F Damp=F
 DIIS: error= 2.40D-05 at cycle   1 NSaved=   1.
 NSaved= 1 IEnMin= 1 EnMin= -78.5357177686117     IErMin= 1 ErrMin= 2.40D-05
 ErrMax= 2.40D-05  0.00D+00 EMaxC= 1.00D-01 BMatC= 1.26D-08 BMatP= 1.26D-08
 IDIUse=1 WtCom= 1.00D+00 WtEn= 0.00D+00
 Coeff-Com:  0.100D+01
 Coeff:      0.100D+01
 Gap=     0.387 Goal=   None    Shift=    0.000
 RMSDP=5.42D-06 MaxDP=3.44D-05 DE=-4.97D-06 OVMax= 2.85D-05

 Cycle   7  Pass 1  IDiag  1:
 E= -78.5357177799296     Delta-E=       -0.000000011318 Rises=F Damp=F
 DIIS: error= 3.12D-06 at cycle   2 NSaved=   2.
 NSaved= 2 IEnMin= 2 EnMin= -78.5357177799296     IErMin= 2 ErrMin= 3.12D-06
 ErrMax= 3.12D-06  0.00D+00 EMaxC= 1.00D-01 BMatC= 1.81D-10 BMatP= 1.26D-08
 IDIUse=1 WtCom= 1.00D+00 WtEn= 0.00D+00
 Coeff-Com: -0.129D-01 0.101D+01
 Coeff:     -0.129D-01 0.101D+01
 Gap=     0.387 Goal=   None    Shift=    0.000
 RMSDP=4.94D-07 MaxDP=2.30D-06 DE=-1.13D-08 OVMax= 5.01D-06

 Cycle   8  Pass 1  IDiag  1:
 E= -78.5357177801335     Delta-E=       -0.000000000204 Rises=F Damp=F
 DIIS: error= 5.66D-07 at cycle   3 NSaved=   3.
 NSaved= 3 IEnMin= 3 EnMin= -78.5357177801335     IErMin= 3 ErrMin= 5.66D-07
 ErrMax= 5.66D-07  0.00D+00 EMaxC= 1.00D-01 BMatC= 9.53D-12 BMatP= 1.81D-10
 IDIUse=1 WtCom= 1.00D+00 WtEn= 0.00D+00
 Coeff-Com: -0.177D-01 0.129D+00 0.888D+00
 Coeff:     -0.177D-01 0.129D+00 0.888D+00
 Gap=     0.387 Goal=   None    Shift=    0.000
 RMSDP=9.73D-08 MaxDP=6.04D-07 DE=-2.04D-10 OVMax= 1.01D-06

 Cycle   9  Pass 1  IDiag  1:
 E= -78.5357177801428     Delta-E=       -0.000000000009 Rises=F Damp=F
 DIIS: error= 1.46D-07 at cycle   4 NSaved=   4.
 NSaved= 4 IEnMin= 4 EnMin= -78.5357177801428     IErMin= 4 ErrMin= 1.46D-07
 ErrMax= 1.46D-07  0.00D+00 EMaxC= 1.00D-01 BMatC= 5.97D-13 BMatP= 9.53D-12
 IDIUse=1 WtCom= 1.00D+00 WtEn= 0.00D+00
 Coeff-Com: -0.461D-02 0.226D-01 0.240D+00 0.742D+00
 Coeff:     -0.461D-02 0.226D-01 0.240D+00 0.742D+00
 Gap=     0.387 Goal=   None    Shift=    0.000
 RMSDP=2.81D-08 MaxDP=2.35D-07 DE=-9.27D-12 OVMax= 3.43D-07

 Cycle  10  Pass 1  IDiag  1:
 E= -78.5357177801435     Delta-E=       -0.000000000001 Rises=F Damp=F
 DIIS: error= 4.65D-08 at cycle   5 NSaved=   5.
 NSaved= 5 IEnMin= 5 EnMin= -78.5357177801435     IErMin= 5 ErrMin= 4.65D-08
 ErrMax= 4.65D-08  0.00D+00 EMaxC= 1.00D-01 BMatC= 4.79D-14 BMatP= 5.97D-13
 IDIUse=1 WtCom= 1.00D+00 WtEn= 0.00D+00
 Coeff-Com:  0.104D-02-0.108D-01-0.441D-01 0.174D+00 0.880D+00
 Coeff:      0.104D-02-0.108D-01-0.441D-01 0.174D+00 0.880D+00
 Gap=     0.387 Goal=   None    Shift=    0.000
 RMSDP=5.69D-09 MaxDP=4.60D-08 DE=-7.96D-13 OVMax= 8.64D-08

 SCF Done:  E(RM062X) =  -78.5357177801     A.U. after   10 cycles
            NFock= 10  Conv=0.57D-08     -V/T= 2.0059
 KE= 7.807412474157D+01 PE=-2.484720507000D+02 EE= 5.843870783525D+01
 Leave Link  502 at Wed Oct  7 13:26:55 2020, MaxMem=  2684354560 cpu:              11.9 elap:               1.5
 (Enter /udrive/faculty/rpeverati/g16/g16/l508.exe)
 QCSCF skips out because SCF is already converged.
 Leave Link  508 at Wed Oct  7 13:26:55 2020, MaxMem=  2684354560 cpu:               0.6 elap:               0.4
 (Enter /udrive/faculty/rpeverati/g16/g16/l601.exe)
 Copying SCF densities to generalized density rwf, IOpCl= 0 IROHF=0.

 **********************************************************************

            Population analysis using the SCF density.

 **********************************************************************

 Orbital symmetries:
       Occupied  (AG) (B1U) (AG) (B1U) (B2U) (AG) (B3G) (B3U)
       Virtual   (B2G) (AG) (B2U) (B1U) (B3G) (B1U) (AG) (B3U)
                 (B2U) (B2G) (AG) (B1U) (B2U) (B3G) (B1U) (AG)
                 (B1U) (B3G) (B3U) (B1G) (AU) (AG) (B2U) (AG) (B1U)
                 (B2G) (B1U) (B3G)
 The electronic state is 1-AG.
 Alpha  occ. eigenvalues --  -10.53617 -10.53514  -0.85102  -0.65800  -0.53636
 Alpha  occ. eigenvalues --   -0.47726  -0.41399  -0.32437
 Alpha virt. eigenvalues --    0.06257   0.17072   0.19166   0.21111   0.29716
 Alpha virt. eigenvalues --    0.37459   0.52747   0.60536   0.61450   0.69914
 Alpha virt. eigenvalues --    0.70637   0.76323   0.91671   0.95231   1.00915
 Alpha virt. eigenvalues --    1.01781   1.15497   1.26878   1.51663   1.59594
 Alpha virt. eigenvalues --    1.88533   1.94484   2.06212   2.14399   2.34562
 Alpha virt. eigenvalues --    2.41630   2.73335   2.74900
          Condensed to atoms (all electrons):
               1          2          3          4          5          6
     1  C    4.956614   0.668670   0.386739   0.386739  -0.036396  -0.036396
     2  C    0.668670   4.956614  -0.036396  -0.036396   0.386739   0.386739
     3  H    0.386739  -0.036396   0.526383  -0.036772  -0.007243   0.004304
     4  H    0.386739  -0.036396  -0.036772   0.526383   0.004304  -0.007243
     5  H   -0.036396   0.386739  -0.007243   0.004304   0.526383  -0.036772
     6  H   -0.036396   0.386739   0.004304  -0.007243  -0.036772   0.526383
 Mulliken charges:
               1
     1  C   -0.325970
     2  C   -0.325970
     3  H    0.162985
     4  H    0.162985
     5  H    0.162985
     6  H    0.162985
 Sum of Mulliken charges =   0.00000
 Mulliken charges with hydrogens summed into heavy atoms:
               1
     1  C    0.000000
     2  C    0.000000
 Electronic spatial extent (au):  <R**2>=             81.9076
 Charge=              0.0000 electrons
 Dipole moment (field-independent basis, Debye):
    X=             -0.0000    Y=              0.0000    Z=              0.0000  Tot=              0.0000
 Quadrupole moment (field-independent basis, Debye-Ang):
   XX=            -15.1482   YY=            -12.0739   ZZ=            -11.9511
   XY=              0.0000   XZ=             -0.0000   YZ=             -0.0000
 Traceless Quadrupole moment (field-independent basis, Debye-Ang):
   XX=             -2.0905   YY=              0.9839   ZZ=              1.1066
   XY=              0.0000   XZ=             -0.0000   YZ=             -0.0000
 Octapole moment (field-independent basis, Debye-Ang**2):
  XXX=             -0.0000  YYY=              0.0000  ZZZ=              0.0000  XYY=             -0.0000
  XXY=             -0.0000  XXZ=              0.0000  XZZ=             -0.0000  YZZ=              0.0000
  YYZ=              0.0000  XYZ=             -0.0000
 Hexadecapole moment (field-independent basis, Debye-Ang**3):
 XXXX=            -15.8094 YYYY=            -25.7071 ZZZZ=            -66.1869 XXXY=             -0.0000
 XXXZ=              0.0000 YYYX=             -0.0000 YYYZ=             -0.0000 ZZZX=              0.0000
 ZZZY=             -0.0000 XXYY=             -7.5244 XXZZ=            -14.5805 YYZZ=            -12.8930
 XXYZ=             -0.0000 YYXZ=              0.0000 ZZXY=              0.0000
 N-N= 3.342350034301D+01 E-N=-2.484720491824D+02  KE= 7.807412474157D+01
 No NMR shielding tensors so no spin-rotation constants.
 Leave Link  601 at Wed Oct  7 13:26:56 2020, MaxMem=  2684354560 cpu:               3.5 elap:               0.6
 (Enter /udrive/faculty/rpeverati/g16/g16/l701.exe)
 ... and contract with generalized density number  0.
 Compute integral first derivatives.
 Leave Link  701 at Wed Oct  7 13:26:57 2020, MaxMem=  2684354560 cpu:               3.1 elap:               0.6
 (Enter /udrive/faculty/rpeverati/g16/g16/l702.exe)
 L702 exits ... SP integral derivatives will be done elsewhere.
 Leave Link  702 at Wed Oct  7 13:26:58 2020, MaxMem=  2684354560 cpu:               1.4 elap:               0.5
 (Enter /udrive/faculty/rpeverati/g16/g16/l703.exe)
 Integral derivatives from FoFJK, PRISM(SPDF).
 Compute integral first derivatives, UseDBF=F ICtDFT=           0.
 Calling FoFJK, ICntrl=      2127 FMM=F ISym2X=1 I1Cent= 0 IOpClX= 0 NMat=1 NMatS=1 NMatT=0.
 FoFJK:  IHMeth= 1 ICntrl=    2127 DoSepK=F KAlg= 0 I1Cent=           0 FoldK=F
 IRaf=         0 NMat=       1 IRICut=       1 DoRegI=T DoRafI=F ISym2E= 1 IDoP0=0 IntGTp=1.
 FoFCou: FMM=F IPFlag=           0 FMFlag=      100000 FMFlg1=         800
         NFxFlg=           0 DoJE=F BraDBF=F KetDBF=F FulRan=T
         wScrn=  0.000000 ICntrl=      2127 IOpCl=  0 I1Cent=           0 NGrid=           0
         NMat0=    1 NMatS0=      1 NMatT0=    0 NMatD0=    1 NMtDS0=    0 NMtDT0=    0
 Petite list used in FoFCou.
 Leave Link  703 at Wed Oct  7 13:26:59 2020, MaxMem=  2684354560 cpu:               5.4 elap:               0.8
 (Enter /udrive/faculty/rpeverati/g16/g16/l716.exe)
 Dipole        =-5.75762017D-17 4.44089210D-16 0.00000000D+00
 ***** Axes restored to original set *****
 -------------------------------------------------------------------
 Center     Atomic                   Forces (Hartrees/Bohr)
 Number     Number              X              Y              Z
 -------------------------------------------------------------------
      1        6          -0.000000000    0.000000000   -0.007761088
      2        6          -0.000000000   -0.000000000    0.007761088
      3        1           0.000000000    0.002492662    0.001796658
      4        1           0.000000000   -0.002492662    0.001796658
      5        1          -0.000000000    0.002492662   -0.001796658
      6        1           0.000000000   -0.002492662   -0.001796658
 -------------------------------------------------------------------
 Cartesian Forces:  Max     0.007761088 RMS     0.002964928
 Leave Link  716 at Wed Oct  7 13:27:00 2020, MaxMem=  2684354560 cpu:               2.0 elap:               0.5
 (Enter /udrive/faculty/rpeverati/g16/g16/l103.exe)

 GradGradGradGradGradGradGradGradGradGradGradGradGradGradGradGradGradGrad
 Berny optimization.
 Optmz: redundant internal coordinate code flag= 1
 FormGI is forming the generalized inverse of G from B-inverse, IUseBI=4.
 Internal  Forces:  Max     0.004167772 RMS     0.001918610
 Search for a local minimum.
 Step number   1 out of a maximum of  100
 All quantities printed in internal units (Hartrees-Bohrs-Radians)
 RMS Force = .19186D-02 SwitMx=.10000D-02 MixMth= 1
 Mixed Optimization -- RFO/linear search
 Second derivative matrix not updated -- first step.
 The second derivative matrix:
                          R1        R2        R3        R4        R5
           R1           0.59226
           R2           0.00000   0.35816
           R3           0.00000   0.00000   0.35816
           R4           0.00000   0.00000   0.00000   0.35816
           R5           0.00000   0.00000   0.00000   0.00000   0.35816
           A1           0.00000   0.00000   0.00000   0.00000   0.00000
           A2           0.00000   0.00000   0.00000   0.00000   0.00000
           A3           0.00000   0.00000   0.00000   0.00000   0.00000
           A4           0.00000   0.00000   0.00000   0.00000   0.00000
           A5           0.00000   0.00000   0.00000   0.00000   0.00000
           A6           0.00000   0.00000   0.00000   0.00000   0.00000
           D1           0.00000   0.00000   0.00000   0.00000   0.00000
           D2           0.00000   0.00000   0.00000   0.00000   0.00000
           D3           0.00000   0.00000   0.00000   0.00000   0.00000
           D4           0.00000   0.00000   0.00000   0.00000   0.00000
                          A1        A2        A3        A4        A5
           A1           0.16000
           A2           0.00000   0.16000
           A3           0.00000   0.00000   0.16000
           A4           0.00000   0.00000   0.00000   0.16000
           A5           0.00000   0.00000   0.00000   0.00000   0.16000
           A6           0.00000   0.00000   0.00000   0.00000   0.00000
           D1           0.00000   0.00000   0.00000   0.00000   0.00000
           D2           0.00000   0.00000   0.00000   0.00000   0.00000
           D3           0.00000   0.00000   0.00000   0.00000   0.00000
           D4           0.00000   0.00000   0.00000   0.00000   0.00000
                          A6        D1        D2        D3        D4
           A6           0.16000
           D1           0.00000   0.02999
           D2           0.00000   0.00000   0.02999
           D3           0.00000   0.00000   0.00000   0.02999
           D4           0.00000   0.00000   0.00000   0.00000   0.02999
 ITU=  0
 Eigenvectors of the second derivative matrix:
                           1         2         3         4         5
     Eigenvalues --     0.02999   0.02999   0.02999   0.16000   0.16000
   1         R1        -0.00000  -0.00000  -0.00000  -0.00000   0.00000
   2         R2        -0.00000   0.00000  -0.00000  -0.00000   0.00000
   3         R3        -0.00000   0.00000  -0.00000   0.00000   0.00000
   4         R4        -0.00000  -0.00000  -0.00000  -0.00000   0.00000
   5         R5        -0.00000  -0.00000  -0.00000   0.00000  -0.00000
   6         A1         0.00000  -0.00000  -0.00000  -0.07587   0.72143
   7         A2         0.00000  -0.00000   0.00000  -0.47067  -0.49766
   8         A3        -0.00000   0.00000   0.00000   0.54654  -0.22377
   9         A4         0.00000  -0.00000   0.00000  -0.35411  -0.22247
  10         A5         0.00000   0.00000   0.00000  -0.20105   0.34314
  11         A6        -0.00000   0.00000  -0.00000   0.55516  -0.12067
  12         D1         0.45547   0.34015  -0.65333  -0.00000  -0.00000
  13         D2        -0.42499  -0.12520  -0.74412  -0.00000   0.00000
  14         D3         0.10532   0.84926   0.13293  -0.00000  -0.00000
  15         D4        -0.77514   0.38391   0.04214  -0.00000   0.00000
                           6         7         8         9        10
     Eigenvalues --     0.16000   0.16000   0.35816   0.35816   0.35816
   1         R1        -0.00000   0.00000  -0.00000   0.00000   0.00000
   2         R2        -0.00000   0.00000  -0.59030  -0.73485  -0.33399
   3         R3         0.00000   0.00000   0.08439   0.35512  -0.93054
   4         R4        -0.00000   0.00000  -0.46090   0.34254   0.06304
   5         R5         0.00000   0.00000   0.65727  -0.46536  -0.13628
   6         A1         0.19887  -0.31765   0.00000   0.00000   0.00000
   7         A2        -0.39016  -0.21273   0.00000   0.00000  -0.00000
   8         A3         0.19129   0.53038  -0.00000  -0.00000   0.00000
   9         A4         0.70103   0.01819  -0.00000   0.00000  -0.00000
  10         A5        -0.48179   0.52572   0.00000   0.00000   0.00000
  11         A6        -0.21924  -0.54391  -0.00000  -0.00000  -0.00000
  12         D1         0.00000   0.00000   0.00000   0.00000   0.00000
  13         D2         0.00000   0.00000   0.00000  -0.00000   0.00000
  14         D3         0.00000  -0.00000  -0.00000   0.00000   0.00000
  15         D4         0.00000   0.00000  -0.00000   0.00000   0.00000
                          11        12
     Eigenvalues --     0.35816   0.59226
   1         R1         0.00000  -1.00000
   2         R2        -0.00086   0.00000
   3         R3         0.02951  -0.00000
   4         R4        -0.81625   0.00000
   5         R5        -0.57694  -0.00000
   6         A1         0.00000  -0.00000
   7         A2        -0.00000   0.00000
   8         A3        -0.00000  -0.00000
   9         A4         0.00000   0.00000
  10         A5         0.00000   0.00000
  11         A6        -0.00000  -0.00000
  12         D1         0.00000   0.00000
  13         D2         0.00000   0.00000
  14         D3        -0.00000  -0.00000
  15         D4        -0.00000   0.00000
 Iter=   1 RLamda= 0.00000000D+00 Sum=-1.35979199D-04.
 Iter=   2 RLamda=-1.35979199D-04 Sum=-1.35931155D-04.
 Iter=   3 RLamda=-1.35931155D-04 Sum=-1.35931172D-04.
 RFO step:  Lambda=-1.35931155D-04 EMin= 2.99901184D-02
 Linear search not attempted -- first point.
 Iteration  1 RMS(Cart)=  0.00373418 RMS(Int)=  0.00000362
 Iteration  2 RMS(Cart)=  0.00000428 RMS(Int)=  0.00000000
 Iteration  3 RMS(Cart)=  0.00000000 RMS(Int)=  0.00000000
 ITry= 1 IFail=0 DXMaxC= 6.25D-03 DCOld= 1.00D+10 DXMaxT= 3.00D-01 DXLimC= 3.00D+00 Rises=F
 ClnCor:  largest displacement from symmetrization is 5.12D-14 for atom     1.
 Variable       Old X    -DE/DX   Delta X   Delta X   Delta X     New X
                                 (Linear)    (Quad)   (Total)
    R1        2.51558  -0.00417   0.00000  -0.00704  -0.00704   2.50854
    R2        2.04370   0.00306   0.00000   0.00855   0.00855   2.05225
    R3        2.04370   0.00306   0.00000   0.00855   0.00855   2.05225
    R4        2.04370   0.00306   0.00000   0.00855   0.00855   2.05225
    R5        2.04370   0.00306   0.00000   0.00855   0.00855   2.05225
    A1        2.12167   0.00015   0.00000   0.00096   0.00096   2.12263
    A2        2.12167   0.00015   0.00000   0.00096   0.00096   2.12263
    A3        2.03985  -0.00031   0.00000  -0.00192  -0.00192   2.03793
    A4        2.12167   0.00015   0.00000   0.00096   0.00096   2.12263
    A5        2.12167   0.00015   0.00000   0.00096   0.00096   2.12263
    A6        2.03985  -0.00031   0.00000  -0.00192  -0.00192   2.03793
    D1        0.00000   0.00000   0.00000   0.00000   0.00000   0.00000
    D2        3.14159  -0.00000   0.00000  -0.00000   0.00000   3.14159
    D3        3.14159   0.00000   0.00000   0.00000   0.00000   3.14159
    D4        0.00000  -0.00000   0.00000  -0.00000   0.00000   0.00000
         Item               Value     Threshold  Converged?
 Maximum Force            0.004168     0.000450     NO 
 RMS     Force            0.001919     0.000300     NO 
 Maximum Displacement     0.006253     0.001800     NO 
 RMS     Displacement     0.003733     0.001200     NO 
 Predicted change in Energy=-6.798959D-05
 Lowest energy point so far.  Saving SCF results.
 Largest change from initial coordinates is atom    3       0.004 Angstoms.
 GradGradGradGradGradGradGradGradGradGradGradGradGradGradGradGradGradGrad

 Leave Link  103 at Wed Oct  7 13:27:01 2020, MaxMem=  2684354560 cpu:               4.8 elap:               0.8
 (Enter /udrive/faculty/rpeverati/g16/g16/l202.exe)
                          Input orientation:                          
 ---------------------------------------------------------------------
 Center     Atomic      Atomic             Coordinates (Angstroms)
 Number     Number       Type             X           Y           Z
 ---------------------------------------------------------------------
      1          6           0       -0.000000    0.000000    0.663732
      2          6           0        0.000000    0.000000   -0.663732
      3          1           0       -0.000000    0.924802    1.233068
      4          1           0       -0.000000   -0.924802    1.233068
      5          1           0        0.000000    0.924802   -1.233068
      6          1           0        0.000000   -0.924802   -1.233068
 ---------------------------------------------------------------------
                    Distance matrix (angstroms):
                    1          2          3          4          5
     1  C    0.000000
     2  C    1.327465   0.000000
     3  H    1.086003   2.110239   0.000000
     4  H    1.086003   2.110239   1.849605   0.000000
     5  H    2.110239   1.086003   2.466136   3.082671   0.000000
     6  H    2.110239   1.086003   3.082671   2.466136   1.849605
                    6
     6  H    0.000000
 Stoichiometry    C2H4
 Framework group  D2H[C2"(C.C),SG(H4)]
 Deg. of freedom     3
 Full point group                 D2H     NOp   8
 RotChk:  IX=0 Diff= 3.90D-15
 Largest Abelian subgroup         D2H     NOp   8
 Largest concise Abelian subgroup D2      NOp   4
                         Standard orientation:                         
 ---------------------------------------------------------------------
 Center     Atomic      Atomic             Coordinates (Angstroms)
 Number     Number       Type             X           Y           Z
 ---------------------------------------------------------------------
      1          6           0        0.000000    0.000000    0.663732
      2          6           0        0.000000    0.000000   -0.663732
      3          1           0        0.000000    0.924802    1.233068
      4          1           0       -0.000000   -0.924802    1.233068
      5          1           0        0.000000    0.924802   -1.233068
      6          1           0       -0.000000   -0.924802   -1.233068
 ---------------------------------------------------------------------
 Rotational constants (GHZ):         146.5798515          30.2578855          25.0805989
 Leave Link  202 at Wed Oct  7 13:27:01 2020, MaxMem=  2684354560 cpu:               1.5 elap:               0.4
 (Enter /udrive/faculty/rpeverati/g16/g16/l301.exe)
 Standard basis: 6-31G(d) (5D, 7F)
 Ernie: Thresh=  0.10000D-02 Tol=  0.10000D-05 Strict=F.
 There are    10 symmetry adapted cartesian basis functions of AG  symmetry.
 There are     1 symmetry adapted cartesian basis functions of B1G symmetry.
 There are     3 symmetry adapted cartesian basis functions of B2G symmetry.
 There are     5 symmetry adapted cartesian basis functions of B3G symmetry.
 There are     1 symmetry adapted cartesian basis functions of AU  symmetry.
 There are    10 symmetry adapted cartesian basis functions of B1U symmetry.
 There are     5 symmetry adapted cartesian basis functions of B2U symmetry.
 There are     3 symmetry adapted cartesian basis functions of B3U symmetry.
 There are     9 symmetry adapted basis functions of AG  symmetry.
 There are     1 symmetry adapted basis functions of B1G symmetry.
 There are     3 symmetry adapted basis functions of B2G symmetry.
 There are     5 symmetry adapted basis functions of B3G symmetry.
 There are     1 symmetry adapted basis functions of AU  symmetry.
 There are     9 symmetry adapted basis functions of B1U symmetry.
 There are     5 symmetry adapted basis functions of B2U symmetry.
 There are     3 symmetry adapted basis functions of B3U symmetry.
    36 basis functions,    72 primitive gaussians,    38 cartesian basis functions
     8 alpha electrons        8 beta electrons
       nuclear repulsion energy        33.4085227150 Hartrees.
 IExCor= 4336 DFT=T Ex+Corr=M062X ExCW=0 ScaHFX=  0.540000
 ScaDFX=  1.000000  1.000000  1.000000  1.000000 ScalE2=  1.000000  1.000000
 IRadAn=      5 IRanWt=     -1 IRanGd=            0 ICorTp=0 IEmpDi=  4
 NAtoms=    6 NActive=    6 NUniq=    2 SFac= 4.00D+00 NAtFMM=   60 NAOKFM=F Big=F
 Integral buffers will be    131072 words long.
 Raffenetti 2 integral format.
 Two-electron integral symmetry is turned on.
 Leave Link  301 at Wed Oct  7 13:27:02 2020, MaxMem=  2684354560 cpu:               2.2 elap:               0.6
 (Enter /udrive/faculty/rpeverati/g16/g16/l302.exe)
 NPDir=0 NMtPBC=     1 NCelOv=     1 NCel=       1 NClECP=     1 NCelD=      1
         NCelK=      1 NCelE2=     1 NClLst=     1 CellRange=     0.0.
 One-electron integrals computed using PRISM.
 One-electron integral symmetry used in STVInt
 NBasis=    36 RedAO= T EigKep=  8.02D-03  NBF=     9     1     3     5     1     9     5     3
 NBsUse=    36 1.00D-06 EigRej= -1.00D+00 NBFU=     9     1     3     5     1     9     5     3
 Precomputing XC quadrature grid using
 IXCGrd= 4 IRadAn=           5 IRanWt=          -1 IRanGd=           0 AccXCQ= 0.00D+00.
 Generated NRdTot=       0 NPtTot=           0 NUsed=           0 NTot=          32
 NSgBfM=    38    38    38    38    38 MxSgAt=     6 MxSgA2=     6.
 Leave Link  302 at Wed Oct  7 13:27:03 2020, MaxMem=  2684354560 cpu:               3.6 elap:               0.7
 (Enter /udrive/faculty/rpeverati/g16/g16/l303.exe)
 DipDrv:  MaxL=1.
 Leave Link  303 at Wed Oct  7 13:27:04 2020, MaxMem=  2684354560 cpu:               1.7 elap:               0.5
 (Enter /udrive/faculty/rpeverati/g16/g16/l401.exe)
 Initial guess from the checkpoint file:  "MN_11_c2h4_BH76_M062X_631Gs.chk"
 SCF N**3 symmetry information disabled.
 B after Tr=    -0.000000    0.000000   -0.000000
         Rot=    1.000000   -0.000000    0.000000    0.000000 Ang=   0.00 deg.
 Guess basis will be translated and rotated to current coordinates.
 JPrj=2 DoOrth=T DoCkMO=T.
 Initial guess orbital symmetries:
       Occupied  (AG) (B1U) (AG) (B1U) (B2U) (AG) (B3G) (B3U)
       Virtual   (B2G) (AG) (B2U) (B1U) (B3G) (B1U) (AG) (B3U)
                 (B2U) (B2G) (AG) (B1U) (B2U) (B3G) (B1U) (AG)
                 (B1U) (B3G) (B3U) (B1G) (AU) (AG) (B2U) (AG) (B1U)
                 (B2G) (B1U) (B3G)
 The electronic state of the initial guess is 1-AG.
 Leave Link  401 at Wed Oct  7 13:27:05 2020, MaxMem=  2684354560 cpu:               3.1 elap:               0.6
 (Enter /udrive/faculty/rpeverati/g16/g16/l502.exe)
 Keep R1 ints in memory in symmetry-blocked form, NReq=10589939.
 FoFCou: FMM=F IPFlag=           0 FMFlag=           0 FMFlg1=           0
         NFxFlg=           0 DoJE=F BraDBF=F KetDBF=F FulRan=T
         wScrn=  0.000000 ICntrl=       600 IOpCl=  0 I1Cent=           0 NGrid=           0
         NMat0=    1 NMatS0=    666 NMatT0=    0 NMatD0=    1 NMtDS0=    0 NMtDT0=    0
 Petite list used in FoFCou.
 Closed shell SCF:
 Using DIIS extrapolation, IDIIS=  1040.
 NGot=  2684354560 LenX=  2684315185 LenY=  2684313300
 Requested convergence on RMS density matrix=1.00D-08 within 120 cycles.
 Requested convergence on MAX density matrix=1.00D-06.
 Requested convergence on             energy=1.00D-06.
 No special actions if energy rises.

 Cycle   1  Pass 1  IDiag  1:
 E= -78.5357668029936    
 DIIS: error= 6.02D-04 at cycle   1 NSaved=   1.
 NSaved= 1 IEnMin= 1 EnMin= -78.5357668029936     IErMin= 1 ErrMin= 6.02D-04
 ErrMax= 6.02D-04  0.00D+00 EMaxC= 1.00D-01 BMatC= 1.05D-05 BMatP= 1.05D-05
 IDIUse=3 WtCom= 9.94D-01 WtEn= 6.02D-03
 Coeff-Com:  0.100D+01
 Coeff-En:   0.100D+01
 Coeff:      0.100D+01
 Gap=     0.389 Goal=   None    Shift=    0.000
 RMSDP=1.21D-04 MaxDP=9.80D-04              OVMax= 1.72D-03

 Cycle   2  Pass 1  IDiag  1:
 E= -78.5357833638389     Delta-E=       -0.000016560845 Rises=F Damp=F
 DIIS: error= 2.19D-04 at cycle   2 NSaved=   2.
 NSaved= 2 IEnMin= 2 EnMin= -78.5357833638389     IErMin= 2 ErrMin= 2.19D-04
 ErrMax= 2.19D-04  0.00D+00 EMaxC= 1.00D-01 BMatC= 6.46D-07 BMatP= 1.05D-05
 IDIUse=3 WtCom= 9.98D-01 WtEn= 2.19D-03
 Coeff-Com:  0.838D-01 0.916D+00
 Coeff-En:   0.000D+00 0.100D+01
 Coeff:      0.836D-01 0.916D+00
 Gap=     0.389 Goal=   None    Shift=    0.000
 RMSDP=2.45D-05 MaxDP=2.48D-04 DE=-1.66D-05 OVMax= 4.16D-04

 Cycle   3  Pass 1  IDiag  1:
 E= -78.5357839731391     Delta-E=       -0.000000609300 Rises=F Damp=F
 DIIS: error= 6.39D-05 at cycle   3 NSaved=   3.
 NSaved= 3 IEnMin= 3 EnMin= -78.5357839731391     IErMin= 3 ErrMin= 6.39D-05
 ErrMax= 6.39D-05  0.00D+00 EMaxC= 1.00D-01 BMatC= 1.02D-07 BMatP= 6.46D-07
 IDIUse=1 WtCom= 1.00D+00 WtEn= 0.00D+00
 Coeff-Com: -0.170D-01 0.226D+00 0.791D+00
 Coeff:     -0.170D-01 0.226D+00 0.791D+00
 Gap=     0.389 Goal=   None    Shift=    0.000
 RMSDP=9.67D-06 MaxDP=1.14D-04 DE=-6.09D-07 OVMax= 1.46D-04

 Cycle   4  Pass 1  IDiag  1:
 E= -78.5357840850467     Delta-E=       -0.000000111908 Rises=F Damp=F
 DIIS: error= 2.04D-05 at cycle   4 NSaved=   4.
 NSaved= 4 IEnMin= 4 EnMin= -78.5357840850467     IErMin= 4 ErrMin= 2.04D-05
 ErrMax= 2.04D-05  0.00D+00 EMaxC= 1.00D-01 BMatC= 8.75D-09 BMatP= 1.02D-07
 IDIUse=1 WtCom= 1.00D+00 WtEn= 0.00D+00
 Coeff-Com: -0.103D-01-0.780D-03 0.233D+00 0.778D+00
 Coeff:     -0.103D-01-0.780D-03 0.233D+00 0.778D+00
 Gap=     0.389 Goal=   None    Shift=    0.000
 RMSDP=2.36D-06 MaxDP=1.94D-05 DE=-1.12D-07 OVMax= 3.59D-05

 Cycle   5  Pass 1  IDiag  1:
 E= -78.5357840947232     Delta-E=       -0.000000009676 Rises=F Damp=F
 DIIS: error= 1.22D-06 at cycle   5 NSaved=   5.
 NSaved= 5 IEnMin= 5 EnMin= -78.5357840947232     IErMin= 5 ErrMin= 1.22D-06
 ErrMax= 1.22D-06  0.00D+00 EMaxC= 1.00D-01 BMatC= 2.64D-11 BMatP= 8.75D-09
 IDIUse=1 WtCom= 1.00D+00 WtEn= 0.00D+00
 Coeff-Com:  0.418D-03-0.539D-02-0.170D-01 0.256D-02 0.102D+01
 Coeff:      0.418D-03-0.539D-02-0.170D-01 0.256D-02 0.102D+01
 Gap=     0.389 Goal=   None    Shift=    0.000
 RMSDP=2.49D-07 MaxDP=1.53D-06 DE=-9.68D-09 OVMax= 2.53D-06

 Cycle   6  Pass 1  IDiag  1:
 E= -78.5357840947630     Delta-E=       -0.000000000040 Rises=F Damp=F
 DIIS: error= 1.13D-07 at cycle   6 NSaved=   6.
 NSaved= 6 IEnMin= 6 EnMin= -78.5357840947630     IErMin= 6 ErrMin= 1.13D-07
 ErrMax= 1.13D-07  0.00D+00 EMaxC= 1.00D-01 BMatC= 1.45D-13 BMatP= 2.64D-11
 IDIUse=1 WtCom= 1.00D+00 WtEn= 0.00D+00
 Coeff-Com:  0.672D-06 0.717D-03 0.109D-02-0.630D-02-0.135D+00 0.114D+01
 Coeff:      0.672D-06 0.717D-03 0.109D-02-0.630D-02-0.135D+00 0.114D+01
 Gap=     0.389 Goal=   None    Shift=    0.000
 RMSDP=2.91D-08 MaxDP=1.66D-07 DE=-3.98D-11 OVMax= 3.00D-07

 Cycle   7  Pass 1  IDiag  1:
 E= -78.5357840947629     Delta-E=        0.000000000000 Rises=F Damp=F
 DIIS: error= 5.11D-09 at cycle   7 NSaved=   7.
 NSaved= 7 IEnMin= 6 EnMin= -78.5357840947630     IErMin= 7 ErrMin= 5.11D-09
 ErrMax= 5.11D-09  0.00D+00 EMaxC= 1.00D-01 BMatC= 6.44D-16 BMatP= 1.45D-13
 IDIUse=1 WtCom= 1.00D+00 WtEn= 0.00D+00
 Coeff-Com: -0.105D-05-0.610D-04-0.681D-04 0.505D-03 0.131D-01-0.131D+00
 Coeff-Com:  0.112D+01
 Coeff:     -0.105D-05-0.610D-04-0.681D-04 0.505D-03 0.131D-01-0.131D+00
 Coeff:      0.112D+01
 Gap=     0.389 Goal=   None    Shift=    0.000
 RMSDP=9.84D-10 MaxDP=6.45D-09 DE= 8.53D-14 OVMax= 1.11D-08

 SCF Done:  E(RM062X) =  -78.5357840948     A.U. after    7 cycles
            NFock=  7  Conv=0.98D-09     -V/T= 2.0061
 KE= 7.806008383609D+01 PE=-2.484334847834D+02 EE= 5.842909413758D+01
 Leave Link  502 at Wed Oct  7 13:27:06 2020, MaxMem=  2684354560 cpu:              10.3 elap:               1.2
 (Enter /udrive/faculty/rpeverati/g16/g16/l508.exe)
 QCSCF skips out because SCF is already converged.
 Leave Link  508 at Wed Oct  7 13:27:07 2020, MaxMem=  2684354560 cpu:               0.3 elap:               0.3
 (Enter /udrive/faculty/rpeverati/g16/g16/l701.exe)
 ... and contract with generalized density number  0.
 Compute integral first derivatives.
 Leave Link  701 at Wed Oct  7 13:27:08 2020, MaxMem=  2684354560 cpu:               3.4 elap:               0.7
 (Enter /udrive/faculty/rpeverati/g16/g16/l702.exe)
 L702 exits ... SP integral derivatives will be done elsewhere.
 Leave Link  702 at Wed Oct  7 13:27:08 2020, MaxMem=  2684354560 cpu:               1.3 elap:               0.5
 (Enter /udrive/faculty/rpeverati/g16/g16/l703.exe)
 Integral derivatives from FoFJK, PRISM(SPDF).
 Compute integral first derivatives, UseDBF=F ICtDFT=           0.
 Calling FoFJK, ICntrl=      2127 FMM=F ISym2X=1 I1Cent= 0 IOpClX= 0 NMat=1 NMatS=1 NMatT=0.
 FoFJK:  IHMeth= 1 ICntrl=    2127 DoSepK=F KAlg= 0 I1Cent=           0 FoldK=F
 IRaf=         0 NMat=       1 IRICut=       1 DoRegI=T DoRafI=F ISym2E= 1 IDoP0=0 IntGTp=1.
 FoFCou: FMM=F IPFlag=           0 FMFlag=      100000 FMFlg1=         800
         NFxFlg=           0 DoJE=F BraDBF=F KetDBF=F FulRan=T
         wScrn=  0.000000 ICntrl=      2127 IOpCl=  0 I1Cent=           0 NGrid=           0
         NMat0=    1 NMatS0=      1 NMatT0=    0 NMatD0=    1 NMtDS0=    0 NMtDT0=    0
 Petite list used in FoFCou.
 Leave Link  703 at Wed Oct  7 13:27:09 2020, MaxMem=  2684354560 cpu:               5.6 elap:               0.9
 (Enter /udrive/faculty/rpeverati/g16/g16/l716.exe)
 Dipole        =-5.74859408D-17 0.00000000D+00 8.88178420D-16
 ***** Axes restored to original set *****
 -------------------------------------------------------------------
 Center     Atomic                   Forces (Hartrees/Bohr)
 Number     Number              X              Y              Z
 -------------------------------------------------------------------
      1        6          -0.000000000    0.000000000   -0.000099927
      2        6          -0.000000000   -0.000000000    0.000099927
      3        1           0.000000000   -0.000210754    0.000156676
      4        1           0.000000000    0.000210754    0.000156676
      5        1          -0.000000000   -0.000210754   -0.000156676
      6        1           0.000000000    0.000210754   -0.000156676
 -------------------------------------------------------------------
 Cartesian Forces:  Max     0.000210754 RMS     0.000128199
 Leave Link  716 at Wed Oct  7 13:27:10 2020, MaxMem=  2684354560 cpu:               1.3 elap:               0.6
 (Enter /udrive/faculty/rpeverati/g16/g16/l103.exe)

 GradGradGradGradGradGradGradGradGradGradGradGradGradGradGradGradGradGrad
 Berny optimization.
 Optmz: redundant internal coordinate code flag= 1
 Using GEDIIS/GDIIS optimizer.
 Red2BG:  D1=  2.81D-01 OD1=  8.44D-03 B2RMS=  0.00D+00 IAprox=0
 FormGI is forming the generalized inverse of G from B-inverse, IUseBI=4.
 Internal  Forces:  Max     0.000333705 RMS     0.000166838
 Search for a local minimum.
 Step number   2 out of a maximum of  100
 All quantities printed in internal units (Hartrees-Bohrs-Radians)
 RMS Force = .16684D-03 SwitMx=.10000D-02 MixMth= 2
 Mixed Optimization -- En-DIIS/RFO-DIIS
 Update second derivatives using D2CorX and points    1    2
 DE= -6.63D-05 DEPred=-6.80D-05 R= 9.75D-01
 TightC=F SS=  1.41D+00  RLast= 1.88D-02 DXNew= 5.0454D-01 5.6379D-02
 Trust test= 9.75D-01 RLast= 1.88D-02 DXMaxT set to 3.00D-01
 The second derivative matrix:
                          R1        R2        R3        R4        R5
           R1           0.60274
           R2          -0.00584   0.36111
           R3          -0.00584   0.00295   0.36111
           R4          -0.00584   0.00295   0.00295   0.36111
           R5          -0.00584   0.00295   0.00295   0.00295   0.36111
           A1           0.00512  -0.00376  -0.00376  -0.00376  -0.00376
           A2           0.00512  -0.00376  -0.00376  -0.00376  -0.00376
           A3          -0.01025   0.00752   0.00752   0.00752   0.00752
           A4           0.00512  -0.00376  -0.00376  -0.00376  -0.00376
           A5           0.00512  -0.00376  -0.00376  -0.00376  -0.00376
           A6          -0.01025   0.00752   0.00752   0.00752   0.00752
           D1          -0.00000   0.00000   0.00000   0.00000   0.00000
           D2           0.00000  -0.00000  -0.00000  -0.00000  -0.00000
           D3          -0.00000   0.00000   0.00000   0.00000   0.00000
           D4           0.00000  -0.00000  -0.00000  -0.00000  -0.00000
                          A1        A2        A3        A4        A5
           A1           0.15983
           A2          -0.00017   0.15983
           A3           0.00035   0.00035   0.15931
           A4          -0.00017  -0.00017   0.00035   0.15983
           A5          -0.00017  -0.00017   0.00035  -0.00017   0.15983
           A6           0.00035   0.00035  -0.00069   0.00035   0.00035
           D1          -0.00000  -0.00000   0.00000  -0.00000  -0.00000
           D2           0.00000   0.00000  -0.00000   0.00000   0.00000
           D3          -0.00000  -0.00000   0.00000  -0.00000  -0.00000
           D4           0.00000   0.00000  -0.00000   0.00000   0.00000
                          A6        D1        D2        D3        D4
           A6           0.15931
           D1           0.00000   0.02999
           D2          -0.00000  -0.00000   0.02999
           D3           0.00000   0.00000  -0.00000   0.02999
           D4          -0.00000  -0.00000   0.00000  -0.00000   0.02999
 ITU=  1  0
 Use linear search instead of GDIIS.
 Eigenvectors of the second derivative matrix:
                           1         2         3         4         5
     Eigenvalues --     0.02999   0.02999   0.02999   0.15418   0.16000
   1         R1         0.00000   0.00000   0.00000  -0.03620   0.00000
   2         R2        -0.00000   0.00000  -0.00000   0.05894  -0.00000
   3         R3        -0.00000   0.00000  -0.00000   0.05894  -0.00000
   4         R4         0.00000  -0.00000  -0.00000   0.05894  -0.00000
   5         R5        -0.00000  -0.00000  -0.00000   0.05894  -0.00000
   6         A1         0.00000  -0.00000  -0.00000   0.28647  -0.55468
   7         A2        -0.00000  -0.00000  -0.00000   0.28647   0.17298
   8         A3         0.00000  -0.00000   0.00000  -0.57294   0.38170
   9         A4        -0.00000   0.00000   0.00000   0.28647   0.57696
  10         A5         0.00000  -0.00000   0.00000   0.28647  -0.19526
  11         A6        -0.00000  -0.00000   0.00000  -0.57294  -0.38170
  12         D1         0.09310   0.49412   0.70510   0.00000  -0.00000
  13         D2        -0.59659   0.62772  -0.00656  -0.00000  -0.00000
  14         D3         0.79070   0.35325   0.00260  -0.00000  -0.00000
  15         D4         0.10100   0.48685  -0.70907  -0.00000  -0.00000
                           6         7         8         9        10
     Eigenvalues --     0.16000   0.16000   0.35816   0.35816   0.35816
   1         R1         0.00000   0.00000  -0.00000  -0.00000   0.00000
   2         R2        -0.00000  -0.00000  -0.80937  -0.20929   0.22608
   3         R3        -0.00000  -0.00000   0.47477   0.12846   0.71281
   4         R4        -0.00000  -0.00000   0.34553  -0.64385  -0.46484
   5         R5        -0.00000  -0.00000  -0.01092   0.72468  -0.47405
   6         A1        -0.40111   0.33877   0.00000   0.00000  -0.00000
   7         A2         0.19271  -0.71852   0.00000   0.00000  -0.00000
   8         A3         0.20840   0.37975  -0.00000  -0.00000   0.00000
   9         A4        -0.48461   0.12491   0.00000   0.00000  -0.00000
  10         A5         0.69301   0.25484   0.00000   0.00000  -0.00000
  11         A6        -0.20840  -0.37975  -0.00000  -0.00000   0.00000
  12         D1         0.00000   0.00000  -0.00000  -0.00000  -0.00000
  13         D2         0.00000   0.00000   0.00000  -0.00000  -0.00000
  14         D3         0.00000  -0.00000  -0.00000   0.00000   0.00000
  15         D4         0.00000   0.00000  -0.00000  -0.00000  -0.00000
                          11        12
     Eigenvalues --     0.37230   0.60414
   1         R1        -0.05916  -0.99759
   2         R2        -0.49576   0.02726
   3         R3        -0.49576   0.02726
   4         R4        -0.49576   0.02726
   5         R5        -0.49576   0.02726
   6         A1         0.03338  -0.01237
   7         A2         0.03338  -0.01237
   8         A3        -0.06676   0.02475
   9         A4         0.03338  -0.01237
  10         A5         0.03338  -0.01237
  11         A6        -0.06676   0.02475
  12         D1         0.00000   0.00000
  13         D2         0.00000  -0.00000
  14         D3        -0.00000   0.00000
  15         D4         0.00000   0.00000
 Iter=   1 RLamda= 0.00000000D+00 Sum=-2.11535091D-06.
 Iter=   2 RLamda=-2.11535091D-06 Sum=-2.11532258D-06.
 RFO step:  Lambda=-2.11535091D-06 EMin= 2.99901184D-02
 Quartic linear search produced a step of -0.02110.
 Iteration  1 RMS(Cart)=  0.00115235 RMS(Int)=  0.00000057
 Iteration  2 RMS(Cart)=  0.00000057 RMS(Int)=  0.00000000
 ITry= 1 IFail=0 DXMaxC= 1.86D-03 DCOld= 1.00D+10 DXMaxT= 3.00D-01 DXLimC= 3.00D+00 Rises=F
 ClnCor:  largest displacement from symmetrization is 3.98D-14 for atom     1.
 Variable       Old X    -DE/DX   Delta X   Delta X   Delta X     New X
                                 (Linear)    (Quad)   (Total)
    R1        2.50854   0.00021   0.00015   0.00010   0.00024   2.50879
    R2        2.05225  -0.00010  -0.00018   0.00005  -0.00013   2.05211
    R3        2.05225  -0.00010  -0.00018   0.00005  -0.00013   2.05211
    R4        2.05225  -0.00010  -0.00018   0.00005  -0.00013   2.05211
    R5        2.05225  -0.00010  -0.00018   0.00005  -0.00013   2.05211
    A1        2.12263   0.00017  -0.00002   0.00106   0.00104   2.12366
    A2        2.12263   0.00017  -0.00002   0.00106   0.00104   2.12366
    A3        2.03793  -0.00033   0.00004  -0.00211  -0.00207   2.03586
    A4        2.12263   0.00017  -0.00002   0.00106   0.00104   2.12366
    A5        2.12263   0.00017  -0.00002   0.00106   0.00104   2.12366
    A6        2.03793  -0.00033   0.00004  -0.00211  -0.00207   2.03586
    D1        0.00000   0.00000   0.00000   0.00000   0.00000   0.00000
    D2        3.14159  -0.00000   0.00000  -0.00000   0.00000   3.14159
    D3        3.14159   0.00000   0.00000   0.00000   0.00000   3.14159
    D4        0.00000  -0.00000   0.00000  -0.00000   0.00000   0.00000
         Item               Value     Threshold  Converged?
 Maximum Force            0.000334     0.000450     YES
 RMS     Force            0.000167     0.000300     YES
 Maximum Displacement     0.001860     0.001800     NO 
 RMS     Displacement     0.001152     0.001200     YES
 Predicted change in Energy=-1.088977D-06
 Lowest energy point so far.  Saving SCF results.
 Largest change from initial coordinates is atom    3       0.004 Angstoms.
 GradGradGradGradGradGradGradGradGradGradGradGradGradGradGradGradGradGrad

 Leave Link  103 at Wed Oct  7 13:27:11 2020, MaxMem=  2684354560 cpu:               3.0 elap:               0.7
 (Enter /udrive/faculty/rpeverati/g16/g16/l202.exe)
                          Input orientation:                          
 ---------------------------------------------------------------------
 Center     Atomic      Atomic             Coordinates (Angstroms)
 Number     Number       Type             X           Y           Z
 ---------------------------------------------------------------------
      1          6           0       -0.000000   -0.000000    0.663797
      2          6           0        0.000000    0.000000   -0.663797
      3          1           0        0.000000    0.924152    1.234052
      4          1           0       -0.000000   -0.924152    1.234052
      5          1           0        0.000000    0.924152   -1.234052
      6          1           0       -0.000000   -0.924152   -1.234052
 ---------------------------------------------------------------------
                    Distance matrix (angstroms):
                    1          2          3          4          5
     1  C    0.000000
     2  C    1.327594   0.000000
     3  H    1.085932   2.110897   0.000000
     4  H    1.085932   2.110897   1.848303   0.000000
     5  H    2.110897   1.085932   2.468105   3.083467   0.000000
     6  H    2.110897   1.085932   3.083467   2.468105   1.848303
                    6
     6  H    0.000000
 Stoichiometry    C2H4
 Framework group  D2H[C2"(C.C),SG(H4)]
 Deg. of freedom     3
 Full point group                 D2H     NOp   8
 RotChk:  IX=0 Diff= 8.15D-16
 Largest Abelian subgroup         D2H     NOp   8
 Largest concise Abelian subgroup D2      NOp   4
                         Standard orientation:                         
 ---------------------------------------------------------------------
 Center     Atomic      Atomic             Coordinates (Angstroms)
 Number     Number       Type             X           Y           Z
 ---------------------------------------------------------------------
      1          6           0        0.000000   -0.000000    0.663797
      2          6           0        0.000000   -0.000000   -0.663797
      3          1           0        0.000000    0.924152    1.234052
      4          1           0       -0.000000   -0.924152    1.234052
      5          1           0        0.000000    0.924152   -1.234052
      6          1           0       -0.000000   -0.924152   -1.234052
 ---------------------------------------------------------------------
 Rotational constants (GHZ):         146.7862946          30.2364368          25.0718904
 Leave Link  202 at Wed Oct  7 13:27:12 2020, MaxMem=  2684354560 cpu:               1.4 elap:               0.5
 (Enter /udrive/faculty/rpeverati/g16/g16/l301.exe)
 Standard basis: 6-31G(d) (5D, 7F)
 Ernie: Thresh=  0.10000D-02 Tol=  0.10000D-05 Strict=F.
 There are    10 symmetry adapted cartesian basis functions of AG  symmetry.
 There are     1 symmetry adapted cartesian basis functions of B1G symmetry.
 There are     3 symmetry adapted cartesian basis functions of B2G symmetry.
 There are     5 symmetry adapted cartesian basis functions of B3G symmetry.
 There are     1 symmetry adapted cartesian basis functions of AU  symmetry.
 There are    10 symmetry adapted cartesian basis functions of B1U symmetry.
 There are     5 symmetry adapted cartesian basis functions of B2U symmetry.
 There are     3 symmetry adapted cartesian basis functions of B3U symmetry.
 There are     9 symmetry adapted basis functions of AG  symmetry.
 There are     1 symmetry adapted basis functions of B1G symmetry.
 There are     3 symmetry adapted basis functions of B2G symmetry.
 There are     5 symmetry adapted basis functions of B3G symmetry.
 There are     1 symmetry adapted basis functions of AU  symmetry.
 There are     9 symmetry adapted basis functions of B1U symmetry.
 There are     5 symmetry adapted basis functions of B2U symmetry.
 There are     3 symmetry adapted basis functions of B3U symmetry.
    36 basis functions,    72 primitive gaussians,    38 cartesian basis functions
     8 alpha electrons        8 beta electrons
       nuclear repulsion energy        33.4059890428 Hartrees.
 IExCor= 4336 DFT=T Ex+Corr=M062X ExCW=0 ScaHFX=  0.540000
 ScaDFX=  1.000000  1.000000  1.000000  1.000000 ScalE2=  1.000000  1.000000
 IRadAn=      5 IRanWt=     -1 IRanGd=            0 ICorTp=0 IEmpDi=  4
 NAtoms=    6 NActive=    6 NUniq=    2 SFac= 4.00D+00 NAtFMM=   60 NAOKFM=F Big=F
 Integral buffers will be    131072 words long.
 Raffenetti 2 integral format.
 Two-electron integral symmetry is turned on.
 Leave Link  301 at Wed Oct  7 13:27:13 2020, MaxMem=  2684354560 cpu:               1.9 elap:               0.6
 (Enter /udrive/faculty/rpeverati/g16/g16/l302.exe)
 NPDir=0 NMtPBC=     1 NCelOv=     1 NCel=       1 NClECP=     1 NCelD=      1
         NCelK=      1 NCelE2=     1 NClLst=     1 CellRange=     0.0.
 One-electron integrals computed using PRISM.
 One-electron integral symmetry used in STVInt
 NBasis=    36 RedAO= T EigKep=  8.03D-03  NBF=     9     1     3     5     1     9     5     3
 NBsUse=    36 1.00D-06 EigRej= -1.00D+00 NBFU=     9     1     3     5     1     9     5     3
 Precomputing XC quadrature grid using
 IXCGrd= 4 IRadAn=           5 IRanWt=          -1 IRanGd=           0 AccXCQ= 0.00D+00.
 Generated NRdTot=       0 NPtTot=           0 NUsed=           0 NTot=          32
 NSgBfM=    38    38    38    38    38 MxSgAt=     6 MxSgA2=     6.
 Leave Link  302 at Wed Oct  7 13:27:14 2020, MaxMem=  2684354560 cpu:               4.3 elap:               0.8
 (Enter /udrive/faculty/rpeverati/g16/g16/l303.exe)
 DipDrv:  MaxL=1.
 Leave Link  303 at Wed Oct  7 13:27:14 2020, MaxMem=  2684354560 cpu:               1.5 elap:               0.6
 (Enter /udrive/faculty/rpeverati/g16/g16/l401.exe)
 Initial guess from the checkpoint file:  "MN_11_c2h4_BH76_M062X_631Gs.chk"
 SCF N**3 symmetry information disabled.
 B after Tr=     0.000000    0.000000   -0.000000
         Rot=    1.000000    0.000000    0.000000    0.000000 Ang=   0.00 deg.
 Guess basis will be translated and rotated to current coordinates.
 JPrj=2 DoOrth=T DoCkMO=T.
 Initial guess orbital symmetries:
       Occupied  (AG) (B1U) (AG) (B1U) (B2U) (AG) (B3G) (B3U)
       Virtual   (B2G) (AG) (B2U) (B1U) (B3G) (B1U) (AG) (B3U)
                 (B2U) (B2G) (AG) (B1U) (B2U) (B3G) (B1U) (AG)
                 (B1U) (B3G) (B3U) (B1G) (AU) (AG) (B2U) (AG) (B1U)
                 (B2G) (B1U) (B3G)
 The electronic state of the initial guess is 1-AG.
 Leave Link  401 at Wed Oct  7 13:27:15 2020, MaxMem=  2684354560 cpu:               4.0 elap:               0.7
 (Enter /udrive/faculty/rpeverati/g16/g16/l502.exe)
 Keep R1 ints in memory in symmetry-blocked form, NReq=10589939.
 FoFCou: FMM=F IPFlag=           0 FMFlag=           0 FMFlg1=           0
         NFxFlg=           0 DoJE=F BraDBF=F KetDBF=F FulRan=T
         wScrn=  0.000000 ICntrl=       600 IOpCl=  0 I1Cent=           0 NGrid=           0
         NMat0=    1 NMatS0=    666 NMatT0=    0 NMatD0=    1 NMtDS0=    0 NMtDT0=    0
 Petite list used in FoFCou.
 Closed shell SCF:
 Using DIIS extrapolation, IDIIS=  1040.
 NGot=  2684354560 LenX=  2684315185 LenY=  2684313300
 Requested convergence on RMS density matrix=1.00D-08 within 120 cycles.
 Requested convergence on MAX density matrix=1.00D-06.
 Requested convergence on             energy=1.00D-06.
 No special actions if energy rises.

 Cycle   1  Pass 1  IDiag  1:
 E= -78.5357853093187    
 DIIS: error= 7.07D-05 at cycle   1 NSaved=   1.
 NSaved= 1 IEnMin= 1 EnMin= -78.5357853093187     IErMin= 1 ErrMin= 7.07D-05
 ErrMax= 7.07D-05  0.00D+00 EMaxC= 1.00D-01 BMatC= 1.28D-07 BMatP= 1.28D-07
 IDIUse=1 WtCom= 1.00D+00 WtEn= 0.00D+00
 Coeff-Com:  0.100D+01
 Coeff:      0.100D+01
 Gap=     0.388 Goal=   None    Shift=    0.000
 RMSDP=1.04D-05 MaxDP=7.88D-05              OVMax= 1.24D-04

 Cycle   2  Pass 1  IDiag  1:
 E= -78.5357854480659     Delta-E=       -0.000000138747 Rises=F Damp=F
 DIIS: error= 1.58D-05 at cycle   2 NSaved=   2.
 NSaved= 2 IEnMin= 2 EnMin= -78.5357854480659     IErMin= 2 ErrMin= 1.58D-05
 ErrMax= 1.58D-05  0.00D+00 EMaxC= 1.00D-01 BMatC= 4.93D-09 BMatP= 1.28D-07
 IDIUse=1 WtCom= 1.00D+00 WtEn= 0.00D+00
 Coeff-Com:  0.747D-01 0.925D+00
 Coeff:      0.747D-01 0.925D+00
 Gap=     0.389 Goal=   None    Shift=    0.000
 RMSDP=1.81D-06 MaxDP=1.07D-05 DE=-1.39D-07 OVMax= 2.55D-05

 Cycle   3  Pass 1  IDiag  1:
 E= -78.5357854523842     Delta-E=       -0.000000004318 Rises=F Damp=F
 DIIS: error= 4.39D-06 at cycle   3 NSaved=   3.
 NSaved= 3 IEnMin= 3 EnMin= -78.5357854523842     IErMin= 3 ErrMin= 4.39D-06
 ErrMax= 4.39D-06  0.00D+00 EMaxC= 1.00D-01 BMatC= 4.55D-10 BMatP= 4.93D-09
 IDIUse=1 WtCom= 1.00D+00 WtEn= 0.00D+00
 Coeff-Com: -0.187D-01 0.163D+00 0.856D+00
 Coeff:     -0.187D-01 0.163D+00 0.856D+00
 Gap=     0.388 Goal=   None    Shift=    0.000
 RMSDP=7.17D-07 MaxDP=6.59D-06 DE=-4.32D-09 OVMax= 8.47D-06

 Cycle   4  Pass 1  IDiag  1:
 E= -78.5357854528080     Delta-E=       -0.000000000424 Rises=F Damp=F
 DIIS: error= 1.52D-06 at cycle   4 NSaved=   4.
 NSaved= 4 IEnMin= 4 EnMin= -78.5357854528080     IErMin= 4 ErrMin= 1.52D-06
 ErrMax= 1.52D-06  0.00D+00 EMaxC= 1.00D-01 BMatC= 6.27D-11 BMatP= 4.55D-10
 IDIUse=1 WtCom= 1.00D+00 WtEn= 0.00D+00
 Coeff-Com: -0.983D-02 0.155D-01 0.319D+00 0.675D+00
 Coeff:     -0.983D-02 0.155D-01 0.319D+00 0.675D+00
 Gap=     0.388 Goal=   None    Shift=    0.000
 RMSDP=1.76D-07 MaxDP=1.63D-06 DE=-4.24D-10 OVMax= 2.24D-06

 Cycle   5  Pass 1  IDiag  1:
 E= -78.5357854528768     Delta-E=       -0.000000000069 Rises=F Damp=F
 DIIS: error= 6.26D-08 at cycle   5 NSaved=   5.
 NSaved= 5 IEnMin= 5 EnMin= -78.5357854528768     IErMin= 5 ErrMin= 6.26D-08
 ErrMax= 6.26D-08  0.00D+00 EMaxC= 1.00D-01 BMatC= 6.03D-14 BMatP= 6.27D-11
 IDIUse=1 WtCom= 1.00D+00 WtEn= 0.00D+00
 Coeff-Com:  0.907D-03-0.389D-02-0.322D-01-0.460D-01 0.108D+01
 Coeff:      0.907D-03-0.389D-02-0.322D-01-0.460D-01 0.108D+01
 Gap=     0.388 Goal=   None    Shift=    0.000
 RMSDP=1.84D-08 MaxDP=1.03D-07 DE=-6.87D-11 OVMax= 1.86D-07

 Cycle   6  Pass 1  IDiag  1:
 E= -78.5357854528770     Delta-E=       -0.000000000000 Rises=F Damp=F
 DIIS: error= 5.35D-09 at cycle   6 NSaved=   6.
 NSaved= 6 IEnMin= 6 EnMin= -78.5357854528770     IErMin= 6 ErrMin= 5.35D-09
 ErrMax= 5.35D-09  0.00D+00 EMaxC= 1.00D-01 BMatC= 5.28D-16 BMatP= 6.03D-14
 IDIUse=1 WtCom= 1.00D+00 WtEn= 0.00D+00
 Coeff-Com: -0.402D-04 0.291D-03 0.196D-02-0.643D-05-0.111D+00 0.111D+01
 Coeff:     -0.402D-04 0.291D-03 0.196D-02-0.643D-05-0.111D+00 0.111D+01
 Gap=     0.388 Goal=   None    Shift=    0.000
 RMSDP=1.62D-09 MaxDP=7.74D-09 DE=-2.56D-13 OVMax= 1.20D-08

 SCF Done:  E(RM062X) =  -78.5357854529     A.U. after    6 cycles
            NFock=  6  Conv=0.16D-08     -V/T= 2.0061
 KE= 7.805986363424D+01 PE=-2.484278851770D+02 EE= 5.842624704703D+01
 Leave Link  502 at Wed Oct  7 13:27:17 2020, MaxMem=  2684354560 cpu:              10.0 elap:               1.2
 (Enter /udrive/faculty/rpeverati/g16/g16/l508.exe)
 QCSCF skips out because SCF is already converged.
 Leave Link  508 at Wed Oct  7 13:27:18 2020, MaxMem=  2684354560 cpu:               0.4 elap:               0.4
 (Enter /udrive/faculty/rpeverati/g16/g16/l701.exe)
 ... and contract with generalized density number  0.
 Compute integral first derivatives.
 Leave Link  701 at Wed Oct  7 13:27:18 2020, MaxMem=  2684354560 cpu:               3.6 elap:               0.6
 (Enter /udrive/faculty/rpeverati/g16/g16/l702.exe)
 L702 exits ... SP integral derivatives will be done elsewhere.
 Leave Link  702 at Wed Oct  7 13:27:19 2020, MaxMem=  2684354560 cpu:               1.7 elap:               0.5
 (Enter /udrive/faculty/rpeverati/g16/g16/l703.exe)
 Integral derivatives from FoFJK, PRISM(SPDF).
 Compute integral first derivatives, UseDBF=F ICtDFT=           0.
 Calling FoFJK, ICntrl=      2127 FMM=F ISym2X=1 I1Cent= 0 IOpClX= 0 NMat=1 NMatS=1 NMatT=0.
 FoFJK:  IHMeth= 1 ICntrl=    2127 DoSepK=F KAlg= 0 I1Cent=           0 FoldK=F
 IRaf=         0 NMat=       1 IRICut=       1 DoRegI=T DoRafI=F ISym2E= 1 IDoP0=0 IntGTp=1.
 FoFCou: FMM=F IPFlag=           0 FMFlag=      100000 FMFlg1=         800
         NFxFlg=           0 DoJE=F BraDBF=F KetDBF=F FulRan=T
         wScrn=  0.000000 ICntrl=      2127 IOpCl=  0 I1Cent=           0 NGrid=           0
         NMat0=    1 NMatS0=      1 NMatT0=    0 NMatD0=    1 NMtDS0=    0 NMtDT0=    0
 Petite list used in FoFCou.
 Leave Link  703 at Wed Oct  7 13:27:20 2020, MaxMem=  2684354560 cpu:               5.3 elap:               0.8
 (Enter /udrive/faculty/rpeverati/g16/g16/l716.exe)
 Dipole        =-5.74335578D-17 4.44089210D-16-8.88178420D-16
 ***** Axes restored to original set *****
 -------------------------------------------------------------------
 Center     Atomic                   Forces (Hartrees/Bohr)
 Number     Number              X              Y              Z
 -------------------------------------------------------------------
      1        6          -0.000000000    0.000000000   -0.000156220
      2        6          -0.000000000    0.000000000    0.000156220
      3        1           0.000000000   -0.000059751    0.000037995
      4        1           0.000000000    0.000059751    0.000037995
      5        1          -0.000000000   -0.000059751   -0.000037995
      6        1           0.000000000    0.000059751   -0.000037995
 -------------------------------------------------------------------
 Cartesian Forces:  Max     0.000156220 RMS     0.000061853
 Leave Link  716 at Wed Oct  7 13:27:21 2020, MaxMem=  2684354560 cpu:               1.7 elap:               0.7
 (Enter /udrive/faculty/rpeverati/g16/g16/l103.exe)

 GradGradGradGradGradGradGradGradGradGradGradGradGradGradGradGradGradGrad
 Berny optimization.
 Optmz: redundant internal coordinate code flag= 1
 Using GEDIIS/GDIIS optimizer.
 Red2BG:  D1=  2.81D-01 OD1=  2.49D-03 B2RMS=  0.00D+00 IAprox=0
 FormGI is forming the generalized inverse of G from B-inverse, IUseBI=4.
 Internal  Forces:  Max     0.000087163 RMS     0.000046938
 Search for a local minimum.
 Step number   3 out of a maximum of  100
 All quantities printed in internal units (Hartrees-Bohrs-Radians)
 RMS Force = .46938D-04 SwitMx=.10000D-02 MixMth= 2
 Mixed Optimization -- En-DIIS/RFO-DIIS
 Swapping is turned off.
 Update second derivatives using D2CorX and points    1    2    3
 DE= -1.36D-06 DEPred=-1.09D-06 R= 1.25D+00
 TightC=F SS=  1.41D+00  RLast= 3.61D-03 DXNew= 5.0454D-01 1.0815D-02
 Trust test= 1.25D+00 RLast= 3.61D-03 DXMaxT set to 3.00D-01
 The second derivative matrix:
                          R1        R2        R3        R4        R5
           R1           0.62678
           R2          -0.00562   0.35992
           R3          -0.00562   0.00176   0.35992
           R4          -0.00562   0.00176   0.00176   0.35992
           R5          -0.00562   0.00176   0.00176   0.00176   0.35992
           A1           0.01108  -0.00128  -0.00128  -0.00128  -0.00128
           A2           0.01108  -0.00128  -0.00128  -0.00128  -0.00128
           A3          -0.02216   0.00256   0.00256   0.00256   0.00256
           A4           0.01108  -0.00128  -0.00128  -0.00128  -0.00128
           A5           0.01108  -0.00128  -0.00128  -0.00128  -0.00128
           A6          -0.02216   0.00256   0.00256   0.00256   0.00256
           D1           0.00000   0.00000   0.00000   0.00000   0.00000
           D2          -0.00000   0.00000   0.00000   0.00000   0.00000
           D3           0.00000  -0.00000  -0.00000  -0.00000  -0.00000
           D4          -0.00000  -0.00000  -0.00000  -0.00000  -0.00000
                          A1        A2        A3        A4        A5
           A1           0.15632
           A2          -0.00368   0.15632
           A3           0.00737   0.00737   0.14526
           A4          -0.00368  -0.00368   0.00737   0.15632
           A5          -0.00368  -0.00368   0.00737  -0.00368   0.15632
           A6           0.00737   0.00737  -0.01474   0.00737   0.00737
           D1           0.00000   0.00000  -0.00000   0.00000   0.00000
           D2          -0.00000  -0.00000   0.00000  -0.00000  -0.00000
           D3           0.00000   0.00000  -0.00000   0.00000   0.00000
           D4          -0.00000  -0.00000   0.00000  -0.00000  -0.00000
                          A6        D1        D2        D3        D4
           A6           0.14526
           D1          -0.00000   0.02999
           D2           0.00000  -0.00000   0.02999
           D3          -0.00000   0.00000  -0.00000   0.02999
           D4           0.00000  -0.00000   0.00000  -0.00000   0.02999
 ITU=  1  1  0
 Eigenvectors of the second derivative matrix:
                           1         2         3         4         5
     Eigenvalues --     0.02999   0.02999   0.02999   0.11266   0.16000
   1         R1         0.00000   0.00000  -0.00000  -0.07371   0.00000
   2         R2         0.00000   0.00000   0.00000   0.01589  -0.00000
   3         R3         0.00000   0.00000   0.00000   0.01589  -0.00000
   4         R4         0.00000  -0.00000  -0.00000   0.01589  -0.00000
   5         R5        -0.00000   0.00000  -0.00000   0.01589  -0.00000
   6         A1         0.00000   0.00000  -0.00000   0.28774   0.46901
   7         A2         0.00000   0.00000  -0.00000   0.28774  -0.50244
   8         A3        -0.00000  -0.00000   0.00000  -0.57549   0.03344
   9         A4         0.00000   0.00000   0.00000   0.28774   0.52896
  10         A5         0.00000   0.00000  -0.00000   0.28774  -0.49553
  11         A6        -0.00000  -0.00000   0.00000  -0.57549  -0.03344
  12         D1        -0.10999  -0.84321  -0.16402   0.00000   0.00000
  13         D2         0.49394  -0.22998  -0.67315  -0.00000   0.00000
  14         D3        -0.83185  -0.15156  -0.18722   0.00000  -0.00000
  15         D4        -0.22792   0.46167  -0.69636  -0.00000   0.00000
                           6         7         8         9        10
     Eigenvalues --     0.16000   0.16000   0.35816   0.35816   0.35816
   1         R1        -0.00000  -0.00000   0.00000   0.00000  -0.00000
   2         R2         0.00000   0.00000   0.07260  -0.80598   0.30842
   3         R3         0.00000   0.00000  -0.66046   0.03679  -0.55896
   4         R4         0.00000   0.00000  -0.14524   0.54771   0.65492
   5         R5         0.00000   0.00000   0.73309   0.22148  -0.40438
   6         A1         0.33807  -0.49907  -0.00000  -0.00000   0.00000
   7         A2         0.23778   0.52378  -0.00000  -0.00000   0.00000
   8         A3        -0.57585  -0.02471   0.00000   0.00000  -0.00000
   9         A4        -0.27909   0.47502  -0.00000  -0.00000   0.00000
  10         A5        -0.29676  -0.49972  -0.00000  -0.00000   0.00000
  11         A6         0.57585   0.02471   0.00000   0.00000  -0.00000
  12         D1        -0.00000   0.00000  -0.00000  -0.00000  -0.00000
  13         D2        -0.00000   0.00000  -0.00000  -0.00000  -0.00000
  14         D3        -0.00000  -0.00000  -0.00000  -0.00000   0.00000
  15         D4        -0.00000   0.00000  -0.00000  -0.00000  -0.00000
                          11        12
     Eigenvalues --     0.36493   0.63018
   1         R1         0.04704   0.99617
   2         R2         0.49925  -0.02240
   3         R3         0.49925  -0.02240
   4         R4         0.49925  -0.02240
   5         R5         0.49925  -0.02240
   6         A1        -0.00819   0.02168
   7         A2        -0.00819   0.02168
   8         A3         0.01637  -0.04336
   9         A4        -0.00819   0.02168
  10         A5        -0.00819   0.02168
  11         A6         0.01637  -0.04336
  12         D1        -0.00000   0.00000
  13         D2         0.00000  -0.00000
  14         D3        -0.00000   0.00000
  15         D4         0.00000  -0.00000
 DoSqrt=T IScMMF=    -3 MM Scaling Factor =       0.00000
 En-DIIS/RFO-DIIS/Sim-DIIS IScMMF=       -3 using points:     3    2
 Iter=   1 RLamda=-2.00098816D-02 Sum=-1.99070028D-07.
 Iter=   2 RLamda=-1.99070028D-07 Sum=-2.31903381D-07.
 Iter=   3 RLamda=-2.31903381D-07 Sum=-2.31903318D-07.
 RFO step:  Lambda=-2.31903381D-07.
 NNeg= 0 NGDIIS= 2 SimSw=  2.50D-03 Rises=F DC= -1.36D-06 SmlDif=  1.00D-05
 NRisDI= 0 DoIntr=F SqrtH=F CThrHd= 10.0 CDAdj=  3.0
 RMS Error=  0.3583774052D-03 NUsed= 2 OKEnD=F EnDIS=F
 Total RFO-DIIS matrix:
                 1             2             3 
      1   0.000000D+00 -0.100000D+01 -0.100000D+01
      2  -0.100000D+01  0.192652D-05  0.680463D-05
      3  -0.100000D+01  0.680463D-05  0.246788D-04
 InvSVX:  RCond= 3.25D-06 Info=           0 Equed=N FErr=  1.91D-15 BErr=  9.05D-17
 DidBck=F Rises=F RFO-DIIS coefs:    1.37535   -0.37535
 Iteration  1 RMS(Cart)=  0.00037804 RMS(Int)=  0.00000008
 Iteration  2 RMS(Cart)=  0.00000008 RMS(Int)=  0.00000000
 ITry= 1 IFail=0 DXMaxC= 5.43D-04 DCOld= 1.00D+10 DXMaxT= 3.00D-01 DXLimC= 3.00D+00 Rises=F
 ClnCor:  largest displacement from symmetrization is 4.00D-14 for atom     1.
 Variable       Old X    -DE/DX   Delta X   Delta X   Delta X     New X
                                 (Linear)    (Quad)   (Total)
    R1        2.50879  -0.00008   0.00009  -0.00031  -0.00021   2.50857
    R2        2.05211  -0.00003  -0.00005  -0.00002  -0.00007   2.05204
    R3        2.05211  -0.00003  -0.00005  -0.00002  -0.00007   2.05204
    R4        2.05211  -0.00003  -0.00005  -0.00002  -0.00007   2.05204
    R5        2.05211  -0.00003  -0.00005  -0.00002  -0.00007   2.05204
    A1        2.12366   0.00004   0.00039   0.00001   0.00039   2.12406
    A2        2.12366   0.00004   0.00039   0.00001   0.00039   2.12406
    A3        2.03586  -0.00009  -0.00078  -0.00001  -0.00079   2.03507
    A4        2.12366   0.00004   0.00039   0.00001   0.00039   2.12406
    A5        2.12366   0.00004   0.00039   0.00001   0.00039   2.12406
    A6        2.03586  -0.00009  -0.00078  -0.00001  -0.00079   2.03507
    D1        0.00000   0.00000   0.00000   0.00000   0.00000   0.00000
    D2        3.14159  -0.00000   0.00000  -0.00000   0.00000   3.14159
    D3        3.14159   0.00000   0.00000   0.00000   0.00000   3.14159
    D4        0.00000  -0.00000   0.00000  -0.00000   0.00000   0.00000
         Item               Value     Threshold  Converged?
 Maximum Force            0.000087     0.000450     YES
 RMS     Force            0.000047     0.000300     YES
 Maximum Displacement     0.000543     0.001800     YES
 RMS     Displacement     0.000378     0.001200     YES
 Predicted change in Energy=-1.159519D-07
 Optimization completed.
    -- Stationary point found.
                           ----------------------------
                           !   Optimized Parameters   !
                           ! (Angstroms and Degrees)  !
 --------------------------                            --------------------------
 ! Name  Definition              Value          Derivative Info.                !
 --------------------------------------------------------------------------------
 ! R1    R(1,2)                  1.3276         -DE/DX =   -0.0001              !
 ! R2    R(1,3)                  1.0859         -DE/DX =    0.0                 !
 ! R3    R(1,4)                  1.0859         -DE/DX =    0.0                 !
 ! R4    R(2,5)                  1.0859         -DE/DX =    0.0                 !
 ! R5    R(2,6)                  1.0859         -DE/DX =    0.0                 !
 ! A1    A(2,1,3)              121.677          -DE/DX =    0.0                 !
 ! A2    A(2,1,4)              121.677          -DE/DX =    0.0                 !
 ! A3    A(3,1,4)              116.646          -DE/DX =   -0.0001              !
 ! A4    A(1,2,5)              121.677          -DE/DX =    0.0                 !
 ! A5    A(1,2,6)              121.677          -DE/DX =    0.0                 !
 ! A6    A(5,2,6)              116.646          -DE/DX =   -0.0001              !
 ! D1    D(3,1,2,5)              0.0            -DE/DX =    0.0                 !
 ! D2    D(3,1,2,6)            180.0            -DE/DX =    0.0                 !
 ! D3    D(4,1,2,5)            180.0            -DE/DX =    0.0                 !
 ! D4    D(4,1,2,6)              0.0            -DE/DX =    0.0                 !
 --------------------------------------------------------------------------------
 Lowest energy point so far.  Saving SCF results.
 Largest change from initial coordinates is atom    3       0.004 Angstoms.
 GradGradGradGradGradGradGradGradGradGradGradGradGradGradGradGradGradGrad

 Leave Link  103 at Wed Oct  7 13:27:22 2020, MaxMem=  2684354560 cpu:               2.6 elap:               0.7
 (Enter /udrive/faculty/rpeverati/g16/g16/l202.exe)
                          Input orientation:                          
 ---------------------------------------------------------------------
 Center     Atomic      Atomic             Coordinates (Angstroms)
 Number     Number       Type             X           Y           Z
 ---------------------------------------------------------------------
      1          6           0       -0.000000   -0.000000    0.663797
      2          6           0        0.000000    0.000000   -0.663797
      3          1           0        0.000000    0.924152    1.234052
      4          1           0       -0.000000   -0.924152    1.234052
      5          1           0        0.000000    0.924152   -1.234052
      6          1           0       -0.000000   -0.924152   -1.234052
 ---------------------------------------------------------------------
                    Distance matrix (angstroms):
                    1          2          3          4          5
     1  C    0.000000
     2  C    1.327594   0.000000
     3  H    1.085932   2.110897   0.000000
     4  H    1.085932   2.110897   1.848303   0.000000
     5  H    2.110897   1.085932   2.468105   3.083467   0.000000
     6  H    2.110897   1.085932   3.083467   2.468105   1.848303
                    6
     6  H    0.000000
 Stoichiometry    C2H4
 Framework group  D2H[C2"(C.C),SG(H4)]
 Deg. of freedom     3
 Full point group                 D2H     NOp   8
 RotChk:  IX=0 Diff= 1.12D-15
 Largest Abelian subgroup         D2H     NOp   8
 Largest concise Abelian subgroup D2      NOp   4
                         Standard orientation:                         
 ---------------------------------------------------------------------
 Center     Atomic      Atomic             Coordinates (Angstroms)
 Number     Number       Type             X           Y           Z
 ---------------------------------------------------------------------
      1          6           0        0.000000   -0.000000    0.663797
      2          6           0        0.000000   -0.000000   -0.663797
      3          1           0        0.000000    0.924152    1.234052
      4          1           0       -0.000000   -0.924152    1.234052
      5          1           0        0.000000    0.924152   -1.234052
      6          1           0       -0.000000   -0.924152   -1.234052
 ---------------------------------------------------------------------
 Rotational constants (GHZ):         146.7862946          30.2364368          25.0718904
 Leave Link  202 at Wed Oct  7 13:27:23 2020, MaxMem=  2684354560 cpu:               1.4 elap:               0.5
 (Enter /udrive/faculty/rpeverati/g16/g16/l601.exe)
 Copying SCF densities to generalized density rwf, IOpCl= 0 IROHF=0.

 **********************************************************************

            Population analysis using the SCF density.

 **********************************************************************

 Orbital symmetries:
       Occupied  (AG) (B1U) (AG) (B1U) (B2U) (AG) (B3G) (B3U)
       Virtual   (B2G) (AG) (B2U) (B1U) (B3G) (B1U) (AG) (B3U)
                 (B2U) (B2G) (AG) (B1U) (B2U) (B3G) (B1U) (AG)
                 (B1U) (B3G) (B3U) (B1G) (AU) (AG) (B2U) (AG) (B1U)
                 (B2G) (B1U) (B3G)
 The electronic state is 1-AG.
 Alpha  occ. eigenvalues --  -10.53670 -10.53565  -0.85127  -0.65647  -0.53533
 Alpha  occ. eigenvalues --   -0.47776  -0.41226  -0.32514
 Alpha virt. eigenvalues --    0.06336   0.16991   0.18965   0.20964   0.29685
 Alpha virt. eigenvalues --    0.37564   0.52665   0.60458   0.61576   0.69927
 Alpha virt. eigenvalues --    0.70682   0.76552   0.91275   0.94988   1.00656
 Alpha virt. eigenvalues --    1.01438   1.15647   1.26704   1.51778   1.59518
 Alpha virt. eigenvalues --    1.88723   1.93995   2.05737   2.14660   2.34111
 Alpha virt. eigenvalues --    2.41989   2.73735   2.74822
          Condensed to atoms (all electrons):
               1          2          3          4          5          6
     1  C    4.956219   0.669242   0.386216   0.386216  -0.036435  -0.036435
     2  C    0.669242   4.956219  -0.036435  -0.036435   0.386216   0.386216
     3  H    0.386216  -0.036435   0.527344  -0.036665  -0.007251   0.004281
     4  H    0.386216  -0.036435  -0.036665   0.527344   0.004281  -0.007251
     5  H   -0.036435   0.386216  -0.007251   0.004281   0.527344  -0.036665
     6  H   -0.036435   0.386216   0.004281  -0.007251  -0.036665   0.527344
 Mulliken charges:
               1
     1  C   -0.325022
     2  C   -0.325022
     3  H    0.162511
     4  H    0.162511
     5  H    0.162511
     6  H    0.162511
 Sum of Mulliken charges =  -0.00000
 Mulliken charges with hydrogens summed into heavy atoms:
               1
     1  C   -0.000000
     2  C   -0.000000
 Electronic spatial extent (au):  <R**2>=             81.9773
 Charge=              0.0000 electrons
 Dipole moment (field-independent basis, Debye):
    X=             -0.0000    Y=              0.0000    Z=             -0.0000  Tot=              0.0000
 Quadrupole moment (field-independent basis, Debye-Ang):
   XX=            -15.1573   YY=            -12.0847   ZZ=            -11.9555
   XY=              0.0000   XZ=             -0.0000   YZ=             -0.0000
 Traceless Quadrupole moment (field-independent basis, Debye-Ang):
   XX=             -2.0915   YY=              0.9811   ZZ=              1.1103
   XY=              0.0000   XZ=             -0.0000   YZ=             -0.0000
 Octapole moment (field-independent basis, Debye-Ang**2):
  XXX=             -0.0000  YYY=              0.0000  ZZZ=             -0.0000  XYY=             -0.0000
  XXY=              0.0000  XXZ=             -0.0000  XZZ=             -0.0000  YZZ=              0.0000
  YYZ=              0.0000  XYZ=             -0.0000
 Hexadecapole moment (field-independent basis, Debye-Ang**3):
 XXXX=            -15.8129 YYYY=            -25.8639 ZZZZ=            -66.2326 XXXY=             -0.0000
 XXXZ=              0.0000 YYYX=             -0.0000 YYYZ=             -0.0000 ZZZX=              0.0000
 ZZZY=             -0.0000 XXYY=             -7.5575 XXZZ=            -14.6007 YYZZ=            -12.9017
 XXYZ=             -0.0000 YYXZ=              0.0000 ZZXY=              0.0000
 N-N= 3.340598904282D+01 E-N=-2.484278852679D+02  KE= 7.805986363424D+01
 No NMR shielding tensors so no spin-rotation constants.
 Leave Link  601 at Wed Oct  7 13:27:24 2020, MaxMem=  2684354560 cpu:               3.9 elap:               0.7
 (Enter /udrive/faculty/rpeverati/g16/g16/l9999.exe)

 Test job not archived.
 1\1\GINC-NODE20\FOpt\RM062X\6-31G(d)\C2H4\RPEVERATI\07-Oct-2020\0\\#P 
 Opt(MaxCyc=100) M062X/6-31G* 5D 7F Integral=UltraFineGrid SCF=(NoSymm,
 XQC,MaxCyc=120) IOp(1/33=1)\\TS search on BH76.\\0,1\C,0.,0.,0.6637968
 82\C,0.,0.,-0.663796882\H,0.,0.9241517258,1.2340523231\H,0.,-0.9241517
 258,1.2340523231\H,0.,0.9241517258,-1.2340523231\H,0.,-0.9241517258,-1
 .2340523231\\Version=ES64L-G16RevA.03\State=1-AG\HF=-78.5357855\RMSD=1
 .623e-09\RMSF=6.185e-05\Dipole=0.,0.,0.\Quadrupole=-1.5549568,0.729442
 9,0.8255139,0.,0.,0.\PG=D02H [C2"(C1.C1),SG(H4)]\\@


 YOU WILL NEVER "FIND" TIME FOR ANYTHING.
 IF YOU WANT TIME, YOU MUST MAKE IT.

                        -- CHARLES BIXTON
 Job cpu time:       0 days  0 hours  2 minutes 31.3 seconds.
 Elapsed time:       0 days  0 hours  0 minutes 28.6 seconds.
 File lengths (MBytes):  RWF=      5 Int=      0 D2E=      0 Chk=      1 Scr=      1
 Normal termination of Gaussian 16 at Wed Oct  7 13:27:25 2020.
