 Entering Gaussian System, Link 0=g16
 Input=MN_21_ch3fclts_BH76_M062X_631Gs.in
 Output=MN_21_ch3fclts_BH76_M062X_631Gs.log
 Initial command:
 /udrive/faculty/rpeverati/g16/g16/l1.exe "/udrive/scratch-directories/gaussian09/rpeverati/Gau-22438.inp" -scrdir="/udrive/scratch-directories/gaussian09/rpeverati/"
 Entering Link 1 = /udrive/faculty/rpeverati/g16/g16/l1.exe PID=     22450.
  
 Copyright (c) 1988,1990,1992,1993,1995,1998,2003,2009,2016,
            Gaussian, Inc.  All Rights Reserved.
  
 This is part of the Gaussian(R) 16 program.  It is based on
 the Gaussian(R) 09 system (copyright 2009, Gaussian, Inc.),
 the Gaussian(R) 03 system (copyright 2003, Gaussian, Inc.),
 the Gaussian(R) 98 system (copyright 1998, Gaussian, Inc.),
 the Gaussian(R) 94 system (copyright 1995, Gaussian, Inc.),
 the Gaussian 92(TM) system (copyright 1992, Gaussian, Inc.),
 the Gaussian 90(TM) system (copyright 1990, Gaussian, Inc.),
 the Gaussian 88(TM) system (copyright 1988, Gaussian, Inc.),
 the Gaussian 86(TM) system (copyright 1986, Carnegie Mellon
 University), and the Gaussian 82(TM) system (copyright 1983,
 Carnegie Mellon University). Gaussian is a federally registered
 trademark of Gaussian, Inc.
  
 This software contains proprietary and confidential information,
 including trade secrets, belonging to Gaussian, Inc.
  
 This software is provided under written license and may be
 used, copied, transmitted, or stored only in accord with that
 written license.
  
 The following legend is applicable only to US Government
 contracts under FAR:
  
                    RESTRICTED RIGHTS LEGEND
  
 Use, reproduction and disclosure by the US Government is
 subject to restrictions as set forth in subparagraphs (a)
 and (c) of the Commercial Computer Software - Restricted
 Rights clause in FAR 52.227-19.
  
 Gaussian, Inc.
 340 Quinnipiac St., Bldg. 40, Wallingford CT 06492
  
  
 ---------------------------------------------------------------
 Warning -- This program may not be used in any manner that
 competes with the business of Gaussian, Inc. or will provide
 assistance to any competitor of Gaussian, Inc.  The licensee
 of this program is prohibited from giving any competitor of
 Gaussian, Inc. access to this program.  By using this program,
 the user acknowledges that Gaussian, Inc. is engaged in the
 business of creating and licensing software in the field of
 computational chemistry and represents and warrants to the
 licensee that it is not a competitor of Gaussian, Inc. and that
 it will not use this program in any manner prohibited above.
 ---------------------------------------------------------------
  

 Cite this work as:
 Gaussian 16, Revision A.03,
 M. J. Frisch, G. W. Trucks, H. B. Schlegel, G. E. Scuseria, 
 M. A. Robb, J. R. Cheeseman, G. Scalmani, V. Barone, 
 G. A. Petersson, H. Nakatsuji, X. Li, M. Caricato, A. V. Marenich, 
 J. Bloino, B. G. Janesko, R. Gomperts, B. Mennucci, H. P. Hratchian, 
 J. V. Ortiz, A. F. Izmaylov, J. L. Sonnenberg, D. Williams-Young, 
 F. Ding, F. Lipparini, F. Egidi, J. Goings, B. Peng, A. Petrone, 
 T. Henderson, D. Ranasinghe, V. G. Zakrzewski, J. Gao, N. Rega, 
 G. Zheng, W. Liang, M. Hada, M. Ehara, K. Toyota, R. Fukuda, 
 J. Hasegawa, M. Ishida, T. Nakajima, Y. Honda, O. Kitao, H. Nakai, 
 T. Vreven, K. Throssell, J. A. Montgomery, Jr., J. E. Peralta, 
 F. Ogliaro, M. J. Bearpark, J. J. Heyd, E. N. Brothers, K. N. Kudin, 
 V. N. Staroverov, T. A. Keith, R. Kobayashi, J. Normand, 
 K. Raghavachari, A. P. Rendell, J. C. Burant, S. S. Iyengar, 
 J. Tomasi, M. Cossi, J. M. Millam, M. Klene, C. Adamo, R. Cammi, 
 J. W. Ochterski, R. L. Martin, K. Morokuma, O. Farkas, 
 J. B. Foresman, and D. J. Fox, Gaussian, Inc., Wallingford CT, 2016.
 
 ******************************************
 Gaussian 16:  ES64L-G16RevA.03 25-Dec-2016
                 7-Oct-2020 
 ******************************************
 %NoSave
 %nproc=12
 Will use up to   12 processors via shared memory.
 %mem=20GB
 %chk=MN_21_ch3fclts_BH76_M062X_631Gs
 ----------------------------------------------------------------------
 #P Opt(TS,MaxCyc=50,NoEigenTest,MaxStep=10,AddRedundant) M062X/6-31G* 
 5D 7F Integral=UltraFineGrid SCF=(NoSymm,XQC,MaxCyc=120) IOp(1/33=1)
 ----------------------------------------------------------------------
 1/5=1,6=50,8=10,11=1,18=120,26=4,33=1,38=1/1,3;
 2/9=110,12=2,17=6,18=5,40=1/2;
 3/5=1,6=6,7=1,8=11,11=2,25=1,30=1,71=1,74=-55,75=-5/1,2,3;
 4/9=2/1;
 5/5=2,7=120,8=3,13=1,38=5/2,8;
 6/7=2,8=2,9=2,10=2,28=1/1;
 7//1,2,3,16;
 1/5=1,6=50,8=10,11=1,18=20,26=4,33=1/3(2);
 2/9=110/2;
 99//99;
 2/9=110/2;
 3/5=1,6=6,7=1,8=11,11=2,25=1,30=1,71=1,74=-55,75=-5/1,2,3;
 4/5=5,9=2,16=3,69=1/1;
 5/5=2,7=120,8=3,13=1,38=5/2,8;
 7//1,2,3,16;
 1/5=1,6=50,8=10,11=1,18=20,26=4,33=1/3(-5);
 2/9=110/2;
 6/7=2,8=2,9=2,10=2,19=2,28=1/1;
 99/9=1/99;
 Leave Link    1 at Wed Oct  7 13:27:51 2020, MaxMem=  2684354560 cpu:               6.1 elap:               0.6
 (Enter /udrive/faculty/rpeverati/g16/g16/l101.exe)
 ONIOM data not found on unit 2.
 ------------------
 TS search on BH76.
 ------------------
 TstMul:  ICh=     0
 TstMul:  Mul=     2
 TstMul:  ICh=     0
 TstMul:  Mul=     2
 Symbolic Z-matrix:
 Charge =  0 Multiplicity = 2
 Cl                    1.45475  -0.00124  -0.00004 
 F                    -0.32359   0.00463   0.00012 
 C                    -2.38742  -0.00215  -0.00007 
 H                    -2.49509  -0.85536  -0.64941 
 H                    -2.49731  -0.13867   1.06314 
 H                    -2.50154   0.98627  -0.41373 
 
 RdStrC is calling ZToCFu for IStruc=1 NZ=     6.
 PrtBox:  NBox=     1 Levels=  1 BoxLen=    8.00 SMaxX=        7.48
          Shift=            4.727220            1.616400            1.227200
 Box      1 Number                   0 centers from      1 to      6:
 After GenITR:
 ITRead=  0  0  0  0  0  0
 MicOpt= -1 -1 -1 -1 -1 -1
 Add virtual bond connecting atoms C3         and F2         Dist= 3.90D+00.
 The following ModRedundant input section has been read:
 
 ITRead=  0  0  0  0  0  0
 MicOpt= -1 -1 -1 -1 -1 -1
 NAtoms=      6 NQM=        6 NQMF=       0 NMMI=      0 NMMIF=      0
                NMic=       0 NMicF=      0.
                    Isotopes and Nuclear Properties:
 (Nuclear quadrupole moments (NQMom) in fm**2, nuclear magnetic moments (NMagM)
  in nuclear magnetons)

  Atom         1           2           3           4           5           6
 IAtWgt=          35          19          12           1           1           1
 AtmWgt=  34.9688527  18.9984033  12.0000000   1.0078250   1.0078250   1.0078250
 NucSpn=           3           1           0           1           1           1
 AtZEff=   0.0000000   0.0000000   0.0000000   0.0000000   0.0000000   0.0000000
 NQMom=   -8.1650000   0.0000000   0.0000000   0.0000000   0.0000000   0.0000000
 NMagM=    0.8218740   2.6288670   0.0000000   2.7928460   2.7928460   2.7928460
 AtZNuc=  17.0000000   9.0000000   6.0000000   1.0000000   1.0000000   1.0000000
 No MM parameters found.
 Leave Link  101 at Wed Oct  7 13:27:51 2020, MaxMem=  2684354560 cpu:               3.7 elap:               0.4
 (Enter /udrive/faculty/rpeverati/g16/g16/l103.exe)

 GradGradGradGradGradGradGradGradGradGradGradGradGradGradGradGradGradGrad
 Berny optimization.
 Optmz: redundant internal coordinate code flag= 1
 Initialization pass.
                           ----------------------------
                           !    Initial Parameters    !
                           ! (Angstroms and Degrees)  !
 --------------------------                            --------------------------
 ! Name  Definition              Value          Derivative Info.                !
 --------------------------------------------------------------------------------
 ! R1    R(1,2)                  1.7783         estimate D2E/DX2                !
 ! R2    R(2,3)                  2.0638         estimate D2E/DX2                !
 ! R3    R(3,4)                  1.0776         estimate D2E/DX2                !
 ! R4    R(3,5)                  1.0776         estimate D2E/DX2                !
 ! R5    R(3,6)                  1.0775         estimate D2E/DX2                !
 ! A1    A(2,3,4)               95.8873         estimate D2E/DX2                !
 ! A2    A(2,3,5)               95.872          estimate D2E/DX2                !
 ! A3    A(2,3,6)               95.9078         estimate D2E/DX2                !
 ! A4    A(4,3,5)              118.9501         estimate D2E/DX2                !
 ! A5    A(4,3,6)              118.972          estimate D2E/DX2                !
 ! A6    A(5,3,6)              118.96           estimate D2E/DX2                !
 ! A7    L(1,2,3,5,-1)         179.9603         estimate D2E/DX2                !
 ! A8    L(1,2,3,5,-2)         180.8481         estimate D2E/DX2                !
 ! D1    D(4,3,6,5)            159.844          estimate D2E/DX2                !
 --------------------------------------------------------------------------------
 Maximum allowed force set to 1.00D+20.
 Trust Radius=1.00D-01 FncErr=1.00D-07 GrdErr=1.00D-06 EigMax=2.50D+02 EigMin=1.00D-04
 Number of steps in this run=     50 maximum allowed number of steps=    100.
 Search for a saddle point of order  1.
 GradGradGradGradGradGradGradGradGradGradGradGradGradGradGradGradGradGrad

 Leave Link  103 at Wed Oct  7 13:27:52 2020, MaxMem=  2684354560 cpu:               0.7 elap:               0.3
 (Enter /udrive/faculty/rpeverati/g16/g16/l202.exe)
                          Input orientation:                          
 ---------------------------------------------------------------------
 Center     Atomic      Atomic             Coordinates (Angstroms)
 Number     Number       Type             X           Y           Z
 ---------------------------------------------------------------------
      1         17           0        1.454750   -0.001237   -0.000040
      2          9           0       -0.323587    0.004631    0.000124
      3          6           0       -2.387420   -0.002147   -0.000073
      4          1           0       -2.495086   -0.855362   -0.649406
      5          1           0       -2.497314   -0.138673    1.063138
      6          1           0       -2.501537    0.986270   -0.413734
 ---------------------------------------------------------------------
                    Distance matrix (angstroms):
                    1          2          3          4          5
     1  Cl   0.000000
     2  F    1.778347   0.000000
     3  C    3.842171   2.063844   0.000000
     4  H    4.092972   2.424229   1.077591   0.000000
     5  H    4.094881   2.423969   1.077559   1.856463   0.000000
     6  H    4.098600   2.424533   1.077546   1.856661   1.856520
                    6
     6  H    0.000000
 Stoichiometry    CH3ClF(2)
 Framework group  C1[X(CH3ClF)]
 Deg. of freedom    12
 Full point group                 C1      NOp   1
 Largest Abelian subgroup         C1      NOp   1
 Largest concise Abelian subgroup C1      NOp   1
                         Standard orientation:                         
 ---------------------------------------------------------------------
 Center     Atomic      Atomic             Coordinates (Angstroms)
 Number     Number       Type             X           Y           Z
 ---------------------------------------------------------------------
      1         17           0        1.454750   -0.001237   -0.000035
      2          9           0       -0.323588    0.004631    0.000108
      3          6           0       -2.387420   -0.002147   -0.000065
      4          1           0       -2.495087   -0.857681   -0.646340
      5          1           0       -2.497315   -0.134867    1.063628
      6          1           0       -2.501538    0.984782   -0.417262
 ---------------------------------------------------------------------
 Rotational constants (GHZ):         145.4640404           3.0826808           3.0826629
 Leave Link  202 at Wed Oct  7 13:27:53 2020, MaxMem=  2684354560 cpu:               1.0 elap:               0.4
 (Enter /udrive/faculty/rpeverati/g16/g16/l301.exe)
 Standard basis: 6-31G(d) (5D, 7F)
 Ernie: Thresh=  0.10000D-02 Tol=  0.10000D-05 Strict=F.
 There are    55 symmetry adapted cartesian basis functions of A   symmetry.
 There are    52 symmetry adapted basis functions of A   symmetry.
    52 basis functions,   120 primitive gaussians,    55 cartesian basis functions
    18 alpha electrons       17 beta electrons
       nuclear repulsion energy        95.5999177823 Hartrees.
 IExCor= 4336 DFT=T Ex+Corr=M062X ExCW=0 ScaHFX=  0.540000
 ScaDFX=  1.000000  1.000000  1.000000  1.000000 ScalE2=  1.000000  1.000000
 IRadAn=      5 IRanWt=     -1 IRanGd=            0 ICorTp=0 IEmpDi=  4
 NAtoms=    6 NActive=    6 NUniq=    6 SFac= 1.00D+00 NAtFMM=   60 NAOKFM=F Big=F
 Integral buffers will be    131072 words long.
 Raffenetti 2 integral format.
 Two-electron integral symmetry is turned on.
 Leave Link  301 at Wed Oct  7 13:27:53 2020, MaxMem=  2684354560 cpu:               1.7 elap:               0.4
 (Enter /udrive/faculty/rpeverati/g16/g16/l302.exe)
 NPDir=0 NMtPBC=     1 NCelOv=     1 NCel=       1 NClECP=     1 NCelD=      1
         NCelK=      1 NCelE2=     1 NClLst=     1 CellRange=     0.0.
 One-electron integrals computed using PRISM.
 One-electron integral symmetry used in STVInt
 NBasis=    52 RedAO= T EigKep=  2.48D-02  NBF=    52
 NBsUse=    52 1.00D-06 EigRej= -1.00D+00 NBFU=    52
 Precomputing XC quadrature grid using
 IXCGrd= 4 IRadAn=           5 IRanWt=          -1 IRanGd=           0 AccXCQ= 0.00D+00.
 Generated NRdTot=       0 NPtTot=           0 NUsed=           0 NTot=          32
 NSgBfM=    55    55    55    55    55 MxSgAt=     6 MxSgA2=     6.
 Leave Link  302 at Wed Oct  7 13:27:54 2020, MaxMem=  2684354560 cpu:               2.9 elap:               0.5
 (Enter /udrive/faculty/rpeverati/g16/g16/l303.exe)
 DipDrv:  MaxL=1.
 Leave Link  303 at Wed Oct  7 13:27:55 2020, MaxMem=  2684354560 cpu:               1.4 elap:               0.8
 (Enter /udrive/faculty/rpeverati/g16/g16/l401.exe)
 SCF N**3 symmetry information disabled.
 ExpMin= 1.43D-01 ExpMax= 2.52D+04 ExpMxC= 3.78D+03 IAcc=3 IRadAn=         5 AccDes= 0.00D+00
 Harris functional with IExCor= 1009 and IRadAn=       5 diagonalized for initial guess.
 HarFok:  IExCor= 1009 AccDes= 0.00D+00 IRadAn=         5 IDoV= 1 UseB2=F ITyADJ=14
 ICtDFT=  3500011 ScaDFX=  1.000000  1.000000  1.000000  1.000000
 FoFCou: FMM=F IPFlag=           0 FMFlag=      100000 FMFlg1=           0
         NFxFlg=           0 DoJE=T BraDBF=F KetDBF=T FulRan=T
         wScrn=  0.000000 ICntrl=       500 IOpCl=  0 I1Cent=   200000004 NGrid=           0
         NMat0=    1 NMatS0=      1 NMatT0=    0 NMatD0=    1 NMtDS0=    0 NMtDT0=    0
 Petite list used in FoFCou.
 Harris En= -599.381925676793    
 JPrj=0 DoOrth=F DoCkMO=F.
 Initial guess <Sx>= 0.0000 <Sy>= 0.0000 <Sz>= 0.5000 <S**2>= 0.7500 S= 0.5000
 Leave Link  401 at Wed Oct  7 13:27:56 2020, MaxMem=  2684354560 cpu:               5.3 elap:               0.9
 (Enter /udrive/faculty/rpeverati/g16/g16/l502.exe)
 Keep R1 and R2 ints in memory in canonical form, NReq=12417075.
 FoFCou: FMM=F IPFlag=           0 FMFlag=           0 FMFlg1=           0
         NFxFlg=           0 DoJE=F BraDBF=F KetDBF=F FulRan=T
         wScrn=  0.000000 ICntrl=       600 IOpCl=  0 I1Cent=           0 NGrid=           0
         NMat0=    1 NMatS0=   1378 NMatT0=    0 NMatD0=    1 NMtDS0=    0 NMtDT0=    0
 Symmetry not used in FoFCou.
 Two-electron integral symmetry not used.
 UHF open shell SCF:
 Using DIIS extrapolation, IDIIS=  1040.
 NGot=  2684354560 LenX=  2682446829 LenY=  2682443363
 Requested convergence on RMS density matrix=1.00D-08 within 120 cycles.
 Requested convergence on MAX density matrix=1.00D-06.
 Requested convergence on             energy=1.00D-06.
 No special actions if energy rises.
 Integral accuracy reduced to 1.0D-05 until final iterations.

 Cycle   1  Pass 0  IDiag  1:
 E= -599.580914523257    
 DIIS: error= 4.75D-02 at cycle   1 NSaved=   1.
 NSaved= 1 IEnMin= 1 EnMin= -599.580914523257     IErMin= 1 ErrMin= 4.75D-02
 ErrMax= 4.75D-02  0.00D+00 EMaxC= 1.00D-01 BMatC= 3.58D-01 BMatP= 3.58D-01
 IDIUse=3 WtCom= 5.25D-01 WtEn= 4.75D-01
 Coeff-Com:  0.100D+01
 Coeff-En:   0.100D+01
 Coeff:      0.100D+01
 Gap=     0.101 Goal=   None    Shift=    0.000
 Gap=     0.504 Goal=   None    Shift=    0.000
 GapD=    0.101 DampG=1.000 DampE=0.500 DampFc=0.5000 IDamp=-1.
 Damping current iteration by 5.00D-01
 RMSDP=1.25D-02 MaxDP=3.09D-01              OVMax= 4.58D-01

 Cycle   2  Pass 0  IDiag  1:
 E= -599.617026010164     Delta-E=       -0.036111486907 Rises=F Damp=T
 DIIS: error= 8.88D-03 at cycle   2 NSaved=   2.
 NSaved= 2 IEnMin= 2 EnMin= -599.617026010164     IErMin= 2 ErrMin= 8.88D-03
 ErrMax= 8.88D-03  0.00D+00 EMaxC= 1.00D-01 BMatC= 2.71D-02 BMatP= 3.58D-01
 IDIUse=3 WtCom= 9.11D-01 WtEn= 8.88D-02
 Coeff-Com:  0.701D-01 0.930D+00
 Coeff-En:   0.188D+00 0.812D+00
 Coeff:      0.806D-01 0.919D+00
 Gap=     0.179 Goal=   None    Shift=    0.000
 Gap=     0.409 Goal=   None    Shift=    0.000
 RMSDP=2.34D-03 MaxDP=4.00D-02 DE=-3.61D-02 OVMax= 3.07D-01

 Cycle   3  Pass 0  IDiag  1:
 E= -599.668687035698     Delta-E=       -0.051661025533 Rises=F Damp=F
 DIIS: error= 3.44D-03 at cycle   3 NSaved=   3.
 NSaved= 3 IEnMin= 3 EnMin= -599.668687035698     IErMin= 3 ErrMin= 3.44D-03
 ErrMax= 3.44D-03  0.00D+00 EMaxC= 1.00D-01 BMatC= 3.05D-03 BMatP= 2.71D-02
 IDIUse=3 WtCom= 9.66D-01 WtEn= 3.44D-02
 Coeff-Com: -0.586D-01 0.120D+00 0.939D+00
 Coeff-En:   0.000D+00 0.000D+00 0.100D+01
 Coeff:     -0.566D-01 0.115D+00 0.941D+00
 Gap=     0.215 Goal=   None    Shift=    0.000
 Gap=     0.279 Goal=   None    Shift=    0.000
 RMSDP=7.92D-04 MaxDP=2.36D-02 DE=-5.17D-02 OVMax= 3.22D-02

 Cycle   4  Pass 0  IDiag  1:
 E= -599.670029035312     Delta-E=       -0.001341999615 Rises=F Damp=F
 DIIS: error= 1.99D-03 at cycle   4 NSaved=   4.
 NSaved= 4 IEnMin= 4 EnMin= -599.670029035312     IErMin= 4 ErrMin= 1.99D-03
 ErrMax= 1.99D-03  0.00D+00 EMaxC= 1.00D-01 BMatC= 8.25D-04 BMatP= 3.05D-03
 IDIUse=3 WtCom= 9.80D-01 WtEn= 1.99D-02
 Coeff-Com: -0.234D-01 0.239D-01 0.385D+00 0.614D+00
 Coeff-En:   0.000D+00 0.000D+00 0.000D+00 0.100D+01
 Coeff:     -0.229D-01 0.234D-01 0.378D+00 0.622D+00
 Gap=     0.217 Goal=   None    Shift=    0.000
 Gap=     0.279 Goal=   None    Shift=    0.000
 RMSDP=2.71D-04 MaxDP=6.94D-03 DE=-1.34D-03 OVMax= 1.15D-02

 Cycle   5  Pass 0  IDiag  1:
 E= -599.670315214089     Delta-E=       -0.000286178777 Rises=F Damp=F
 DIIS: error= 1.17D-03 at cycle   5 NSaved=   5.
 NSaved= 5 IEnMin= 5 EnMin= -599.670315214089     IErMin= 5 ErrMin= 1.17D-03
 ErrMax= 1.17D-03  0.00D+00 EMaxC= 1.00D-01 BMatC= 1.83D-04 BMatP= 8.25D-04
 IDIUse=3 WtCom= 9.88D-01 WtEn= 1.17D-02
 Coeff-Com:  0.487D-02-0.154D-01-0.129D+00 0.166D+00 0.974D+00
 Coeff-En:   0.000D+00 0.000D+00 0.000D+00 0.000D+00 0.100D+01
 Coeff:      0.482D-02-0.152D-01-0.128D+00 0.164D+00 0.974D+00
 Gap=     0.221 Goal=   None    Shift=    0.000
 Gap=     0.280 Goal=   None    Shift=    0.000
 RMSDP=2.57D-04 MaxDP=7.39D-03 DE=-2.86D-04 OVMax= 1.20D-02

 Cycle   6  Pass 0  IDiag  1:
 E= -599.670474641002     Delta-E=       -0.000159426913 Rises=F Damp=F
 DIIS: error= 5.17D-04 at cycle   6 NSaved=   6.
 NSaved= 6 IEnMin= 6 EnMin= -599.670474641002     IErMin= 6 ErrMin= 5.17D-04
 ErrMax= 5.17D-04  0.00D+00 EMaxC= 1.00D-01 BMatC= 5.93D-05 BMatP= 1.83D-04
 IDIUse=3 WtCom= 9.95D-01 WtEn= 5.17D-03
 Coeff-Com:  0.706D-02-0.733D-02-0.172D+00-0.181D+00 0.262D+00 0.109D+01
 Coeff-En:   0.000D+00 0.000D+00 0.000D+00 0.000D+00 0.000D+00 0.100D+01
 Coeff:      0.703D-02-0.729D-02-0.171D+00-0.180D+00 0.261D+00 0.109D+01
 Gap=     0.223 Goal=   None    Shift=    0.000
 Gap=     0.281 Goal=   None    Shift=    0.000
 RMSDP=2.05D-04 MaxDP=5.40D-03 DE=-1.59D-04 OVMax= 7.99D-03

 Cycle   7  Pass 0  IDiag  1:
 E= -599.670531960722     Delta-E=       -0.000057319720 Rises=F Damp=F
 DIIS: error= 2.00D-04 at cycle   7 NSaved=   7.
 NSaved= 7 IEnMin= 7 EnMin= -599.670531960722     IErMin= 7 ErrMin= 2.00D-04
 ErrMax= 2.00D-04  0.00D+00 EMaxC= 1.00D-01 BMatC= 4.52D-06 BMatP= 5.93D-05
 IDIUse=3 WtCom= 9.98D-01 WtEn= 2.00D-03
 Coeff-Com: -0.321D-02 0.694D-02 0.654D-01 0.439D-01-0.231D+00-0.213D+00
 Coeff-Com:  0.133D+01
 Coeff-En:   0.000D+00 0.000D+00 0.000D+00 0.000D+00 0.000D+00 0.000D+00
 Coeff-En:   0.100D+01
 Coeff:     -0.321D-02 0.693D-02 0.653D-01 0.438D-01-0.231D+00-0.212D+00
 Coeff:      0.133D+01
 Gap=     0.223 Goal=   None    Shift=    0.000
 Gap=     0.281 Goal=   None    Shift=    0.000
 RMSDP=6.63D-05 MaxDP=1.84D-03 DE=-5.73D-05 OVMax= 2.61D-03

 Cycle   8  Pass 0  IDiag  1:
 E= -599.670537537812     Delta-E=       -0.000005577090 Rises=F Damp=F
 DIIS: error= 7.70D-05 at cycle   8 NSaved=   8.
 NSaved= 8 IEnMin= 8 EnMin= -599.670537537812     IErMin= 8 ErrMin= 7.70D-05
 ErrMax= 7.70D-05  0.00D+00 EMaxC= 1.00D-01 BMatC= 7.78D-07 BMatP= 4.52D-06
 IDIUse=1 WtCom= 1.00D+00 WtEn= 0.00D+00
 Coeff-Com:  0.152D-03-0.100D-02 0.135D-01 0.199D-01-0.515D-01-0.632D-01
 Coeff-Com:  0.974D-02 0.107D+01
 Coeff:      0.152D-03-0.100D-02 0.135D-01 0.199D-01-0.515D-01-0.632D-01
 Coeff:      0.974D-02 0.107D+01
 Gap=     0.223 Goal=   None    Shift=    0.000
 Gap=     0.281 Goal=   None    Shift=    0.000
 RMSDP=2.66D-05 MaxDP=7.78D-04 DE=-5.58D-06 OVMax= 9.59D-04

 Cycle   9  Pass 0  IDiag  1:
 E= -599.670538373556     Delta-E=       -0.000000835744 Rises=F Damp=F
 DIIS: error= 4.61D-05 at cycle   9 NSaved=   9.
 NSaved= 9 IEnMin= 9 EnMin= -599.670538373556     IErMin= 9 ErrMin= 4.61D-05
 ErrMax= 4.61D-05  0.00D+00 EMaxC= 1.00D-01 BMatC= 3.01D-07 BMatP= 7.78D-07
 IDIUse=1 WtCom= 1.00D+00 WtEn= 0.00D+00
 Coeff-Com:  0.110D-02-0.237D-02-0.104D-01-0.411D-02 0.249D-01 0.637D-01
 Coeff-Com: -0.289D+00-0.649D-02 0.122D+01
 Coeff:      0.110D-02-0.237D-02-0.104D-01-0.411D-02 0.249D-01 0.637D-01
 Coeff:     -0.289D+00-0.649D-02 0.122D+01
 Gap=     0.223 Goal=   None    Shift=    0.000
 Gap=     0.281 Goal=   None    Shift=    0.000
 RMSDP=1.70D-05 MaxDP=4.40D-04 DE=-8.36D-07 OVMax= 6.17D-04

 Cycle  10  Pass 0  IDiag  1:
 E= -599.670538612846     Delta-E=       -0.000000239290 Rises=F Damp=F
 DIIS: error= 2.10D-05 at cycle  10 NSaved=  10.
 NSaved=10 IEnMin=10 EnMin= -599.670538612846     IErMin=10 ErrMin= 2.10D-05
 ErrMax= 2.10D-05  0.00D+00 EMaxC= 1.00D-01 BMatC= 4.53D-08 BMatP= 3.01D-07
 IDIUse=1 WtCom= 1.00D+00 WtEn= 0.00D+00
 Coeff-Com:  0.646D-04-0.506D-04 0.170D-04-0.179D-02-0.832D-03 0.154D-01
 Coeff-Com:  0.214D-01-0.169D+00-0.140D+00 0.127D+01
 Coeff:      0.646D-04-0.506D-04 0.170D-04-0.179D-02-0.832D-03 0.154D-01
 Coeff:      0.214D-01-0.169D+00-0.140D+00 0.127D+01
 Gap=     0.223 Goal=   None    Shift=    0.000
 Gap=     0.281 Goal=   None    Shift=    0.000
 RMSDP=6.46D-06 MaxDP=1.20D-04 DE=-2.39D-07 OVMax= 2.44D-04

 Initial convergence to 1.0D-05 achieved.  Increase integral accuracy.
 Cycle  11  Pass 1  IDiag  1:
 E= -599.670408590448     Delta-E=        0.000130022398 Rises=F Damp=F
 DIIS: error= 1.44D-04 at cycle   1 NSaved=   1.
 NSaved= 1 IEnMin= 1 EnMin= -599.670408590448     IErMin= 1 ErrMin= 1.44D-04
 ErrMax= 1.44D-04  0.00D+00 EMaxC= 1.00D-01 BMatC= 1.97D-06 BMatP= 1.97D-06
 IDIUse=3 WtCom= 9.99D-01 WtEn= 1.44D-03
 Coeff-Com:  0.100D+01
 Coeff-En:   0.100D+01
 Coeff:      0.100D+01
 Gap=     0.223 Goal=   None    Shift=    0.000
 Gap=     0.281 Goal=   None    Shift=    0.000
 RMSDP=6.46D-06 MaxDP=1.20D-04 DE= 1.30D-04 OVMax= 3.88D-04

 Cycle  12  Pass 1  IDiag  1:
 E= -599.670409327178     Delta-E=       -0.000000736730 Rises=F Damp=F
 DIIS: error= 2.57D-05 at cycle   2 NSaved=   2.
 NSaved= 2 IEnMin= 2 EnMin= -599.670409327178     IErMin= 2 ErrMin= 2.57D-05
 ErrMax= 2.57D-05  0.00D+00 EMaxC= 1.00D-01 BMatC= 2.57D-07 BMatP= 1.97D-06
 IDIUse=1 WtCom= 1.00D+00 WtEn= 0.00D+00
 Coeff-Com:  0.176D+00 0.824D+00
 Coeff:      0.176D+00 0.824D+00
 Gap=     0.223 Goal=   None    Shift=    0.000
 Gap=     0.281 Goal=   None    Shift=    0.000
 RMSDP=1.25D-05 MaxDP=3.71D-04 DE=-7.37D-07 OVMax= 4.70D-04

 Cycle  13  Pass 1  IDiag  1:
 E= -599.670409429589     Delta-E=       -0.000000102412 Rises=F Damp=F
 DIIS: error= 2.17D-05 at cycle   3 NSaved=   3.
 NSaved= 3 IEnMin= 3 EnMin= -599.670409429589     IErMin= 3 ErrMin= 2.17D-05
 ErrMax= 2.17D-05  0.00D+00 EMaxC= 1.00D-01 BMatC= 1.25D-07 BMatP= 2.57D-07
 IDIUse=1 WtCom= 1.00D+00 WtEn= 0.00D+00
 Coeff-Com: -0.226D-01 0.373D+00 0.649D+00
 Coeff:     -0.226D-01 0.373D+00 0.649D+00
 Gap=     0.223 Goal=   None    Shift=    0.000
 Gap=     0.281 Goal=   None    Shift=    0.000
 RMSDP=3.92D-06 MaxDP=7.29D-05 DE=-1.02D-07 OVMax= 9.97D-05

 Cycle  14  Pass 1  IDiag  1:
 E= -599.670409466191     Delta-E=       -0.000000036601 Rises=F Damp=F
 DIIS: error= 9.09D-06 at cycle   4 NSaved=   4.
 NSaved= 4 IEnMin= 4 EnMin= -599.670409466191     IErMin= 4 ErrMin= 9.09D-06
 ErrMax= 9.09D-06  0.00D+00 EMaxC= 1.00D-01 BMatC= 1.56D-08 BMatP= 1.25D-07
 IDIUse=1 WtCom= 1.00D+00 WtEn= 0.00D+00
 Coeff-Com: -0.307D-01 0.947D-01 0.212D+00 0.724D+00
 Coeff:     -0.307D-01 0.947D-01 0.212D+00 0.724D+00
 Gap=     0.223 Goal=   None    Shift=    0.000
 Gap=     0.281 Goal=   None    Shift=    0.000
 RMSDP=2.27D-06 MaxDP=5.75D-05 DE=-3.66D-08 OVMax= 9.77D-05

 Cycle  15  Pass 1  IDiag  1:
 E= -599.670409474021     Delta-E=       -0.000000007830 Rises=F Damp=F
 DIIS: error= 4.34D-06 at cycle   5 NSaved=   5.
 NSaved= 5 IEnMin= 5 EnMin= -599.670409474021     IErMin= 5 ErrMin= 4.34D-06
 ErrMax= 4.34D-06  0.00D+00 EMaxC= 1.00D-01 BMatC= 4.94D-09 BMatP= 1.56D-08
 IDIUse=1 WtCom= 1.00D+00 WtEn= 0.00D+00
 Coeff-Com:  0.357D-02-0.408D-01-0.214D+00 0.125D+00 0.113D+01
 Coeff:      0.357D-02-0.408D-01-0.214D+00 0.125D+00 0.113D+01
 Gap=     0.223 Goal=   None    Shift=    0.000
 Gap=     0.281 Goal=   None    Shift=    0.000
 RMSDP=2.05D-06 MaxDP=4.29D-05 DE=-7.83D-09 OVMax= 9.06D-05

 Cycle  16  Pass 1  IDiag  1:
 E= -599.670409478188     Delta-E=       -0.000000004168 Rises=F Damp=F
 DIIS: error= 3.21D-06 at cycle   6 NSaved=   6.
 NSaved= 6 IEnMin= 6 EnMin= -599.670409478188     IErMin= 6 ErrMin= 3.21D-06
 ErrMax= 3.21D-06  0.00D+00 EMaxC= 1.00D-01 BMatC= 1.67D-09 BMatP= 4.94D-09
 IDIUse=1 WtCom= 1.00D+00 WtEn= 0.00D+00
 Coeff-Com:  0.897D-02-0.382D-01-0.181D+00-0.929D-01 0.618D+00 0.685D+00
 Coeff:      0.897D-02-0.382D-01-0.181D+00-0.929D-01 0.618D+00 0.685D+00
 Gap=     0.223 Goal=   None    Shift=    0.000
 Gap=     0.281 Goal=   None    Shift=    0.000
 RMSDP=7.98D-07 MaxDP=1.83D-05 DE=-4.17D-09 OVMax= 2.80D-05

 Cycle  17  Pass 1  IDiag  1:
 E= -599.670409479129     Delta-E=       -0.000000000940 Rises=F Damp=F
 DIIS: error= 7.10D-07 at cycle   7 NSaved=   7.
 NSaved= 7 IEnMin= 7 EnMin= -599.670409479129     IErMin= 7 ErrMin= 7.10D-07
 ErrMax= 7.10D-07  0.00D+00 EMaxC= 1.00D-01 BMatC= 1.26D-10 BMatP= 1.67D-09
 IDIUse=1 WtCom= 1.00D+00 WtEn= 0.00D+00
 Coeff-Com:  0.114D-02 0.739D-02 0.224D-01-0.479D-01-0.152D+00-0.418D-01
 Coeff-Com:  0.121D+01
 Coeff:      0.114D-02 0.739D-02 0.224D-01-0.479D-01-0.152D+00-0.418D-01
 Coeff:      0.121D+01
 Gap=     0.223 Goal=   None    Shift=    0.000
 Gap=     0.281 Goal=   None    Shift=    0.000
 RMSDP=5.59D-07 MaxDP=1.45D-05 DE=-9.40D-10 OVMax= 2.29D-05

 Cycle  18  Pass 1  IDiag  1:
 E= -599.670409479365     Delta-E=       -0.000000000236 Rises=F Damp=F
 DIIS: error= 4.34D-07 at cycle   8 NSaved=   8.
 NSaved= 8 IEnMin= 8 EnMin= -599.670409479365     IErMin= 8 ErrMin= 4.34D-07
 ErrMax= 4.34D-07  0.00D+00 EMaxC= 1.00D-01 BMatC= 2.99D-11 BMatP= 1.26D-10
 IDIUse=1 WtCom= 1.00D+00 WtEn= 0.00D+00
 Coeff-Com: -0.162D-02 0.755D-02 0.316D-01 0.204D-01-0.102D+00-0.178D+00
 Coeff-Com:  0.435D-01 0.118D+01
 Coeff:     -0.162D-02 0.755D-02 0.316D-01 0.204D-01-0.102D+00-0.178D+00
 Coeff:      0.435D-01 0.118D+01
 Gap=     0.223 Goal=   None    Shift=    0.000
 Gap=     0.281 Goal=   None    Shift=    0.000
 RMSDP=2.09D-07 MaxDP=5.42D-06 DE=-2.36D-10 OVMax= 7.45D-06

 Cycle  19  Pass 1  IDiag  1:
 E= -599.670409479405     Delta-E=       -0.000000000040 Rises=F Damp=F
 DIIS: error= 1.45D-07 at cycle   9 NSaved=   9.
 NSaved= 9 IEnMin= 9 EnMin= -599.670409479405     IErMin= 9 ErrMin= 1.45D-07
 ErrMax= 1.45D-07  0.00D+00 EMaxC= 1.00D-01 BMatC= 3.78D-12 BMatP= 2.99D-11
 IDIUse=1 WtCom= 1.00D+00 WtEn= 0.00D+00
 Coeff-Com:  0.176D-03-0.244D-02-0.987D-02 0.453D-02 0.405D-01 0.646D-01
 Coeff-Com: -0.228D+00-0.233D+00 0.136D+01
 Coeff:      0.176D-03-0.244D-02-0.987D-02 0.453D-02 0.405D-01 0.646D-01
 Coeff:     -0.228D+00-0.233D+00 0.136D+01
 Gap=     0.223 Goal=   None    Shift=    0.000
 Gap=     0.281 Goal=   None    Shift=    0.000
 RMSDP=7.09D-08 MaxDP=2.03D-06 DE=-4.04D-11 OVMax= 2.73D-06

 Cycle  20  Pass 1  IDiag  1:
 E= -599.670409479412     Delta-E=       -0.000000000007 Rises=F Damp=F
 DIIS: error= 6.05D-08 at cycle  10 NSaved=  10.
 NSaved=10 IEnMin=10 EnMin= -599.670409479412     IErMin=10 ErrMin= 6.05D-08
 ErrMax= 6.05D-08  0.00D+00 EMaxC= 1.00D-01 BMatC= 4.85D-13 BMatP= 3.78D-12
 IDIUse=1 WtCom= 1.00D+00 WtEn= 0.00D+00
 Coeff-Com:  0.197D-03-0.127D-02-0.497D-02-0.131D-02 0.134D-01 0.362D-01
 Coeff-Com: -0.420D-01-0.154D+00 0.164D+00 0.989D+00
 Coeff:      0.197D-03-0.127D-02-0.497D-02-0.131D-02 0.134D-01 0.362D-01
 Coeff:     -0.420D-01-0.154D+00 0.164D+00 0.989D+00
 Gap=     0.223 Goal=   None    Shift=    0.000
 Gap=     0.281 Goal=   None    Shift=    0.000
 RMSDP=1.72D-08 MaxDP=4.09D-07 DE=-6.82D-12 OVMax= 6.73D-07

 Cycle  21  Pass 1  IDiag  1:
 E= -599.670409479411     Delta-E=        0.000000000000 Rises=F Damp=F
 DIIS: error= 1.99D-08 at cycle  11 NSaved=  11.
 NSaved=11 IEnMin=10 EnMin= -599.670409479412     IErMin=11 ErrMin= 1.99D-08
 ErrMax= 1.99D-08  0.00D+00 EMaxC= 1.00D-01 BMatC= 4.52D-14 BMatP= 4.85D-13
 IDIUse=1 WtCom= 1.00D+00 WtEn= 0.00D+00
 Coeff-Com: -0.498D-04 0.437D-03 0.203D-02-0.345D-03-0.690D-02-0.119D-01
 Coeff-Com:  0.313D-01 0.586D-01-0.209D+00-0.131D+00 0.127D+01
 Coeff:     -0.498D-04 0.437D-03 0.203D-02-0.345D-03-0.690D-02-0.119D-01
 Coeff:      0.313D-01 0.586D-01-0.209D+00-0.131D+00 0.127D+01
 Gap=     0.223 Goal=   None    Shift=    0.000
 Gap=     0.281 Goal=   None    Shift=    0.000
 RMSDP=6.29D-09 MaxDP=1.04D-07 DE= 2.27D-13 OVMax= 1.90D-07

 SCF Done:  E(UM062X) =  -599.670409479     A.U. after   21 cycles
            NFock= 21  Conv=0.63D-08     -V/T= 2.0022
 <Sx>= 0.0000 <Sy>= 0.0000 <Sz>= 0.5000 <S**2>= 0.7723 S= 0.5111
 <L.S>= 0.000000000000E+00
 KE= 5.983621548315D+02 PE=-1.616521465790D+03 EE= 3.228889836973D+02
 Annihilation of the first spin contaminant:
 S**2 before annihilation     0.7723,   after     0.7501
 Leave Link  502 at Wed Oct  7 13:28:05 2020, MaxMem=  2684354560 cpu:              99.3 elap:               8.8
 (Enter /udrive/faculty/rpeverati/g16/g16/l508.exe)
 QCSCF skips out because SCF is already converged.
 Leave Link  508 at Wed Oct  7 13:28:06 2020, MaxMem=  2684354560 cpu:               0.6 elap:               0.5
 (Enter /udrive/faculty/rpeverati/g16/g16/l601.exe)
 Copying SCF densities to generalized density rwf, IOpCl= 1 IROHF=0.

 **********************************************************************

            Population analysis using the SCF density.

 **********************************************************************

 Orbital symmetries:
 Alpha Orbitals:
       Occupied  (A) (A) (A) (A) (A) (A) (A) (A) (A) (A) (A) (A)
                 (A) (A) (A) (A) (A) (A)
       Virtual   (A) (A) (A) (A) (A) (A) (A) (A) (A) (A) (A) (A)
                 (A) (A) (A) (A) (A) (A) (A) (A) (A) (A) (A) (A)
                 (A) (A) (A) (A) (A) (A) (A) (A) (A) (A)
 Beta  Orbitals:
       Occupied  (A) (A) (A) (A) (A) (A) (A) (A) (A) (A) (A) (A)
                 (A) (A) (A) (A) (A)
       Virtual   (A) (A) (A) (A) (A) (A) (A) (A) (A) (A) (A) (A)
                 (A) (A) (A) (A) (A) (A) (A) (A) (A) (A) (A) (A)
                 (A) (A) (A) (A) (A) (A) (A) (A) (A) (A) (A)
 The electronic state is 2-A.
 Alpha  occ. eigenvalues -- -102.67157 -25.26492 -10.59534  -9.82902  -7.55794
 Alpha  occ. eigenvalues --   -7.54259  -7.54259  -1.30643  -0.89897  -0.80641
 Alpha  occ. eigenvalues --   -0.55008  -0.53382  -0.53380  -0.50235  -0.50232
 Alpha  occ. eigenvalues --   -0.36839  -0.36839  -0.27529
 Alpha virt. eigenvalues --   -0.05191   0.14817   0.20673   0.20675   0.41126
 Alpha virt. eigenvalues --    0.46873   0.50303   0.50304   0.56620   0.56626
 Alpha virt. eigenvalues --    0.57670   0.79080   0.86132   0.86133   0.93702
 Alpha virt. eigenvalues --    0.93704   0.94930   0.94934   0.97170   1.04511
 Alpha virt. eigenvalues --    1.34974   1.34977   1.67279   1.67281   1.71021
 Alpha virt. eigenvalues --    1.82350   1.92438   1.92443   1.98508   1.98512
 Alpha virt. eigenvalues --    2.18718   2.24023   2.24039   2.43888
  Beta  occ. eigenvalues -- -102.66724 -25.26522 -10.59050  -9.82760  -7.54645
  Beta  occ. eigenvalues --   -7.54122  -7.54122  -1.30508  -0.88193  -0.77144
  Beta  occ. eigenvalues --   -0.54394  -0.52954  -0.52953  -0.49725  -0.49721
  Beta  occ. eigenvalues --   -0.36042  -0.36042
  Beta virt. eigenvalues --   -0.07966   0.02802   0.15703   0.21605   0.21606
  Beta virt. eigenvalues --    0.41699   0.47747   0.50514   0.50515   0.57132
  Beta virt. eigenvalues --    0.57138   0.62107   0.82089   0.88108   0.88108
  Beta virt. eigenvalues --    0.94663   0.94665   0.97707   0.97712   0.98940
  Beta virt. eigenvalues --    1.08005   1.35642   1.35645   1.72574   1.72578
  Beta virt. eigenvalues --    1.73614   1.82202   1.92313   1.92317   1.98695
  Beta virt. eigenvalues --    1.98698   2.23740   2.29489   2.29505   2.47118
          Condensed to atoms (all electrons):
               1          2          3          4          5          6
     1  Cl  16.880440   0.001880   0.016325  -0.000075  -0.000076  -0.000078
     2  F    0.001880   9.307260   0.011178  -0.003023  -0.003014  -0.002997
     3  C    0.016325   0.011178   5.252781   0.377529   0.377525   0.377508
     4  H   -0.000075  -0.003023   0.377529   0.467875  -0.024911  -0.024901
     5  H   -0.000076  -0.003014   0.377525  -0.024911   0.467875  -0.024915
     6  H   -0.000078  -0.002997   0.377508  -0.024901  -0.024915   0.467860
          Atomic-Atomic Spin Densities.
               1          2          3          4          5          6
     1  Cl   0.440492  -0.079786   0.017697  -0.000196  -0.000197  -0.000197
     2  F   -0.079786   0.003209  -0.023708   0.000415   0.000414   0.000411
     3  C    0.017697  -0.023708   0.879650  -0.009741  -0.009749  -0.009759
     4  H   -0.000196   0.000415  -0.009741  -0.035460   0.001958   0.001959
     5  H   -0.000197   0.000414  -0.009749   0.001958  -0.035439   0.001961
     6  H   -0.000197   0.000411  -0.009759   0.001959   0.001961  -0.035417
 Mulliken charges and spin densities:
               1          2
     1  Cl   0.101583   0.377813
     2  F   -0.311284  -0.099044
     3  C   -0.412845   0.844389
     4  H    0.207506  -0.041065
     5  H    0.207516  -0.041051
     6  H    0.207523  -0.041042
 Sum of Mulliken charges =  -0.00000   1.00000
 Mulliken charges and spin densities with hydrogens summed into heavy atoms:
               1          2
     1  Cl   0.101583   0.377813
     2  F   -0.311284  -0.099044
     3  C    0.209700   0.721231
 Electronic spatial extent (au):  <R**2>=            382.5420
 Charge=             -0.0000 electrons
 Dipole moment (field-independent basis, Debye):
    X=             -2.4155    Y=             -0.0064    Z=             -0.0000  Tot=              2.4155
 Quadrupole moment (field-independent basis, Debye-Ang):
   XX=            -18.0655   YY=            -24.1998   ZZ=            -24.2006
   XY=             -0.0018   XZ=              0.0001   YZ=             -0.0001
 Traceless Quadrupole moment (field-independent basis, Debye-Ang):
   XX=              4.0898   YY=             -2.0445   ZZ=             -2.0453
   XY=             -0.0018   XZ=              0.0001   YZ=             -0.0001
 Octapole moment (field-independent basis, Debye-Ang**2):
  XXX=             -3.2896  YYY=              0.3721  ZZZ=              0.8920  XYY=             -1.8414
  XXY=              0.0016  XXZ=             -0.0013  XZZ=             -1.8368  YZZ=             -0.3384
  YYZ=             -0.8908  XYZ=              0.0033
 Hexadecapole moment (field-independent basis, Debye-Ang**3):
 XXXX=           -401.8328 YYYY=            -29.5236 ZZZZ=            -29.5191 XXXY=             -0.1420
 XXXZ=              0.0024 YYYX=             -0.8870 YYYZ=              0.0072 ZZZX=             -2.2572
 ZZZY=             -0.0026 XXYY=            -74.2985 XXZZ=            -74.3169 YYZZ=             -9.8380
 XXYZ=             -0.0161 YYXZ=              2.2568 ZZXY=              0.8755
 N-N= 9.559991778228D+01 E-N=-1.616521465839D+03  KE= 5.983621548315D+02
                          Isotropic Fermi Contact Couplings
        Atom                 a.u.       MegaHertz       Gauss      10(-4) cm-1
     1  Cl(35)             0.10673      46.79897      16.69904      15.61046
     2  F(19)              0.52004    2188.02245     780.74082     729.84573
     3  C(13)              0.13382     150.43721      53.67974      50.18045
     4  H(1)              -0.01248     -55.79098     -19.90761     -18.60987
     5  H(1)              -0.01247     -55.76135     -19.89704     -18.59998
     6  H(1)              -0.01247     -55.72967     -19.88573     -18.58942
 --------------------------------------------------------
       Center         ----  Spin Dipole Couplings  ----
                      3XX-RR        3YY-RR        3ZZ-RR
 --------------------------------------------------------
     1   Atom        2.278076     -1.139044     -1.139033
     2   Atom       -0.643025      0.321549      0.321476
     3   Atom        0.770601     -0.385297     -0.385303
     4   Atom       -0.005714      0.018339     -0.012625
     5   Atom       -0.005679     -0.052050      0.057729
     6   Atom       -0.005609      0.042241     -0.036632
 --------------------------------------------------------
                        XY            XZ            YZ
 --------------------------------------------------------
     1   Atom       -0.004268     -0.000007      0.000000
     2   Atom       -0.007139     -0.000294      0.000000
     3   Atom        0.003751     -0.000245      0.000005
     4   Atom        0.007441      0.005490      0.054482
     5   Atom        0.001316     -0.009268     -0.013911
     6   Atom       -0.008814      0.003784     -0.040594
 --------------------------------------------------------


 ---------------------------------------------------------------------------------
              Anisotropic Spin Dipole Couplings in Principal Axis System
 ---------------------------------------------------------------------------------

       Atom             a.u.   MegaHertz   Gauss  10(-4) cm-1        Axes

              Baa    -1.1390   -59.615   -21.272   -19.885  0.0012  0.9997 -0.0242
     1 Cl(35) Bbb    -1.1390   -59.614   -21.272   -19.885  0.0000  0.0242  0.9997
              Bcc     2.2781   119.229    42.544    39.771  1.0000 -0.0012 -0.0000
 
              Baa    -0.6431  -322.970  -115.244  -107.731  1.0000  0.0074  0.0003
     2 F(19)  Bbb     0.3215   161.454    57.611    53.855 -0.0001 -0.0212  0.9998
              Bcc     0.3216   161.516    57.633    53.876 -0.0074  0.9997  0.0212
 
              Baa    -0.3853   -51.705   -18.450   -17.247 -0.0029  0.8644 -0.5028
     3 C(13)  Bbb    -0.3853   -51.704   -18.449   -17.246 -0.0014  0.5028  0.8644
              Bcc     0.7706   103.409    36.899    34.493  1.0000  0.0032 -0.0002
 
              Baa    -0.0538   -28.696   -10.239    -9.572  0.0022 -0.6029  0.7978
     4 H(1)   Bbb    -0.0070    -3.735    -1.333    -1.246  0.9905 -0.1086 -0.0848
              Bcc     0.0608    32.430    11.572    10.818  0.1377  0.7904  0.5969
 
              Baa    -0.0538   -28.698   -10.240    -9.573 -0.0033  0.9923  0.1235
     5 H(1)   Bbb    -0.0070    -3.733    -1.332    -1.245  0.9902 -0.0139  0.1388
              Bcc     0.0608    32.431    11.572    10.818 -0.1395 -0.1228  0.9826
 
              Baa    -0.0538   -28.701   -10.241    -9.573 -0.0011  0.3893  0.9211
     6 H(1)   Bbb    -0.0070    -3.732    -1.332    -1.245  0.9897  0.1321 -0.0546
              Bcc     0.0608    32.433    11.573    10.818 -0.1430  0.9116 -0.3854
 

 ---------------------------------------------------------------------------------

 No NMR shielding tensors so no spin-rotation constants.
 Leave Link  601 at Wed Oct  7 13:28:07 2020, MaxMem=  2684354560 cpu:               5.3 elap:               0.7
 (Enter /udrive/faculty/rpeverati/g16/g16/l701.exe)
 ... and contract with generalized density number  0.
 Compute integral first derivatives.
 Leave Link  701 at Wed Oct  7 13:28:08 2020, MaxMem=  2684354560 cpu:               3.0 elap:               0.5
 (Enter /udrive/faculty/rpeverati/g16/g16/l702.exe)
 L702 exits ... SP integral derivatives will be done elsewhere.
 Leave Link  702 at Wed Oct  7 13:28:08 2020, MaxMem=  2684354560 cpu:               1.1 elap:               0.4
 (Enter /udrive/faculty/rpeverati/g16/g16/l703.exe)
 Integral derivatives from FoFJK, PRISM(SPDF).
 Compute integral first derivatives, UseDBF=F ICtDFT=           0.
 Calling FoFJK, ICntrl=      2127 FMM=F ISym2X=0 I1Cent= 0 IOpClX= 1 NMat=1 NMatS=1 NMatT=0.
 FoFJK:  IHMeth= 1 ICntrl=    2127 DoSepK=F KAlg= 0 I1Cent=           0 FoldK=F
 IRaf=         0 NMat=       1 IRICut=       1 DoRegI=T DoRafI=F ISym2E= 0 IDoP0=0 IntGTp=1.
 FoFCou: FMM=F IPFlag=           0 FMFlag=      100000 FMFlg1=         800
         NFxFlg=           0 DoJE=F BraDBF=F KetDBF=F FulRan=T
         wScrn=  0.000000 ICntrl=      2127 IOpCl=  1 I1Cent=           0 NGrid=           0
         NMat0=    1 NMatS0=      1 NMatT0=    0 NMatD0=    1 NMtDS0=    0 NMtDT0=    0
 Symmetry not used in FoFCou.
 Leave Link  703 at Wed Oct  7 13:28:10 2020, MaxMem=  2684354560 cpu:              10.0 elap:               1.2
 (Enter /udrive/faculty/rpeverati/g16/g16/l716.exe)
 Dipole        =-9.50343253D-01-2.51260406D-03-1.74898946D-05
 ***** Axes restored to original set *****
 -------------------------------------------------------------------
 Center     Atomic                   Forces (Hartrees/Bohr)
 Number     Number              X              Y              Z
 -------------------------------------------------------------------
      1       17           0.002747230    0.000035344    0.000001273
      2        9          -0.007586936   -0.000089929   -0.000005546
      3        6           0.006394609    0.000005356    0.000008008
      4        1          -0.000509166   -0.001221268   -0.000952959
      5        1          -0.000521913   -0.000195192    0.001570758
      6        1          -0.000523823    0.001465690   -0.000621534
 -------------------------------------------------------------------
 Cartesian Forces:  Max     0.007586936 RMS     0.002519424
 Leave Link  716 at Wed Oct  7 13:28:10 2020, MaxMem=  2684354560 cpu:               1.5 elap:               0.3
 (Enter /udrive/faculty/rpeverati/g16/g16/l103.exe)

 GradGradGradGradGradGradGradGradGradGradGradGradGradGradGradGradGradGrad
 Berny optimization.
 Optmz: redundant internal coordinate code flag= 1
 FormGI is forming the generalized inverse of G from B-inverse, IUseBI=4.
 Internal  Forces:  Max     0.004839666 RMS     0.001672785
 Search for a saddle point.
 Step number   1 out of a maximum of   50
 All quantities printed in internal units (Hartrees-Bohrs-Radians)
 Swapping is turned off.
 Second derivative matrix not updated -- first step.
 The second derivative matrix:
                          R1        R2        R3        R4        R5
           R1           0.27899
           R2           0.00000   0.07773
           R3           0.00000   0.00000   0.36287
           R4           0.00000   0.00000   0.00000   0.36291
           R5           0.00000   0.00000   0.00000   0.00000   0.36292
           A1           0.00000   0.00000   0.00000   0.00000   0.00000
           A2           0.00000   0.00000   0.00000   0.00000   0.00000
           A3           0.00000   0.00000   0.00000   0.00000   0.00000
           A4           0.00000   0.00000   0.00000   0.00000   0.00000
           A5           0.00000   0.00000   0.00000   0.00000   0.00000
           A6           0.00000   0.00000   0.00000   0.00000   0.00000
           A7           0.00000   0.00000   0.00000   0.00000   0.00000
           A8           0.00000   0.00000   0.00000   0.00000   0.00000
           D1           0.00000   0.00000   0.00000   0.00000   0.00000
                          A1        A2        A3        A4        A5
           A1           0.16000
           A2           0.00000   0.16000
           A3           0.00000   0.00000   0.16000
           A4           0.00000   0.00000   0.00000   0.16000
           A5           0.00000   0.00000   0.00000   0.00000   0.16000
           A6           0.00000   0.00000   0.00000   0.00000   0.00000
           A7           0.00000   0.00000   0.00000   0.00000   0.00000
           A8           0.00000   0.00000   0.00000   0.00000   0.00000
           D1           0.00000   0.00000   0.00000   0.00000   0.00000
                          A6        A7        A8        D1
           A6           0.16000
           A7           0.00000   0.00230
           A8           0.00000   0.00000   0.00230
           D1           0.00000   0.00000   0.00000   0.00400
 ITU=  0
 Eigenvectors of the second derivative matrix:
                           1         2         3         4         5
     Eigenvalues --     0.00230   0.00230   0.03993   0.07773   0.16000
   1         R1         0.00000   0.00000   0.00000  -0.00000  -0.00000
   2         R2        -0.00000  -0.00000  -0.00000   1.00000  -0.00000
   3         R3        -0.00000  -0.00000  -0.00000  -0.00000  -0.00000
   4         R4        -0.00000  -0.00000   0.00000  -0.00000   0.00000
   5         R5         0.00000   0.00000  -0.00000   0.00000  -0.00000
   6         A1         0.00000  -0.00000  -0.26045  -0.00000  -0.74867
   7         A2        -0.00000  -0.00000  -0.26041  -0.00000   0.08508
   8         A3        -0.00000   0.00000  -0.26048   0.00000   0.65171
   9         A4        -0.00000   0.00000   0.12675   0.00000  -0.06323
  10         A5         0.00000  -0.00000   0.07331   0.00000   0.05877
  11         A6        -0.00000  -0.00000   0.07337  -0.00000   0.00858
  12         A7         0.13993  -0.99016  -0.00000   0.00000   0.00000
  13         A8        -0.99016  -0.13993   0.00000  -0.00000  -0.00000
  14         D1         0.00000   0.00000   0.87731   0.00000   0.00000
                           6         7         8         9        10
     Eigenvalues --     0.16000   0.16000   0.16000   0.27899   0.36287
   1         R1        -0.00000  -0.00000  -0.00000   1.00000   0.00000
   2         R2         0.00000   0.00000   0.00000   0.00000  -0.00000
   3         R3         0.00000   0.00000   0.00000  -0.00000   1.00000
   4         R4         0.00000  -0.00000  -0.00000  -0.00000   0.00000
   5         R5         0.00000  -0.00000  -0.00000   0.00000  -0.00000
   6         A1        -0.00380  -0.05768   0.32444  -0.00000  -0.00000
   7         A2        -0.05747   0.12173  -0.80241   0.00000   0.00000
   8         A3        -0.04188   0.04144   0.49075   0.00000  -0.00000
   9         A4        -0.55313   0.56441   0.06943  -0.00000   0.00000
  10         A5        -0.21305  -0.79094  -0.07230  -0.00000   0.00000
  11         A6         0.80224   0.18971  -0.00166   0.00000  -0.00000
  12         A7        -0.00000   0.00000   0.00000   0.00000  -0.00000
  13         A8        -0.00000  -0.00000  -0.00000   0.00000  -0.00000
  14         D1        -0.00000  -0.00000   0.00000  -0.00000   0.00000
                          11        12
     Eigenvalues --     0.36291   0.36292
   1         R1         0.00000  -0.00000
   2         R2         0.00000  -0.00000
   3         R3        -0.00000   0.00000
   4         R4         1.00000  -0.00000
   5         R5         0.00000   1.00000
   6         A1         0.00000  -0.00000
   7         A2        -0.00000  -0.00000
   8         A3        -0.00000   0.00000
   9         A4         0.00000  -0.00000
  10         A5        -0.00000  -0.00000
  11         A6        -0.00000   0.00000
  12         A7        -0.00000   0.00000
  13         A8        -0.00000   0.00000
  14         D1        -0.00000   0.00000
 Eigenvalue     1 is   2.30D-03 should be less than     0.000000 Eigenvector:
                          A8        A7        A3        D1        R2
   1                   -0.99016   0.13993  -0.00000   0.00000  -0.00000
                          A1        A5        A2        A6        R3
   1                    0.00000   0.00000  -0.00000  -0.00000  -0.00000
 RLam0= 2.30D-03.
 Iter=   1 RLamda= 0.00000000D+00 Sum=-3.58133051D-04.
 Iter=   2 RLamda=-3.58133051D-04 Sum=-3.56619797D-04.
 Iter=   3 RLamda=-3.56619797D-04 Sum=-3.56626159D-04.
 RFO step:  Lambda0=2.302030909D-03 Lambda=-3.56619797D-04.
 Linear search not attempted -- option 19 set.
 Iteration  1 RMS(Cart)=  0.02147040 RMS(Int)=  0.00046766
 Iteration  2 RMS(Cart)=  0.00056942 RMS(Int)=  0.00001100
 Iteration  3 RMS(Cart)=  0.00000067 RMS(Int)=  0.00001099
 ITry= 1 IFail=0 DXMaxC= 3.91D-02 DCOld= 1.00D+10 DXMaxT= 1.00D-01 DXLimC= 3.00D+00 Rises=F
 Variable       Old X    -DE/DX   Delta X   Delta X   Delta X     New X
                                 (Linear)    (Quad)   (Total)
    R1        3.36059   0.00275   0.00000   0.00983   0.00983   3.37042
    R2        3.90010  -0.00484   0.00000  -0.06198  -0.06198   3.83812
    R3        2.03635   0.00159   0.00000   0.00438   0.00438   2.04073
    R4        2.03629   0.00163   0.00000   0.00448   0.00448   2.04077
    R5        2.03627   0.00164   0.00000   0.00451   0.00451   2.04078
    A1        1.67355   0.00015   0.00000   0.00365   0.00365   1.67720
    A2        1.67328   0.00016   0.00000   0.00374   0.00374   1.67703
    A3        1.67391   0.00015   0.00000   0.00364   0.00364   1.67755
    A4        2.07607   0.00003   0.00000  -0.00113  -0.00115   2.07492
    A5        2.07645  -0.00010   0.00000  -0.00142  -0.00144   2.07501
    A6        2.07624  -0.00009   0.00000  -0.00131  -0.00133   2.07491
    A7        3.14090   0.00002   0.00000  -0.00582  -0.00582   3.13508
    A8        3.15639  -0.00007   0.00000   0.06466   0.06466   3.22106
    D1        2.78980  -0.00049   0.00000  -0.01225  -0.01224   2.77757
         Item               Value     Threshold  Converged?
 Maximum Force            0.004840     0.000450     NO 
 RMS     Force            0.001673     0.000300     NO 
 Maximum Displacement     0.039074     0.001800     NO 
 RMS     Displacement     0.021742     0.001200     NO 
 Predicted change in Energy=-1.697765D-04
 Lowest energy point so far.  Saving SCF results.
 Largest change from initial coordinates is atom    2       0.002 Angstoms.
 GradGradGradGradGradGradGradGradGradGradGradGradGradGradGradGradGradGrad

 Leave Link  103 at Wed Oct  7 13:28:11 2020, MaxMem=  2684354560 cpu:               2.5 elap:               0.5
 (Enter /udrive/faculty/rpeverati/g16/g16/l202.exe)
                          Input orientation:                          
 ---------------------------------------------------------------------
 Center     Atomic      Atomic             Coordinates (Angstroms)
 Number     Number       Type             X           Y           Z
 ---------------------------------------------------------------------
      1         17           0        1.438812   -0.016597    0.000355
      2          9           0       -0.344264    0.024551   -0.000421
      3          6           0       -2.375130   -0.002458   -0.000033
      4          1           0       -2.478571   -0.858208   -0.650570
      5          1           0       -2.487607   -0.140309    1.065141
      6          1           0       -2.503435    0.986502   -0.414463
 ---------------------------------------------------------------------
                    Distance matrix (angstroms):
                    1          2          3          4          5
     1  Cl   0.000000
     2  F    1.783551   0.000000
     3  C    3.813968   2.031045   0.000000
     4  H    4.059298   2.399421   1.079910   0.000000
     5  H    4.070115   2.399275   1.079930   1.859872   0.000000
     6  H    4.088960   2.399750   1.079933   1.859924   1.859886
                    6
     6  H    0.000000
 Stoichiometry    CH3ClF(2)
 Framework group  C1[X(CH3ClF)]
 Deg. of freedom    12
 Full point group                 C1      NOp   1
 RotChk:  IX=0 Diff= 2.93D-02
 Largest Abelian subgroup         C1      NOp   1
 Largest concise Abelian subgroup C1      NOp   1
                         Standard orientation:                         
 ---------------------------------------------------------------------
 Center     Atomic      Atomic             Coordinates (Angstroms)
 Number     Number       Type             X           Y           Z
 ---------------------------------------------------------------------
      1         17           0        1.449121   -0.006730    0.000001
      2          9           0       -0.334141    0.025372   -0.000022
      3          6           0       -2.364843   -0.011949    0.000005
      4          1           0       -2.464021   -0.857368   -0.664553
      5          1           0       -2.476486   -0.167918    1.062765
      6          1           0       -2.498219    0.983046   -0.398053
 ---------------------------------------------------------------------
 Rotational constants (GHZ):         144.3245204           3.1203619           3.1200628
 Leave Link  202 at Wed Oct  7 13:28:11 2020, MaxMem=  2684354560 cpu:               0.9 elap:               0.4
 (Enter /udrive/faculty/rpeverati/g16/g16/l301.exe)
 Standard basis: 6-31G(d) (5D, 7F)
 Ernie: Thresh=  0.10000D-02 Tol=  0.10000D-05 Strict=F.
 There are    55 symmetry adapted cartesian basis functions of A   symmetry.
 There are    52 symmetry adapted basis functions of A   symmetry.
    52 basis functions,   120 primitive gaussians,    55 cartesian basis functions
    18 alpha electrons       17 beta electrons
       nuclear repulsion energy        95.8713053072 Hartrees.
 IExCor= 4336 DFT=T Ex+Corr=M062X ExCW=0 ScaHFX=  0.540000
 ScaDFX=  1.000000  1.000000  1.000000  1.000000 ScalE2=  1.000000  1.000000
 IRadAn=      5 IRanWt=     -1 IRanGd=            0 ICorTp=0 IEmpDi=  4
 NAtoms=    6 NActive=    6 NUniq=    6 SFac= 1.00D+00 NAtFMM=   60 NAOKFM=F Big=F
 Integral buffers will be    131072 words long.
 Raffenetti 2 integral format.
 Two-electron integral symmetry is turned on.
 Leave Link  301 at Wed Oct  7 13:28:12 2020, MaxMem=  2684354560 cpu:               1.7 elap:               0.4
 (Enter /udrive/faculty/rpeverati/g16/g16/l302.exe)
 NPDir=0 NMtPBC=     1 NCelOv=     1 NCel=       1 NClECP=     1 NCelD=      1
         NCelK=      1 NCelE2=     1 NClLst=     1 CellRange=     0.0.
 One-electron integrals computed using PRISM.
 One-electron integral symmetry used in STVInt
 NBasis=    52 RedAO= T EigKep=  2.45D-02  NBF=    52
 NBsUse=    52 1.00D-06 EigRej= -1.00D+00 NBFU=    52
 Precomputing XC quadrature grid using
 IXCGrd= 4 IRadAn=           5 IRanWt=          -1 IRanGd=           0 AccXCQ= 0.00D+00.
 Generated NRdTot=       0 NPtTot=           0 NUsed=           0 NTot=          32
 NSgBfM=    55    55    55    55    55 MxSgAt=     6 MxSgA2=     6.
 Leave Link  302 at Wed Oct  7 13:28:13 2020, MaxMem=  2684354560 cpu:               3.2 elap:               0.6
 (Enter /udrive/faculty/rpeverati/g16/g16/l303.exe)
 DipDrv:  MaxL=1.
 Leave Link  303 at Wed Oct  7 13:28:14 2020, MaxMem=  2684354560 cpu:               1.8 elap:               0.5
 (Enter /udrive/faculty/rpeverati/g16/g16/l401.exe)
 Initial guess from the checkpoint file:  "MN_21_ch3fclts_BH76_M062X_631Gs.chk"
 SCF N**3 symmetry information disabled.
 B after Tr=    -0.000000   -0.000000   -0.000000
         Rot=    0.999950   -0.010025   -0.000005   -0.000313 Ang=  -1.15 deg.
 Guess basis will be translated and rotated to current coordinates.
 JPrj=2 DoOrth=T DoCkMO=T.
 Initial guess <Sx>= 0.0000 <Sy>= 0.0000 <Sz>= 0.5000 <S**2>= 0.7722 S= 0.5110
 Generating alternative initial guess.
 ExpMin= 1.43D-01 ExpMax= 2.52D+04 ExpMxC= 3.78D+03 IAcc=2 IRadAn=         4 AccDes= 0.00D+00
 Harris functional with IExCor= 1009 and IRadAn=       4 diagonalized for initial guess.
 HarFok:  IExCor= 1009 AccDes= 0.00D+00 IRadAn=         4 IDoV= 1 UseB2=F ITyADJ=14
 ICtDFT=  3500011 ScaDFX=  1.000000  1.000000  1.000000  1.000000
 FoFCou: FMM=F IPFlag=           0 FMFlag=      100000 FMFlg1=           0
         NFxFlg=           0 DoJE=T BraDBF=F KetDBF=T FulRan=T
         wScrn=  0.000000 ICntrl=       500 IOpCl=  0 I1Cent=   200000004 NGrid=           0
         NMat0=    1 NMatS0=      1 NMatT0=    0 NMatD0=    1 NMtDS0=    0 NMtDT0=    0
 Petite list used in FoFCou.
 Harris En= -599.384439758159    
 Leave Link  401 at Wed Oct  7 13:28:15 2020, MaxMem=  2684354560 cpu:               5.4 elap:               0.7
 (Enter /udrive/faculty/rpeverati/g16/g16/l502.exe)
 Keep R1 and R2 ints in memory in canonical form, NReq=12417075.
 FoFCou: FMM=F IPFlag=           0 FMFlag=           0 FMFlg1=           0
         NFxFlg=           0 DoJE=F BraDBF=F KetDBF=F FulRan=T
         wScrn=  0.000000 ICntrl=       600 IOpCl=  0 I1Cent=           0 NGrid=           0
         NMat0=    1 NMatS0=   1378 NMatT0=    0 NMatD0=    1 NMtDS0=    0 NMtDT0=    0
 Symmetry not used in FoFCou.
 Two-electron integral symmetry not used.
 UHF open shell SCF:
 Using DIIS extrapolation, IDIIS=  1040.
 NGot=  2684354560 LenX=  2682446829 LenY=  2682443363
 Requested convergence on RMS density matrix=1.00D-08 within 120 cycles.
 Requested convergence on MAX density matrix=1.00D-06.
 Requested convergence on             energy=1.00D-06.
 No special actions if energy rises.
 Integral accuracy reduced to 1.0D-05 until final iterations.

 Cycle   1  Pass 0  IDiag  1:
 E= -599.670633614280    
 DIIS: error= 1.14D-03 at cycle   1 NSaved=   1.
 NSaved= 1 IEnMin= 1 EnMin= -599.670633614280     IErMin= 1 ErrMin= 1.14D-03
 ErrMax= 1.14D-03  0.00D+00 EMaxC= 1.00D-01 BMatC= 3.45D-04 BMatP= 3.45D-04
 IDIUse=3 WtCom= 9.89D-01 WtEn= 1.14D-02
 Coeff-Com:  0.100D+01
 Coeff-En:   0.100D+01
 Coeff:      0.100D+01
 Gap=     0.579 Goal=   None    Shift=    0.000
 Gap=     0.713 Goal=   None    Shift=    0.000
 GapD=    0.579 DampG=2.000 DampE=1.000 DampFc=2.0000 IDamp=-1.
 RMSDP=4.15D-04 MaxDP=7.84D-03              OVMax= 1.73D-02

 Cycle   2  Pass 0  IDiag  1:
 E= -599.670877163448     Delta-E=       -0.000243549168 Rises=F Damp=F
 DIIS: error= 8.56D-04 at cycle   2 NSaved=   2.
 NSaved= 2 IEnMin= 2 EnMin= -599.670877163448     IErMin= 2 ErrMin= 8.56D-04
 ErrMax= 8.56D-04  0.00D+00 EMaxC= 1.00D-01 BMatC= 9.99D-05 BMatP= 3.45D-04
 IDIUse=3 WtCom= 9.91D-01 WtEn= 8.56D-03
 Coeff-Com:  0.123D+00 0.877D+00
 Coeff-En:   0.000D+00 0.100D+01
 Coeff:      0.122D+00 0.878D+00
 Gap=     0.227 Goal=   None    Shift=    0.000
 Gap=     0.278 Goal=   None    Shift=    0.000
 RMSDP=1.51D-04 MaxDP=2.09D-03 DE=-2.44D-04 OVMax= 4.43D-03

 Cycle   3  Pass 0  IDiag  1:
 E= -599.670921208171     Delta-E=       -0.000044044723 Rises=F Damp=F
 DIIS: error= 4.32D-04 at cycle   3 NSaved=   3.
 NSaved= 3 IEnMin= 3 EnMin= -599.670921208171     IErMin= 3 ErrMin= 4.32D-04
 ErrMax= 4.32D-04  0.00D+00 EMaxC= 1.00D-01 BMatC= 2.73D-05 BMatP= 9.99D-05
 IDIUse=3 WtCom= 9.96D-01 WtEn= 4.32D-03
 Coeff-Com: -0.110D+00 0.327D+00 0.783D+00
 Coeff-En:   0.000D+00 0.000D+00 0.100D+01
 Coeff:     -0.109D+00 0.326D+00 0.784D+00
 Gap=     0.227 Goal=   None    Shift=    0.000
 Gap=     0.278 Goal=   None    Shift=    0.000
 RMSDP=1.54D-04 MaxDP=3.99D-03 DE=-4.40D-05 OVMax= 7.40D-03

 Cycle   4  Pass 0  IDiag  1:
 E= -599.670945173315     Delta-E=       -0.000023965144 Rises=F Damp=F
 DIIS: error= 2.98D-04 at cycle   4 NSaved=   4.
 NSaved= 4 IEnMin= 4 EnMin= -599.670945173315     IErMin= 4 ErrMin= 2.98D-04
 ErrMax= 2.98D-04  0.00D+00 EMaxC= 1.00D-01 BMatC= 1.07D-05 BMatP= 2.73D-05
 IDIUse=3 WtCom= 9.97D-01 WtEn= 2.98D-03
 Coeff-Com:  0.694D-02-0.321D+00 0.113D+00 0.120D+01
 Coeff-En:   0.000D+00 0.000D+00 0.000D+00 0.100D+01
 Coeff:      0.691D-02-0.320D+00 0.113D+00 0.120D+01
 Gap=     0.227 Goal=   None    Shift=    0.000
 Gap=     0.277 Goal=   None    Shift=    0.000
 RMSDP=8.97D-05 MaxDP=1.94D-03 DE=-2.40D-05 OVMax= 3.34D-03

 Cycle   5  Pass 0  IDiag  1:
 E= -599.670953791102     Delta-E=       -0.000008617787 Rises=F Damp=F
 DIIS: error= 9.60D-05 at cycle   5 NSaved=   5.
 NSaved= 5 IEnMin= 5 EnMin= -599.670953791102     IErMin= 5 ErrMin= 9.60D-05
 ErrMax= 9.60D-05  0.00D+00 EMaxC= 1.00D-01 BMatC= 1.19D-06 BMatP= 1.07D-05
 IDIUse=1 WtCom= 1.00D+00 WtEn= 0.00D+00
 Coeff-Com:  0.252D-01-0.120D+00-0.526D-01 0.174D-01 0.113D+01
 Coeff:      0.252D-01-0.120D+00-0.526D-01 0.174D-01 0.113D+01
 Gap=     0.227 Goal=   None    Shift=    0.000
 Gap=     0.277 Goal=   None    Shift=    0.000
 RMSDP=4.14D-05 MaxDP=1.12D-03 DE=-8.62D-06 OVMax= 1.60D-03

 Cycle   6  Pass 0  IDiag  1:
 E= -599.670955129007     Delta-E=       -0.000001337905 Rises=F Damp=F
 DIIS: error= 3.64D-05 at cycle   6 NSaved=   6.
 NSaved= 6 IEnMin= 6 EnMin= -599.670955129007     IErMin= 6 ErrMin= 3.64D-05
 ErrMax= 3.64D-05  0.00D+00 EMaxC= 1.00D-01 BMatC= 2.78D-07 BMatP= 1.19D-06
 IDIUse=1 WtCom= 1.00D+00 WtEn= 0.00D+00
 Coeff-Com:  0.671D-02 0.985D-02-0.150D-01-0.208D+00 0.442D+00 0.764D+00
 Coeff:      0.671D-02 0.985D-02-0.150D-01-0.208D+00 0.442D+00 0.764D+00
 Gap=     0.227 Goal=   None    Shift=    0.000
 Gap=     0.277 Goal=   None    Shift=    0.000
 RMSDP=1.06D-05 MaxDP=2.37D-04 DE=-1.34D-06 OVMax= 4.23D-04

 Cycle   7  Pass 0  IDiag  1:
 E= -599.670955308688     Delta-E=       -0.000000179681 Rises=F Damp=F
 DIIS: error= 2.31D-05 at cycle   7 NSaved=   7.
 NSaved= 7 IEnMin= 7 EnMin= -599.670955308688     IErMin= 7 ErrMin= 2.31D-05
 ErrMax= 2.31D-05  0.00D+00 EMaxC= 1.00D-01 BMatC= 8.09D-08 BMatP= 2.78D-07
 IDIUse=1 WtCom= 1.00D+00 WtEn= 0.00D+00
 Coeff-Com: -0.666D-02 0.526D-01 0.151D-01-0.118D+00-0.245D+00 0.339D+00
 Coeff-Com:  0.963D+00
 Coeff:     -0.666D-02 0.526D-01 0.151D-01-0.118D+00-0.245D+00 0.339D+00
 Coeff:      0.963D+00
 Gap=     0.227 Goal=   None    Shift=    0.000
 Gap=     0.277 Goal=   None    Shift=    0.000
 RMSDP=8.77D-06 MaxDP=2.61D-04 DE=-1.80D-07 OVMax= 2.65D-04

 Initial convergence to 1.0D-05 achieved.  Increase integral accuracy.
 Cycle   8  Pass 1  IDiag  1:
 E= -599.670840974070     Delta-E=        0.000114334618 Rises=F Damp=F
 DIIS: error= 1.26D-04 at cycle   1 NSaved=   1.
 NSaved= 1 IEnMin= 1 EnMin= -599.670840974070     IErMin= 1 ErrMin= 1.26D-04
 ErrMax= 1.26D-04  0.00D+00 EMaxC= 1.00D-01 BMatC= 1.96D-06 BMatP= 1.96D-06
 IDIUse=3 WtCom= 9.99D-01 WtEn= 1.26D-03
 Coeff-Com:  0.100D+01
 Coeff-En:   0.100D+01
 Coeff:      0.100D+01
 Gap=     0.227 Goal=   None    Shift=    0.000
 Gap=     0.277 Goal=   None    Shift=    0.000
 RMSDP=8.77D-06 MaxDP=2.61D-04 DE= 1.14D-04 OVMax= 4.14D-04

 Cycle   9  Pass 1  IDiag  1:
 E= -599.670841719191     Delta-E=       -0.000000745121 Rises=F Damp=F
 DIIS: error= 2.39D-05 at cycle   2 NSaved=   2.
 NSaved= 2 IEnMin= 2 EnMin= -599.670841719191     IErMin= 2 ErrMin= 2.39D-05
 ErrMax= 2.39D-05  0.00D+00 EMaxC= 1.00D-01 BMatC= 2.59D-07 BMatP= 1.96D-06
 IDIUse=1 WtCom= 1.00D+00 WtEn= 0.00D+00
 Coeff-Com:  0.172D+00 0.828D+00
 Coeff:      0.172D+00 0.828D+00
 Gap=     0.227 Goal=   None    Shift=    0.000
 Gap=     0.277 Goal=   None    Shift=    0.000
 RMSDP=1.22D-05 MaxDP=3.65D-04 DE=-7.45D-07 OVMax= 4.25D-04

 Cycle  10  Pass 1  IDiag  1:
 E= -599.670841813828     Delta-E=       -0.000000094637 Rises=F Damp=F
 DIIS: error= 1.99D-05 at cycle   3 NSaved=   3.
 NSaved= 3 IEnMin= 3 EnMin= -599.670841813828     IErMin= 3 ErrMin= 1.99D-05
 ErrMax= 1.99D-05  0.00D+00 EMaxC= 1.00D-01 BMatC= 1.41D-07 BMatP= 2.59D-07
 IDIUse=1 WtCom= 1.00D+00 WtEn= 0.00D+00
 Coeff-Com: -0.213D-01 0.396D+00 0.626D+00
 Coeff:     -0.213D-01 0.396D+00 0.626D+00
 Gap=     0.227 Goal=   None    Shift=    0.000
 Gap=     0.277 Goal=   None    Shift=    0.000
 RMSDP=3.91D-06 MaxDP=7.16D-05 DE=-9.46D-08 OVMax= 1.04D-04

 Cycle  11  Pass 1  IDiag  1:
 E= -599.670841852002     Delta-E=       -0.000000038174 Rises=F Damp=F
 DIIS: error= 9.47D-06 at cycle   4 NSaved=   4.
 NSaved= 4 IEnMin= 4 EnMin= -599.670841852002     IErMin= 4 ErrMin= 9.47D-06
 ErrMax= 9.47D-06  0.00D+00 EMaxC= 1.00D-01 BMatC= 1.65D-08 BMatP= 1.41D-07
 IDIUse=1 WtCom= 1.00D+00 WtEn= 0.00D+00
 Coeff-Com: -0.326D-01 0.932D-01 0.225D+00 0.714D+00
 Coeff:     -0.326D-01 0.932D-01 0.225D+00 0.714D+00
 Gap=     0.227 Goal=   None    Shift=    0.000
 Gap=     0.277 Goal=   None    Shift=    0.000
 RMSDP=2.16D-06 MaxDP=4.90D-05 DE=-3.82D-08 OVMax= 8.40D-05

 Cycle  12  Pass 1  IDiag  1:
 E= -599.670841859940     Delta-E=       -0.000000007938 Rises=F Damp=F
 DIIS: error= 3.79D-06 at cycle   5 NSaved=   5.
 NSaved= 5 IEnMin= 5 EnMin= -599.670841859940     IErMin= 5 ErrMin= 3.79D-06
 ErrMax= 3.79D-06  0.00D+00 EMaxC= 1.00D-01 BMatC= 3.29D-09 BMatP= 1.65D-08
 IDIUse=1 WtCom= 1.00D+00 WtEn= 0.00D+00
 Coeff-Com:  0.539D-02-0.486D-01-0.185D+00 0.101D-01 0.122D+01
 Coeff:      0.539D-02-0.486D-01-0.185D+00 0.101D-01 0.122D+01
 Gap=     0.227 Goal=   None    Shift=    0.000
 Gap=     0.277 Goal=   None    Shift=    0.000
 RMSDP=2.13D-06 MaxDP=4.91D-05 DE=-7.94D-09 OVMax= 9.44D-05

 Cycle  13  Pass 1  IDiag  1:
 E= -599.670841863903     Delta-E=       -0.000000003963 Rises=F Damp=F
 DIIS: error= 3.13D-06 at cycle   6 NSaved=   6.
 NSaved= 6 IEnMin= 6 EnMin= -599.670841863903     IErMin= 6 ErrMin= 3.13D-06
 ErrMax= 3.13D-06  0.00D+00 EMaxC= 1.00D-01 BMatC= 1.42D-09 BMatP= 3.29D-09
 IDIUse=1 WtCom= 1.00D+00 WtEn= 0.00D+00
 Coeff-Com:  0.932D-02-0.435D-01-0.152D+00-0.158D+00 0.627D+00 0.718D+00
 Coeff:      0.932D-02-0.435D-01-0.152D+00-0.158D+00 0.627D+00 0.718D+00
 Gap=     0.227 Goal=   None    Shift=    0.000
 Gap=     0.277 Goal=   None    Shift=    0.000
 RMSDP=8.15D-07 MaxDP=1.77D-05 DE=-3.96D-09 OVMax= 2.71D-05

 Cycle  14  Pass 1  IDiag  1:
 E= -599.670841864798     Delta-E=       -0.000000000895 Rises=F Damp=F
 DIIS: error= 7.52D-07 at cycle   7 NSaved=   7.
 NSaved= 7 IEnMin= 7 EnMin= -599.670841864798     IErMin= 7 ErrMin= 7.52D-07
 ErrMax= 7.52D-07  0.00D+00 EMaxC= 1.00D-01 BMatC= 1.14D-10 BMatP= 1.42D-09
 IDIUse=1 WtCom= 1.00D+00 WtEn= 0.00D+00
 Coeff-Com:  0.113D-02 0.657D-02 0.205D-01-0.458D-01-0.165D+00 0.422D-01
 Coeff-Com:  0.114D+01
 Coeff:      0.113D-02 0.657D-02 0.205D-01-0.458D-01-0.165D+00 0.422D-01
 Coeff:      0.114D+01
 Gap=     0.227 Goal=   None    Shift=    0.000
 Gap=     0.277 Goal=   None    Shift=    0.000
 RMSDP=5.49D-07 MaxDP=1.42D-05 DE=-8.95D-10 OVMax= 2.24D-05

 Cycle  15  Pass 1  IDiag  1:
 E= -599.670841865013     Delta-E=       -0.000000000215 Rises=F Damp=F
 DIIS: error= 4.27D-07 at cycle   8 NSaved=   8.
 NSaved= 8 IEnMin= 8 EnMin= -599.670841865013     IErMin= 8 ErrMin= 4.27D-07
 ErrMax= 4.27D-07  0.00D+00 EMaxC= 1.00D-01 BMatC= 2.54D-11 BMatP= 1.14D-10
 IDIUse=1 WtCom= 1.00D+00 WtEn= 0.00D+00
 Coeff-Com: -0.151D-02 0.724D-02 0.257D-01 0.227D-01-0.101D+00-0.162D+00
 Coeff-Com:  0.974D-01 0.111D+01
 Coeff:     -0.151D-02 0.724D-02 0.257D-01 0.227D-01-0.101D+00-0.162D+00
 Coeff:      0.974D-01 0.111D+01
 Gap=     0.227 Goal=   None    Shift=    0.000
 Gap=     0.277 Goal=   None    Shift=    0.000
 RMSDP=1.88D-07 MaxDP=4.49D-06 DE=-2.15D-10 OVMax= 6.46D-06

 Cycle  16  Pass 1  IDiag  1:
 E= -599.670841865045     Delta-E=       -0.000000000032 Rises=F Damp=F
 DIIS: error= 1.17D-07 at cycle   9 NSaved=   9.
 NSaved= 9 IEnMin= 9 EnMin= -599.670841865045     IErMin= 9 ErrMin= 1.17D-07
 ErrMax= 1.17D-07  0.00D+00 EMaxC= 1.00D-01 BMatC= 3.30D-12 BMatP= 2.54D-11
 IDIUse=1 WtCom= 1.00D+00 WtEn= 0.00D+00
 Coeff-Com:  0.183D-03-0.239D-02-0.846D-02 0.186D-02 0.421D-01 0.534D-01
 Coeff-Com: -0.214D+00-0.236D+00 0.136D+01
 Coeff:      0.183D-03-0.239D-02-0.846D-02 0.186D-02 0.421D-01 0.534D-01
 Coeff:     -0.214D+00-0.236D+00 0.136D+01
 Gap=     0.227 Goal=   None    Shift=    0.000
 Gap=     0.277 Goal=   None    Shift=    0.000
 RMSDP=6.52D-08 MaxDP=1.49D-06 DE=-3.23D-11 OVMax= 2.16D-06

 Cycle  17  Pass 1  IDiag  1:
 E= -599.670841865051     Delta-E=       -0.000000000006 Rises=F Damp=F
 DIIS: error= 5.64D-08 at cycle  10 NSaved=  10.
 NSaved=10 IEnMin=10 EnMin= -599.670841865051     IErMin=10 ErrMin= 5.64D-08
 ErrMax= 5.64D-08  0.00D+00 EMaxC= 1.00D-01 BMatC= 4.92D-13 BMatP= 3.30D-12
 IDIUse=1 WtCom= 1.00D+00 WtEn= 0.00D+00
 Coeff-Com:  0.205D-03-0.126D-02-0.441D-02-0.228D-02 0.139D-01 0.344D-01
 Coeff-Com: -0.412D-01-0.157D+00 0.124D+00 0.103D+01
 Coeff:      0.205D-03-0.126D-02-0.441D-02-0.228D-02 0.139D-01 0.344D-01
 Coeff:     -0.412D-01-0.157D+00 0.124D+00 0.103D+01
 Gap=     0.227 Goal=   None    Shift=    0.000
 Gap=     0.277 Goal=   None    Shift=    0.000
 RMSDP=2.08D-08 MaxDP=3.23D-07 DE=-5.68D-12 OVMax= 5.91D-07

 Cycle  18  Pass 1  IDiag  1:
 E= -599.670841865052     Delta-E=       -0.000000000001 Rises=F Damp=F
 DIIS: error= 1.80D-08 at cycle  11 NSaved=  11.
 NSaved=11 IEnMin=11 EnMin= -599.670841865052     IErMin=11 ErrMin= 1.80D-08
 ErrMax= 1.80D-08  0.00D+00 EMaxC= 1.00D-01 BMatC= 6.23D-14 BMatP= 4.92D-13
 IDIUse=1 WtCom= 1.00D+00 WtEn= 0.00D+00
 Coeff-Com: -0.537D-04 0.480D-03 0.191D-02 0.152D-03-0.813D-02-0.109D-01
 Coeff-Com:  0.332D-01 0.644D-01-0.230D+00-0.134D+00 0.128D+01
 Coeff:     -0.537D-04 0.480D-03 0.191D-02 0.152D-03-0.813D-02-0.109D-01
 Coeff:      0.332D-01 0.644D-01-0.230D+00-0.134D+00 0.128D+01
 Gap=     0.227 Goal=   None    Shift=    0.000
 Gap=     0.277 Goal=   None    Shift=    0.000
 RMSDP=1.06D-08 MaxDP=2.05D-07 DE=-1.36D-12 OVMax= 3.46D-07

 Cycle  19  Pass 1  IDiag  1:
 E= -599.670841865051     Delta-E=        0.000000000001 Rises=F Damp=F
 DIIS: error= 7.32D-09 at cycle  12 NSaved=  12.
 NSaved=12 IEnMin=11 EnMin= -599.670841865052     IErMin=12 ErrMin= 7.32D-09
 ErrMax= 7.32D-09  0.00D+00 EMaxC= 1.00D-01 BMatC= 9.42D-15 BMatP= 6.23D-14
 IDIUse=1 WtCom= 1.00D+00 WtEn= 0.00D+00
 Coeff-Com: -0.417D-05-0.472D-04-0.196D-03 0.841D-04 0.150D-02 0.741D-03
 Coeff-Com: -0.828D-02-0.708D-02 0.725D-01-0.515D-01-0.524D+00 0.152D+01
 Coeff:     -0.417D-05-0.472D-04-0.196D-03 0.841D-04 0.150D-02 0.741D-03
 Coeff:     -0.828D-02-0.708D-02 0.725D-01-0.515D-01-0.524D+00 0.152D+01
 Gap=     0.227 Goal=   None    Shift=    0.000
 Gap=     0.277 Goal=   None    Shift=    0.000
 RMSDP=5.88D-09 MaxDP=1.27D-07 DE= 1.36D-12 OVMax= 2.16D-07

 SCF Done:  E(UM062X) =  -599.670841865     A.U. after   19 cycles
            NFock= 19  Conv=0.59D-08     -V/T= 2.0022
 <Sx>= 0.0000 <Sy>= 0.0000 <Sz>= 0.5000 <S**2>= 0.7744 S= 0.5121
 <L.S>= 0.000000000000E+00
 KE= 5.983637098831D+02 PE=-1.617131588012D+03 EE= 3.232257309561D+02
 Annihilation of the first spin contaminant:
 S**2 before annihilation     0.7744,   after     0.7501
 Leave Link  502 at Wed Oct  7 13:28:24 2020, MaxMem=  2684354560 cpu:             107.0 elap:               9.5
 (Enter /udrive/faculty/rpeverati/g16/g16/l508.exe)
 QCSCF skips out because SCF is already converged.
 Leave Link  508 at Wed Oct  7 13:28:25 2020, MaxMem=  2684354560 cpu:               0.4 elap:               0.4
 (Enter /udrive/faculty/rpeverati/g16/g16/l701.exe)
 ... and contract with generalized density number  0.
 Compute integral first derivatives.
 Leave Link  701 at Wed Oct  7 13:28:26 2020, MaxMem=  2684354560 cpu:               3.1 elap:               0.6
 (Enter /udrive/faculty/rpeverati/g16/g16/l702.exe)
 L702 exits ... SP integral derivatives will be done elsewhere.
 Leave Link  702 at Wed Oct  7 13:28:27 2020, MaxMem=  2684354560 cpu:               1.1 elap:               0.6
 (Enter /udrive/faculty/rpeverati/g16/g16/l703.exe)
 Integral derivatives from FoFJK, PRISM(SPDF).
 Compute integral first derivatives, UseDBF=F ICtDFT=           0.
 Calling FoFJK, ICntrl=      2127 FMM=F ISym2X=0 I1Cent= 0 IOpClX= 1 NMat=1 NMatS=1 NMatT=0.
 FoFJK:  IHMeth= 1 ICntrl=    2127 DoSepK=F KAlg= 0 I1Cent=           0 FoldK=F
 IRaf=         0 NMat=       1 IRICut=       1 DoRegI=T DoRafI=F ISym2E= 0 IDoP0=0 IntGTp=1.
 FoFCou: FMM=F IPFlag=           0 FMFlag=      100000 FMFlg1=         800
         NFxFlg=           0 DoJE=F BraDBF=F KetDBF=F FulRan=T
         wScrn=  0.000000 ICntrl=      2127 IOpCl=  1 I1Cent=           0 NGrid=           0
         NMat0=    1 NMatS0=      1 NMatT0=    0 NMatD0=    1 NMtDS0=    0 NMtDT0=    0
 Symmetry not used in FoFCou.
 Leave Link  703 at Wed Oct  7 13:28:29 2020, MaxMem=  2684354560 cpu:              11.0 elap:               1.3
 (Enter /udrive/faculty/rpeverati/g16/g16/l716.exe)
 Dipole        =-1.06889636D+00-1.41752307D-02 3.70123464D-05
 ***** Axes restored to original set *****
 -------------------------------------------------------------------
 Center     Atomic                   Forces (Hartrees/Bohr)
 Number     Number              X              Y              Z
 -------------------------------------------------------------------
      1       17           0.008827629    0.000027687   -0.000000111
      2        9          -0.015968556   -0.000321841    0.000002253
      3        6           0.008835915    0.000292255    0.000007008
      4        1          -0.000555533    0.000128214    0.000104890
      5        1          -0.000567492    0.000005902   -0.000161846
      6        1          -0.000571962   -0.000132217    0.000047805
 -------------------------------------------------------------------
 Cartesian Forces:  Max     0.015968556 RMS     0.004785489
 Leave Link  716 at Wed Oct  7 13:28:30 2020, MaxMem=  2684354560 cpu:               3.0 elap:               0.8
 (Enter /udrive/faculty/rpeverati/g16/g16/l103.exe)

 GradGradGradGradGradGradGradGradGradGradGradGradGradGradGradGradGradGrad
 Berny optimization.
 Optmz: redundant internal coordinate code flag= 1
 Red2BG:  D1=  1.95D-01 OD1=  2.64D-02 B2RMS=  0.00D+00 IAprox=0
 FormGI is forming the generalized inverse of G from B-inverse, IUseBI=4.
 Internal  Forces:  Max     0.008824717 RMS     0.003046110
 Search for a saddle point.
 Step number   2 out of a maximum of   50
 All quantities printed in internal units (Hartrees-Bohrs-Radians)
 Swapping is turned off.
 Update second derivatives using D2CorX and points    1    2
 The second derivative matrix:
                          R1        R2        R3        R4        R5
           R1           0.22650
           R2           0.08150  -0.00333
           R3          -0.00259   0.00022   0.36306
           R4          -0.00267   0.00026   0.00019   0.36310
           R5          -0.00290   0.00064   0.00018   0.00018   0.36309
           A1          -0.00606   0.00696  -0.00009  -0.00010  -0.00013
           A2          -0.00632   0.00732  -0.00010  -0.00011  -0.00014
           A3          -0.00620   0.00721  -0.00010  -0.00011  -0.00014
           A4           0.00185  -0.00208   0.00003   0.00003   0.00004
           A5           0.00246  -0.00287   0.00004   0.00004   0.00005
           A6           0.00234  -0.00276   0.00004   0.00004   0.00006
           A7           0.00353  -0.00046  -0.00025  -0.00025  -0.00023
           A8          -0.04620   0.01720   0.00227   0.00230   0.00208
           D1           0.01075  -0.00674  -0.00030  -0.00030  -0.00025
                          A1        A2        A3        A4        A5
           A1           0.15943
           A2          -0.00060   0.15938
           A3          -0.00059  -0.00061   0.15940
           A4           0.00017   0.00018   0.00018   0.15995
           A5           0.00023   0.00024   0.00024  -0.00007   0.15990
           A6           0.00022   0.00023   0.00023  -0.00007  -0.00009
           A7           0.00014   0.00015   0.00015  -0.00004  -0.00006
           A8          -0.00240  -0.00257  -0.00256   0.00069   0.00102
           D1           0.00071   0.00075   0.00074  -0.00021  -0.00030
                          A6        A7        A8        D1
           A6           0.15991
           A7          -0.00006   0.00262
           A8           0.00102  -0.00292   0.02702
           D1          -0.00029   0.00038  -0.00247   0.00397
 ITU=  0  0
 Eigenvectors of the second derivative matrix:
                           1         2         3         4         5
     Eigenvalues --    -0.04623   0.00233   0.03194   0.04374   0.15998
   1         R1        -0.32787  -0.00888   0.03098   0.00225   0.00381
   2         R2         0.83567   0.02669   0.30455   0.36035   0.01262
   3         R3        -0.00020   0.00008  -0.00537  -0.00334   0.00025
   4         R4        -0.00032   0.00008  -0.00548  -0.00341   0.00025
   5         R5        -0.00152   0.00005  -0.00535  -0.00339   0.00026
   6         A1        -0.04565  -0.00180  -0.12560   0.22326  -0.01687
   7         A2        -0.04791  -0.00186  -0.12549   0.22315   0.13204
   8         A3        -0.04722  -0.00185  -0.12529   0.22336   0.03627
   9         A4         0.01422   0.00066   0.06284  -0.11369   0.78798
  10         A5         0.01869   0.00067   0.03682  -0.06427  -0.47016
  11         A6         0.01805   0.00066   0.03660  -0.06450  -0.37257
  12         A7         0.00678   0.99617  -0.07891  -0.03399   0.00043
  13         A8        -0.40294   0.08244   0.81750   0.36687  -0.00507
  14         D1         0.15576   0.00612   0.42167  -0.75074   0.00152
                           6         7         8         9        10
     Eigenvalues --     0.16000   0.16000   0.16000   0.25938   0.36288
   1         R1        -0.00000   0.00000  -0.00035  -0.94310   0.00031
   2         R2         0.00000  -0.00000   0.00047  -0.27951   0.00040
   3         R3         0.00000  -0.00000   0.00003  -0.02660  -0.82307
   4         R4         0.00000  -0.00000   0.00003  -0.02723   0.48789
   5         R5         0.00000  -0.00000   0.00003  -0.02795   0.29074
   6         A1        -0.33787   0.36109  -0.65155   0.01243  -0.00002
   7         A2         0.02463  -0.80571   0.04487   0.01357  -0.00002
   8         A3         0.30062   0.45940   0.60537   0.01274  -0.00002
   9         A4        -0.06548   0.07661  -0.00603   0.00005   0.00001
  10         A5        -0.59271  -0.05025   0.32491  -0.00746   0.00001
  11         A6         0.66277  -0.03173  -0.31842  -0.00661   0.00001
  12         A7         0.00000  -0.00000   0.00005  -0.01432   0.00004
  13         A8        -0.00000   0.00000  -0.00055   0.16621  -0.00045
  14         D1         0.00000  -0.00000   0.00009  -0.04204   0.00008
                          11        12
     Eigenvalues --     0.36292   0.36373
   1         R1         0.00111  -0.04467
   2         R2        -0.00053  -0.00727
   3         R3         0.11106   0.55631
   4         R4         0.64029   0.59263
   5         R5        -0.76006   0.58048
   6         A1         0.00002   0.00071
   7         A2         0.00002   0.00066
   8         A3         0.00002   0.00063
   9         A4        -0.00000  -0.00041
  10         A5        -0.00001  -0.00017
  11         A6        -0.00001  -0.00014
  12         A7        -0.00002  -0.00173
  13         A8         0.00025   0.01717
  14         D1        -0.00008  -0.00225
 RLam0= 1.65D-03.
 Iter=   1 RLamda= 0.00000000D+00 Sum=-4.62592723D-04.
 Iter=   2 RLamda=-4.62592723D-04 Sum=-4.56986744D-04.
 Iter=   3 RLamda=-4.56986744D-04 Sum=-4.57051313D-04.
 Iter=   4 RLamda=-4.57051313D-04 Sum=-4.57050569D-04.
 RFO step:  Lambda0=1.650068009D-03 Lambda=-4.57051313D-04.
 Linear search not attempted -- option 19 set.
 Maximum step size (   0.100) exceeded in Quadratic search.
    -- Step size scaled by   0.470
 Iteration  1 RMS(Cart)=  0.02383622 RMS(Int)=  0.00077807
[...]
     10 -0.240192D-02 -0.204736D-01 -0.309223D-01 -0.236014D-01  0.158149D-01
     11  0.316791D-03 -0.255996D-01 -0.255887D+00 -0.150327D+00  0.275309D-01
     12  0.348813D-03 -0.194828D-01 -0.150300D+00 -0.173003D+00  0.210294D-01
     13  0.393616D-02 -0.205961D-01 -0.493252D-02  0.392545D-01  0.451233D-02
     14 -0.742844D-04 -0.407460D-02 -0.637727D-01  0.394773D-01  0.335308D-02
     15  0.763614D-03  0.325694D-01  0.393675D-01 -0.365118D+00  0.227073D-02
     16 -0.152971D-02 -0.205797D-01  0.366758D-01 -0.152980D-01  0.450123D-02
     17 -0.225937D-03  0.304889D-01 -0.323721D+00  0.110807D+00  0.305926D-02
     18  0.173097D-03 -0.127100D-01  0.110888D+00 -0.105017D+00  0.259051D-02
               11            12            13            14            15 
     11  0.260219D+00
     12  0.161710D+00  0.171042D+00
     13  0.747595D-03 -0.401521D-02  0.159141D-01
     14  0.783767D-02 -0.227280D-01  0.435172D-02  0.534405D-01
     15  0.520278D-02 -0.951437D-02 -0.350285D-01 -0.424038D-01  0.377740D+00
     16 -0.361961D-02  0.174418D-02  0.450678D-02 -0.378143D-02  0.138249D-02
     17 -0.127759D-01  0.108652D-01  0.322592D-03  0.244929D-02 -0.204901D-02
     18 -0.170315D-01  0.110883D-01 -0.396233D-02  0.257617D-01 -0.407355D-02
               16            17            18 
     16  0.159321D-01
     17 -0.327633D-01  0.333225D+00
     18  0.136300D-01 -0.119299D+00  0.978536D-01
 FormGI is forming the generalized inverse of G from B-inverse, IUseBI=4.
 Force constants in internal coordinates: 
                1             2             3             4             5 
      1  0.872045D-01
      2  0.944966D-01 -0.678283D-02
      3  0.310874D-03 -0.727580D-03  0.386598D+00
      4  0.334602D-03 -0.738600D-03  0.295346D-03  0.386555D+00
      5  0.346220D-03 -0.730175D-03  0.315286D-03  0.301712D-03  0.386500D+00
      6  0.244383D-03  0.192759D-02 -0.259737D-02  0.185685D-03 -0.524908D-03
      7  0.209297D-03  0.189217D-02  0.150148D-03 -0.250492D-02 -0.515318D-03
      8  0.223544D-03  0.194025D-02  0.206688D-03  0.133899D-03 -0.328889D-02
      9  0.196103D-04  0.170017D-03  0.471320D-02  0.484033D-02 -0.988461D-02
     10 -0.123374D-03 -0.111831D-02  0.560654D-02 -0.952674D-02  0.570086D-02
     11 -0.138652D-03 -0.111354D-02 -0.951772D-02  0.546718D-02  0.573490D-02
     12 -0.385325D-04  0.118984D-04  0.421710D-03 -0.838344D-03  0.481002D-03
     13 -0.380013D-04 -0.230870D-04  0.347791D-03  0.419783D-05 -0.341832D-03
     14 -0.731975D-03 -0.622504D-02  0.341452D-02  0.337652D-02  0.265572D-02
                6             7             8             9            10 
      6  0.211510D-01
      7 -0.823432D-02  0.210932D-01
      8 -0.827695D-02 -0.824491D-02  0.211023D-01
      9  0.333398D-02  0.332884D-02  0.327468D-02  0.655837D-01
     10 -0.247622D-02 -0.248629D-02 -0.246261D-02 -0.345702D-01  0.701714D-01
     11 -0.251892D-02 -0.249484D-02 -0.245213D-02 -0.345808D-01 -0.329328D-01
     12  0.384959D-03 -0.795580D-03  0.411823D-03  0.486489D-04 -0.105576D-03
     13  0.297612D-03 -0.145001D-04 -0.298634D-03 -0.429108D-04  0.813263D-05
     14 -0.435101D-02 -0.432513D-02 -0.429925D-02  0.279693D-02  0.917830D-03
               11            12            13            14 
     11  0.701862D-01
     12  0.564881D-04  0.258452D-01
     13  0.403410D-04 -0.410270D-04  0.493640D-02
     14  0.929378D-03  0.877820D-05  0.797344D-05  0.146822D-01
 Leave Link  716 at Wed Oct  7 13:31:35 2020, MaxMem=  2684354560 cpu:               1.4 elap:               0.4
 (Enter /udrive/faculty/rpeverati/g16/g16/l103.exe)

 GradGradGradGradGradGradGradGradGradGradGradGradGradGradGradGradGradGrad
 Berny optimization.
 Optmz: redundant internal coordinate code flag= 1
 Red2BG:  D1=  1.97D-01 OD1=  3.37D-14 B2RMS=  0.00D+00 IAprox=1
 Red2BG is reusing G-inverse.
 Internal  Forces:  Max     0.000067490 RMS     0.000025727
 Search for a local minimum.
 Step number   1 out of a maximum of    2
 All quantities printed in internal units (Hartrees-Bohrs-Radians)
 Second derivative matrix not updated -- analytic derivatives used.
 The second derivative matrix:
                          R1        R2        R3        R4        R5
           R1           0.08720
           R2           0.09450  -0.00678
           R3           0.00031  -0.00073   0.38660
           R4           0.00033  -0.00074   0.00030   0.38655
           R5           0.00035  -0.00073   0.00032   0.00030   0.38650
           A1           0.00024   0.00193  -0.00260   0.00019  -0.00052
           A2           0.00021   0.00189   0.00015  -0.00250  -0.00052
           A3           0.00022   0.00194   0.00021   0.00013  -0.00329
           A4           0.00002   0.00017   0.00471   0.00484  -0.00988
           A5          -0.00012  -0.00112   0.00561  -0.00953   0.00570
           A6          -0.00014  -0.00111  -0.00952   0.00547   0.00573
           A7          -0.00004   0.00001   0.00042  -0.00084   0.00048
           A8          -0.00004  -0.00002   0.00035   0.00000  -0.00034
           D1          -0.00073  -0.00623   0.00341   0.00338   0.00266
                          A1        A2        A3        A4        A5
           A1           0.02115
           A2          -0.00823   0.02109
           A3          -0.00828  -0.00824   0.02110
           A4           0.00333   0.00333   0.00327   0.06558
           A5          -0.00248  -0.00249  -0.00246  -0.03457   0.07017
           A6          -0.00252  -0.00249  -0.00245  -0.03458  -0.03293
           A7           0.00038  -0.00080   0.00041   0.00005  -0.00011
           A8           0.00030  -0.00001  -0.00030  -0.00004   0.00001
           D1          -0.00435  -0.00433  -0.00430   0.00280   0.00092
                          A6        A7        A8        D1
           A6           0.07019
           A7           0.00006   0.02585
           A8           0.00004  -0.00004   0.00494
           D1           0.00093   0.00001   0.00001   0.01468
 ITU=  0
 Eigenvectors of the second derivative matrix:
                           1         2         3         4         5
     Eigenvalues --    -0.06571   0.00493   0.01921   0.02558   0.02939
   1         R1        -0.52429   0.00022   0.06454   0.00018  -0.00017
   2         R2         0.84896   0.00021  -0.03751   0.00034  -0.00007
   3         R3         0.00124  -0.00102  -0.01052  -0.00193   0.00561
   4         R4         0.00130   0.00000  -0.01042   0.00386  -0.00001
   5         R5         0.00114   0.00101  -0.00872  -0.00218  -0.00553
   6         A1        -0.01744  -0.01233  -0.25762  -0.10041   0.70232
   7         A2        -0.01734   0.00063  -0.26046   0.20782   0.01168
   8         A3        -0.01771   0.01226  -0.26279  -0.10839  -0.71144
   9         A4         0.00318   0.00054   0.12137  -0.00095  -0.00217
  10         A5         0.00785  -0.00012   0.07919   0.00223  -0.00021
  11         A6         0.00776  -0.00061   0.07893  -0.00093   0.00146
  12         A7        -0.00033   0.00197  -0.00100   0.96693  -0.00930
  13         A8        -0.00002   0.99985   0.00062  -0.00194   0.01741
  14         D1         0.05771  -0.00049   0.87386   0.00087  -0.00323
                           6         7         8         9        10
     Eigenvalues --     0.02957   0.10222   0.10232   0.14592   0.38702
   1         R1         0.00035   0.01875  -0.00304  -0.84888  -0.00009
   2         R2        -0.00011   0.00458  -0.00086  -0.52709   0.00019
   3         R3        -0.00277   0.01282  -0.04000  -0.00064  -0.43094
   4         R4         0.00534   0.02477   0.03390  -0.00057  -0.49389
   5         R5        -0.00268  -0.04478   0.00698  -0.00183   0.75339
   6         A1        -0.40549  -0.04794   0.00919  -0.01024   0.00123
   7         A2         0.78938  -0.04826   0.00612  -0.00982   0.00165
   8         A3        -0.38400  -0.04472   0.00668  -0.01009  -0.00788
   9         A4        -0.00062  -0.78573   0.12086  -0.01052  -0.04168
  10         A5         0.00092   0.52551   0.63357   0.01051   0.02325
  11         A6        -0.00026   0.31079  -0.76224   0.01080   0.02022
  12         A7        -0.25485  -0.00147  -0.00189   0.00021   0.00163
  13         A8        -0.00028   0.00071  -0.00047   0.00033  -0.00106
  14         D1        -0.00004  -0.00972   0.00137   0.03059  -0.00321
                          11        12
     Eigenvalues --     0.38710   0.38728
   1         R1        -0.00017   0.00078
   2         R2         0.00048  -0.00331
   3         R3         0.64077   0.63386
   4         R4        -0.75506   0.42901
   5         R5        -0.12839   0.64322
   6         A1        -0.00483  -0.00530
   7         A2         0.00575  -0.00365
   8         A3         0.00129  -0.00536
   9         A4         0.00231  -0.00515
  10         A5         0.03545   0.01065
  11         A6        -0.03855  -0.00037
  12         A7         0.00230   0.00059
  13         A8         0.00068   0.00001
  14         D1        -0.00191   0.01449
 Eigenvalue     1 is  -6.57D-02 should be greater than     0.000000 Eigenvector:
                          R2        R1        D1        A3        A1
   1                    0.84896  -0.52429   0.05771  -0.01771  -0.01744
                          A2        A5        A6        A4        R4
   1                   -0.01734   0.00785   0.00776   0.00318   0.00130
 Angle between quadratic step and forces=  49.22 degrees.
 Linear search not attempted -- first point.
 Iteration  1 RMS(Cart)=  0.00089426 RMS(Int)=  0.00000151
 Iteration  2 RMS(Cart)=  0.00000143 RMS(Int)=  0.00000046
 Iteration  3 RMS(Cart)=  0.00000000 RMS(Int)=  0.00000046
 ITry= 1 IFail=0 DXMaxC= 1.91D-03 DCOld= 1.00D+10 DXMaxT= 3.00D-01 DXLimC= 3.00D+00 Rises=F
 Variable       Old X    -DE/DX   Delta X   Delta X   Delta X     New X
                                 (Linear)    (Quad)   (Total)
    R1        3.31730  -0.00007   0.00000  -0.00044  -0.00044   3.31686
    R2        3.96271  -0.00001   0.00000   0.00005   0.00005   3.96277
    R3        2.04066  -0.00000   0.00000  -0.00003  -0.00003   2.04062
    R4        2.04068  -0.00001   0.00000  -0.00005  -0.00005   2.04063
    R5        2.04067  -0.00001   0.00000  -0.00005  -0.00005   2.04062
    A1        1.67603  -0.00002   0.00000  -0.00094  -0.00094   1.67508
    A2        1.67650  -0.00003   0.00000  -0.00119  -0.00119   1.67532
    A3        1.67551   0.00000   0.00000  -0.00016  -0.00016   1.67535
    A4        2.07531   0.00001   0.00000   0.00034   0.00034   2.07565
    A5        2.07545   0.00001   0.00000   0.00024   0.00024   2.07569
    A6        2.07542   0.00001   0.00000   0.00024   0.00024   2.07566
    A7        3.14187  -0.00001   0.00000  -0.00049  -0.00049   3.14138
    A8        3.14474  -0.00002   0.00000  -0.00303  -0.00303   3.14170
    D1        2.78170   0.00005   0.00000   0.00256   0.00256   2.78426
         Item               Value     Threshold  Converged?
 Maximum Force            0.000067     0.000450     YES
 RMS     Force            0.000026     0.000300     YES
 Maximum Displacement     0.001910     0.001800     NO 
 RMS     Displacement     0.000895     0.001200     YES
 Predicted change in Energy=-1.503424D-07
                           ----------------------------
                           ! Non-Optimized Parameters !
                           ! (Angstroms and Degrees)  !
 --------------------------                            --------------------------
 ! Name  Definition              Value          Derivative Info.                !
 --------------------------------------------------------------------------------
 ! R1    R(1,2)                  1.7552         -DE/DX =   -0.0001              !
 ! R2    R(2,3)                  2.097          -DE/DX =    0.0                 !
 ! R3    R(3,4)                  1.0799         -DE/DX =    0.0                 !
 ! R4    R(3,5)                  1.0799         -DE/DX =    0.0                 !
 ! R5    R(3,6)                  1.0798         -DE/DX =    0.0                 !
 ! A1    A(2,3,4)               95.9752         -DE/DX =    0.0                 !
 ! A2    A(2,3,5)               95.9886         -DE/DX =    0.0                 !
 ! A3    A(2,3,6)               95.9905         -DE/DX =    0.0                 !
 ! A4    A(4,3,5)              118.9258         -DE/DX =    0.0                 !
 ! A5    A(4,3,6)              118.9284         -DE/DX =    0.0                 !
 ! A6    A(5,3,6)              118.9266         -DE/DX =    0.0                 !
 ! A7    L(1,2,3,5,-1)         179.9875         -DE/DX =    0.0                 !
 ! A8    L(1,2,3,5,-2)         180.0064         -DE/DX =    0.0                 !
 ! D1    D(4,3,6,5)            159.5262         -DE/DX =    0.0001              !
 --------------------------------------------------------------------------------
 GradGradGradGradGradGradGradGradGradGradGradGradGradGradGradGradGradGrad

 Leave Link  103 at Wed Oct  7 13:31:36 2020, MaxMem=  2684354560 cpu:               1.5 elap:               0.5
 (Enter /udrive/faculty/rpeverati/g16/g16/l9999.exe)

 ----------------------------------------------------------------------

 Electric dipole moment (input orientation):
 (Debye = 10**-18 statcoulomb cm , SI units = C m)
                  (au)            (Debye)         (10**-30 SI)
   Tot        0.746758D+00      0.189807D+01      0.633128D+01
   x         -0.746757D+00     -0.189807D+01     -0.633127D+01
   y         -0.114248D-02     -0.290390D-02     -0.968636D-02
   z         -0.462706D-04     -0.117608D-03     -0.392299D-03

 Dipole polarizability, Alpha (input orientation).
 (esu units = cm**3 , SI units = C**2 m**2 J**-1)
 Alpha(0;0):
               (au)            (10**-24 esu)      (10**-40 SI)
   iso        0.470086D+02      0.696596D+01      0.775067D+01
   aniso      0.857413D+02      0.127055D+02      0.141368D+02
   xx         0.104169D+03      0.154363D+02      0.171752D+02
   yx         0.102243D+00      0.151508D-01      0.168576D-01
   yy         0.184160D+02      0.272898D+01      0.303639D+01
   zx        -0.243524D-01     -0.360865D-02     -0.401516D-02
   zy         0.122924D-01      0.182154D-02      0.202674D-02
   zz         0.184405D+02      0.273260D+01      0.304042D+01

 ----------------------------------------------------------------------

 Dipole orientation:
    17         -0.00121003         -0.00124451         -2.75746525
     9          0.00037984          0.00298986          0.55982897
     6          0.00050290          0.00279056          4.52254016
     1         -1.22744068         -1.61291539          4.73683725
     1          2.01364115         -0.25279284          4.73778022
     1         -0.78485169          1.87415439          4.73594911

 Electric dipole moment (dipole orientation):
 (Debye = 10**-18 statcoulomb cm , SI units = C m)
                  (au)            (Debye)         (10**-30 SI)
   Tot        0.746758D+00      0.189807D+01      0.633128D+01
   x          0.000000D+00      0.000000D+00      0.000000D+00
   y          0.000000D+00      0.000000D+00      0.000000D+00
   z          0.746758D+00      0.189807D+01      0.633128D+01

 Dipole polarizability, Alpha (dipole orientation).
 (esu units = cm**3 , SI units = C**2 m**2 J**-1)
 Alpha(0;0):
               (au)            (10**-24 esu)      (10**-40 SI)
   iso        0.470086D+02      0.696596D+01      0.775067D+01
   aniso      0.857413D+02      0.127055D+02      0.141368D+02
   xx         0.184404D+02      0.273259D+01      0.304042D+01
   yx         0.123689D-01      0.183288D-02      0.203935D-02
   yy         0.184160D+02      0.272896D+01      0.303638D+01
   zx         0.296011D-01      0.438644D-02      0.488057D-02
   zy         0.289979D-01      0.429705D-02      0.478111D-02
   zz         0.104169D+03      0.154363D+02      0.171752D+02

 ----------------------------------------------------------------------

 Test job not archived.
 1\1\GINC-NODE59\Freq\UM062X\6-31G(d)\C1H3Cl1F1(2)\RPEVERATI\07-Oct-202
 0\0\\#P Freq M062X/6-31G* 5D 7F Integral=UltraFineGrid SCF=(NoSymm,XQC
 ,MaxCyc=120) IOp(1/33=1) Geom=Check Guess=Read\\TS search on BH76.\\0,
 2\Cl,1.4591871041,0.0015748575,-0.0005509149\F,-0.2962508164,0.0011286
 149,0.0001850672\C,-2.3932246574,-0.0021851581,0.0001200948\H,-2.50527
 87655,-0.8563572169,-0.6509940042\H,-2.506981241,-0.1392379436,1.06521
 17516\H,-2.5076460466,0.9885587059,-0.4139631112\\Version=ES64L-G16Rev
 A.03\State=2-A\HF=-599.6702239\S2=0.767778\S2-1=0.\S2A=0.75011\RMSD=8.
 437e-10\RMSF=3.631e-05\ZeroPoint=0.0346049\Thermal=0.0397685\Dipole=-0
 .7467572,-0.0011425,-0.0000463\DipoleDeriv=-2.7137592,-0.0038438,0.000
 6479,-0.0006817,-0.003368,0.0000076,0.0011203,0.0000205,-0.0033234,4.0
 761277,0.0057029,-0.0010725,0.0033235,-0.1595866,0.0000245,-0.0012479,
 0.0000297,-0.1595517,-1.5960116,-0.0024458,0.0008822,-0.0024369,0.0934
 597,0.0006093,-0.0006803,0.0005426,0.0949549,0.0781571,-0.0166275,-0.0
 123449,0.0021498,0.0131128,-0.0356428,0.0012385,-0.0362516,0.0318526,0
 .078465,-0.003362,0.0199716,-0.0006067,0.059833,0.0084397,-0.0020435,0
 .0094726,-0.0141308,0.077021,0.0205761,-0.0080843,-0.0017479,-0.003450
 9,0.0265617,0.0016131,0.0261862,0.0501983\Polar=104.1693254,0.1022427,
 18.416041,-0.0243524,0.0122924,18.4404753\Quadrupole=2.7375469,-1.3686
 543,-1.3688926,0.0036689,-0.0013279,-0.0000826\PG=C01 [X(C1H3Cl1F1)]\N
 Imag=1\\0.08720440,0.00006624,0.00295970,-0.00002028,-0.00000074,0.002
 96078,0.00729208,-0.00003865,-0.00001786,-0.10857128,0.00009130,-0.004
 66706,0.00000068,-0.00017056,0.01081467,0.00001494,0.00000079,-0.00467
 037,0.00003931,-0.00001088,0.01079309,-0.09283045,-0.00003052,0.000039
 08,0.11266554,0.00010400,-0.00005878,0.04181426,-0.00016964,0.00149310
 ,0.00000121,0.00023696,-0.00740708,-0.00000648,-0.00088824,0.64929445,
 -0.00001727,0.00000145,0.00149426,0.00001899,-0.00000710,-0.00740825,-
 0.00035685,0.00004925,0.64905120,-0.00055651,0.00014696,0.00011270,-0.
 00379828,-0.00316791,-0.00240192,-0.02047362,-0.03092231,-0.02360144,0
 .01581485,-0.00020337,0.00010651,0.00012958,0.00114404,0.00050001,0.00
 031679,-0.02559958,-0.25588694,-0.15032746,0.02753093,0.26021864,-0.00
 015999,0.00012926,0.00003778,0.00088436,0.00032326,0.00034881,-0.01948
 276,-0.15029952,-0.17300257,0.02102942,0.16170978,0.17104202,-0.000547
 28,0.00002354,-0.00018465,-0.00378986,-0.00051292,0.00393616,-0.020596
 08,-0.00493252,0.03925454,0.00451233,0.00074759,-0.00401521,0.01591411
 ,-0.00005228,-0.00005927,-0.00003293,0.00020350,0.00010449,-0.00007428
 ,-0.00407460,-0.06377270,0.03947726,0.00335308,0.00783767,-0.02272800,
 0.00435172,0.05344053,0.00027535,-0.00003321,0.00020235,-0.00146941,-0
 .00008430,0.00076361,0.03256936,0.03936751,-0.36511795,0.00227073,0.00
 520278,-0.00951437,-0.03502851,-0.04240377,0.37773991,-0.00056223,-0.0
 0016755,0.00007100,-0.00379819,0.00365610,-0.00152971,-0.02057965,0.03
 667576,-0.01529797,0.00450123,-0.00361961,0.00174418,0.00450678,-0.003
 78143,0.00138249,0.01593206,0.00026775,0.00016701,-0.00009780,-0.00137
 528,0.00065498,-0.00022594,0.03048894,-0.32372083,0.11080659,0.0030592
 6,-0.01277588,0.01086523,0.00032259,0.00244929,-0.00204901,-0.03276326
 ,0.33322544,-0.00009275,-0.00009755,-0.00002480,0.00054460,-0.00022166
 ,0.00017310,-0.01271005,0.11088803,-0.10501669,0.00259051,-0.01703146,
 0.01108832,-0.00396233,0.02576172,-0.00407355,0.01363001,-0.11929908,0
 .09785363\\0.00006749,-0.00001182,-0.00000344,-0.00005738,0.00002338,0
 .00000596,0.00010213,-0.00001341,-0.00000650,-0.00004062,-0.00000020,0
 .00000440,-0.00004438,-0.00000594,0.00000268,-0.00002724,0.00000798,-0
 .00000310\\\@


 TO ERR IS HUMAN - AND TO BLAME IT ON A COMPUTER IS EVEN MORE SO.
 Job cpu time:       0 days  0 hours  4 minutes 14.3 seconds.
 Elapsed time:       0 days  0 hours  0 minutes 29.0 seconds.
 File lengths (MBytes):  RWF=      9 Int=      0 D2E=      0 Chk=      1 Scr=      1
 Normal termination of Gaussian 16 at Wed Oct  7 13:31:38 2020.
