 Entering Gaussian System, Link 0=g16
 Input=MN_27_clch3clcomp_BH76_M062X_631Gs.in
 Output=MN_27_clch3clcomp_BH76_M062X_631Gs.log
 Initial command:
 /udrive/faculty/rpeverati/g16/g16/l1.exe "/udrive/scratch-directories/gaussian09/rpeverati/Gau-21192.inp" -scrdir="/udrive/scratch-directories/gaussian09/rpeverati/"
 Entering Link 1 = /udrive/faculty/rpeverati/g16/g16/l1.exe PID=     21193.
  
 Copyright (c) 1988,1990,1992,1993,1995,1998,2003,2009,2016,
            Gaussian, Inc.  All Rights Reserved.
  
 This is part of the Gaussian(R) 16 program.  It is based on
 the Gaussian(R) 09 system (copyright 2009, Gaussian, Inc.),
 the Gaussian(R) 03 system (copyright 2003, Gaussian, Inc.),
 the Gaussian(R) 98 system (copyright 1998, Gaussian, Inc.),
 the Gaussian(R) 94 system (copyright 1995, Gaussian, Inc.),
 the Gaussian 92(TM) system (copyright 1992, Gaussian, Inc.),
 the Gaussian 90(TM) system (copyright 1990, Gaussian, Inc.),
 the Gaussian 88(TM) system (copyright 1988, Gaussian, Inc.),
 the Gaussian 86(TM) system (copyright 1986, Carnegie Mellon
 University), and the Gaussian 82(TM) system (copyright 1983,
 Carnegie Mellon University). Gaussian is a federally registered
 trademark of Gaussian, Inc.
  
 This software contains proprietary and confidential information,
 including trade secrets, belonging to Gaussian, Inc.
  
 This software is provided under written license and may be
 used, copied, transmitted, or stored only in accord with that
 written license.
  
 The following legend is applicable only to US Government
 contracts under FAR:
  
                    RESTRICTED RIGHTS LEGEND
  
 Use, reproduction and disclosure by the US Government is
 subject to restrictions as set forth in subparagraphs (a)
 and (c) of the Commercial Computer Software - Restricted
 Rights clause in FAR 52.227-19.
  
 Gaussian, Inc.
 340 Quinnipiac St., Bldg. 40, Wallingford CT 06492
  
  
 ---------------------------------------------------------------
 Warning -- This program may not be used in any manner that
 competes with the business of Gaussian, Inc. or will provide
 assistance to any competitor of Gaussian, Inc.  The licensee
 of this program is prohibited from giving any competitor of
 Gaussian, Inc. access to this program.  By using this program,
 the user acknowledges that Gaussian, Inc. is engaged in the
 business of creating and licensing software in the field of
 computational chemistry and represents and warrants to the
 licensee that it is not a competitor of Gaussian, Inc. and that
 it will not use this program in any manner prohibited above.
 ---------------------------------------------------------------
  

 Cite this work as:
 Gaussian 16, Revision A.03,
 M. J. Frisch, G. W. Trucks, H. B. Schlegel, G. E. Scuseria, 
 M. A. Robb, J. R. Cheeseman, G. Scalmani, V. Barone, 
 G. A. Petersson, H. Nakatsuji, X. Li, M. Caricato, A. V. Marenich, 
 J. Bloino, B. G. Janesko, R. Gomperts, B. Mennucci, H. P. Hratchian, 
 J. V. Ortiz, A. F. Izmaylov, J. L. Sonnenberg, D. Williams-Young, 
 F. Ding, F. Lipparini, F. Egidi, J. Goings, B. Peng, A. Petrone, 
 T. Henderson, D. Ranasinghe, V. G. Zakrzewski, J. Gao, N. Rega, 
 G. Zheng, W. Liang, M. Hada, M. Ehara, K. Toyota, R. Fukuda, 
 J. Hasegawa, M. Ishida, T. Nakajima, Y. Honda, O. Kitao, H. Nakai, 
 T. Vreven, K. Throssell, J. A. Montgomery, Jr., J. E. Peralta, 
 F. Ogliaro, M. J. Bearpark, J. J. Heyd, E. N. Brothers, K. N. Kudin, 
 V. N. Staroverov, T. A. Keith, R. Kobayashi, J. Normand, 
 K. Raghavachari, A. P. Rendell, J. C. Burant, S. S. Iyengar, 
 J. Tomasi, M. Cossi, J. M. Millam, M. Klene, C. Adamo, R. Cammi, 
 J. W. Ochterski, R. L. Martin, K. Morokuma, O. Farkas, 
 J. B. Foresman, and D. J. Fox, Gaussian, Inc., Wallingford CT, 2016.
 
 ******************************************
 Gaussian 16:  ES64L-G16RevA.03 25-Dec-2016
                 7-Oct-2020 
 ******************************************
 %NoSave
 %nproc=12
 Will use up to   12 processors via shared memory.
 %mem=20GB
 %chk=MN_27_clch3clcomp_BH76_M062X_631Gs
 ----------------------------------------------------------------------
 #P Opt(MaxCyc=100) M062X/6-31G* 5D 7F Integral=UltraFineGrid SCF=(NoSy
 mm,XQC,MaxCyc=120) IOp(1/33=1)
 ----------------------------------------------------------------------
 1/6=100,18=20,19=15,26=4,33=1,38=1/1,3;
 2/9=110,12=2,17=6,18=5,40=1/2;
 3/5=1,6=6,7=1,8=11,11=2,25=1,30=1,71=1,74=-55,75=-5/1,2,3;
 4/9=2/1;
 5/5=2,7=120,8=3,13=1,38=5/2,8;
 6/7=2,8=2,9=2,10=2,28=1/1;
 7//1,2,3,16;
 1/6=100,18=20,19=15,26=4,33=1/3(2);
 2/9=110/2;
 99//99;
 2/9=110/2;
 3/5=1,6=6,7=1,8=11,11=2,25=1,30=1,71=1,74=-55,75=-5/1,2,3;
 4/5=5,9=2,16=3,69=1/1;
 5/5=2,7=120,8=3,13=1,38=5/2,8;
 7//1,2,3,16;
 1/6=100,18=20,19=15,26=4,33=1/3(-5);
 2/9=110/2;
 6/7=2,8=2,9=2,10=2,19=2,28=1/1;
 99/9=1/99;
 Leave Link    1 at Wed Oct  7 13:28:23 2020, MaxMem=  2684354560 cpu:               9.9 elap:               1.0
 (Enter /udrive/faculty/rpeverati/g16/g16/l101.exe)
 ONIOM data not found on unit 2.
 ------------------
 TS search on BH76.
 ------------------
 TstMul:  ICh=    -1
 TstMul:  Mul=     1
 TstMul:  ICh=    -1
 TstMul:  Mul=     1
 Symbolic Z-matrix:
 Charge = -1 Multiplicity = 1
 Cl                    0.        0.       -2.21807 
 C                     0.        0.       -0.39967 
 H                    -0.51253   0.88773  -0.05771 
 H                    -0.51253  -0.88773  -0.05771 
 H                     1.02506   0.       -0.05771 
 Cl                    0.        0.        2.79088 
 
 RdStrC is calling ZToCFu for IStruc=1 NZ=     6.
 PrtBox:  NBox=     2 Levels=  1 BoxLen=    8.00 SMaxX=        9.47
          Shift=            0.968545            1.677569            4.191549
 Box      1 Number                   0 centers from      1 to      5:
 Box      2 Number                   1 centers from      6 to      6:
 After GenITR:
 ITRead=  0  0  0  0  0  0
 MicOpt= -1 -1 -1 -1 -1 -1
 Add virtual bond connecting atoms Cl6        and H3         Dist= 5.72D+00.
 Add virtual bond connecting atoms Cl6        and H4         Dist= 5.72D+00.
 Add virtual bond connecting atoms Cl6        and H5         Dist= 5.72D+00.
 ITRead=  0  0  0  0  0  0
 MicOpt= -1 -1 -1 -1 -1 -1
 NAtoms=      6 NQM=        6 NQMF=       0 NMMI=      0 NMMIF=      0
                NMic=       0 NMicF=      0.
                    Isotopes and Nuclear Properties:
 (Nuclear quadrupole moments (NQMom) in fm**2, nuclear magnetic moments (NMagM)
  in nuclear magnetons)

  Atom         1           2           3           4           5           6
 IAtWgt=          35          12           1           1           1          35
 AtmWgt=  34.9688527  12.0000000   1.0078250   1.0078250   1.0078250  34.9688527
 NucSpn=           3           0           1           1           1           3
 AtZEff=   0.0000000   0.0000000   0.0000000   0.0000000   0.0000000   0.0000000
 NQMom=   -8.1650000   0.0000000   0.0000000   0.0000000   0.0000000  -8.1650000
 NMagM=    0.8218740   0.0000000   2.7928460   2.7928460   2.7928460   0.8218740
 AtZNuc=  17.0000000   6.0000000   1.0000000   1.0000000   1.0000000  17.0000000
 No MM parameters found.
 Leave Link  101 at Wed Oct  7 13:28:25 2020, MaxMem=  2684354560 cpu:              19.3 elap:               1.7
 (Enter /udrive/faculty/rpeverati/g16/g16/l103.exe)

 GradGradGradGradGradGradGradGradGradGradGradGradGradGradGradGradGradGrad
 Berny optimization.
 Optmz: redundant internal coordinate code flag= 1
 Initialization pass.
                           ----------------------------
                           !    Initial Parameters    !
                           ! (Angstroms and Degrees)  !
 --------------------------                            --------------------------
 ! Name  Definition              Value          Derivative Info.                !
 --------------------------------------------------------------------------------
 ! R1    R(1,2)                  1.8184         estimate D2E/DX2                !
 ! R2    R(2,3)                  1.0806         estimate D2E/DX2                !
 ! R3    R(2,4)                  1.0806         estimate D2E/DX2                !
 ! R4    R(2,5)                  1.0806         estimate D2E/DX2                !
 ! R5    R(3,6)                  3.0274         estimate D2E/DX2                !
 ! R6    R(4,6)                  3.0274         estimate D2E/DX2                !
 ! R7    R(5,6)                  3.0274         estimate D2E/DX2                !
 ! A1    A(1,2,3)              108.4482         estimate D2E/DX2                !
 ! A2    A(1,2,4)              108.4482         estimate D2E/DX2                !
 ! A3    A(1,2,5)              108.4482         estimate D2E/DX2                !
 ! A4    A(3,2,4)              110.4746         estimate D2E/DX2                !
 ! A5    A(3,2,5)              110.4746         estimate D2E/DX2                !
 ! A6    A(4,2,5)              110.4746         estimate D2E/DX2                !
 ! A7    A(2,3,6)               88.657          estimate D2E/DX2                !
 ! A8    A(2,4,6)               88.657          estimate D2E/DX2                !
 ! A9    A(2,5,6)               88.657          estimate D2E/DX2                !
 ! A10   A(3,6,4)               34.1029         estimate D2E/DX2                !
 ! A11   A(3,6,5)               34.1029         estimate D2E/DX2                !
 ! A12   A(4,6,5)               34.1029         estimate D2E/DX2                !
 ! D1    D(1,2,3,6)            180.0            estimate D2E/DX2                !
 ! D2    D(4,2,3,6)             61.2727         estimate D2E/DX2                !
 ! D3    D(5,2,3,6)            -61.2727         estimate D2E/DX2                !
 ! D4    D(1,2,4,6)            180.0            estimate D2E/DX2                !
 ! D5    D(3,2,4,6)            -61.2727         estimate D2E/DX2                !
 ! D6    D(5,2,4,6)             61.2727         estimate D2E/DX2                !
 ! D7    D(1,2,5,6)            180.0            estimate D2E/DX2                !
 ! D8    D(3,2,5,6)             61.2727         estimate D2E/DX2                !
 ! D9    D(4,2,5,6)            -61.2727         estimate D2E/DX2                !
 ! D10   D(2,3,6,4)            -31.533          estimate D2E/DX2                !
 ! D11   D(2,3,6,5)             31.533          estimate D2E/DX2                !
 ! D12   D(2,4,6,3)             31.533          estimate D2E/DX2                !
 ! D13   D(2,4,6,5)            -31.533          estimate D2E/DX2                !
 ! D14   D(2,5,6,3)            -31.533          estimate D2E/DX2                !
 ! D15   D(2,5,6,4)             31.533          estimate D2E/DX2                !
 --------------------------------------------------------------------------------
 Maximum allowed force set to 1.00D+20.
 Trust Radius=3.00D-01 FncErr=1.00D-07 GrdErr=1.00D-06 EigMax=2.50D+02 EigMin=1.00D-04
 Number of steps in this run=    100 maximum allowed number of steps=    100.
 GradGradGradGradGradGradGradGradGradGradGradGradGradGradGradGradGradGrad

 Leave Link  103 at Wed Oct  7 13:28:26 2020, MaxMem=  2684354560 cpu:               1.2 elap:               0.6
 (Enter /udrive/faculty/rpeverati/g16/g16/l202.exe)
                          Input orientation:                          
 ---------------------------------------------------------------------
 Center     Atomic      Atomic             Coordinates (Angstroms)
 Number     Number       Type             X           Y           Z
 ---------------------------------------------------------------------
      1         17           0        0.000000    0.000000   -2.218072
      2          6           0        0.000000    0.000000   -0.399666
      3          1           0       -0.512532    0.887731   -0.057714
      4          1           0       -0.512532   -0.887731   -0.057714
      5          1           0        1.025064    0.000000   -0.057714
      6         17           0        0.000000    0.000000    2.790881
 ---------------------------------------------------------------------
                    Distance matrix (angstroms):
                    1          2          3          4          5
     1  Cl   0.000000
     2  C    1.818406   0.000000
     3  H    2.391214   1.080596   0.000000
     4  H    2.391214   1.080596   1.775463   0.000000
     5  H    2.391214   1.080596   1.775463   1.775463   0.000000
     6  Cl   5.008953   3.190547   3.027417   3.027417   3.027417
                    6
     6  Cl   0.000000
 Stoichiometry    CH3Cl2(1-)
 Framework group  C3V[C3(ClCCl),3SGV(H)]
 Deg. of freedom     4
 Full point group                 C3V     NOp   6
 Largest Abelian subgroup         CS      NOp   2
 Largest concise Abelian subgroup CS      NOp   2
                         Standard orientation:                         
 ---------------------------------------------------------------------
 Center     Atomic      Atomic             Coordinates (Angstroms)
 Number     Number       Type             X           Y           Z
 ---------------------------------------------------------------------
      1         17           0        0.000000    0.000000   -2.384738
      2          6           0        0.000000    0.000000   -0.566331
      3          1           0       -0.000000    1.025064   -0.224380
      4          1           0       -0.887731   -0.512532   -0.224380
      5          1           0        0.887731   -0.512532   -0.224380
      6         17           0        0.000000    0.000000    2.624216
 ---------------------------------------------------------------------
 Rotational constants (GHZ):         159.0775662           1.1350196           1.1350196
 Leave Link  202 at Wed Oct  7 13:28:27 2020, MaxMem=  2684354560 cpu:               1.0 elap:               0.6
 (Enter /udrive/faculty/rpeverati/g16/g16/l301.exe)
 Standard basis: 6-31G(d) (5D, 7F)
 Ernie: Thresh=  0.10000D-02 Tol=  0.10000D-05 Strict=F.
 There are    43 symmetry adapted cartesian basis functions of A'  symmetry.
 There are    16 symmetry adapted cartesian basis functions of A"  symmetry.
 There are    40 symmetry adapted basis functions of A'  symmetry.
 There are    16 symmetry adapted basis functions of A"  symmetry.
    56 basis functions,   144 primitive gaussians,    59 cartesian basis functions
    22 alpha electrons       22 beta electrons
       nuclear repulsion energy       107.0422334332 Hartrees.
 IExCor= 4336 DFT=T Ex+Corr=M062X ExCW=0 ScaHFX=  0.540000
 ScaDFX=  1.000000  1.000000  1.000000  1.000000 ScalE2=  1.000000  1.000000
 IRadAn=      5 IRanWt=     -1 IRanGd=            0 ICorTp=0 IEmpDi=  4
 NAtoms=    6 NActive=    6 NUniq=    4 SFac= 2.25D+00 NAtFMM=   60 NAOKFM=F Big=F
 Integral buffers will be    131072 words long.
 Raffenetti 2 integral format.
 Two-electron integral symmetry is turned on.
 Leave Link  301 at Wed Oct  7 13:28:28 2020, MaxMem=  2684354560 cpu:               2.4 elap:               0.6
 (Enter /udrive/faculty/rpeverati/g16/g16/l302.exe)
 NPDir=0 NMtPBC=     1 NCelOv=     1 NCel=       1 NClECP=     1 NCelD=      1
         NCelK=      1 NCelE2=     1 NClLst=     1 CellRange=     0.0.
 One-electron integrals computed using PRISM.
 One-electron integral symmetry used in STVInt
 NBasis=    56 RedAO= T EigKep=  1.81D-02  NBF=    40    16
 NBsUse=    56 1.00D-06 EigRej= -1.00D+00 NBFU=    40    16
 Precomputing XC quadrature grid using
 IXCGrd= 4 IRadAn=           5 IRanWt=          -1 IRanGd=           0 AccXCQ= 0.00D+00.
 Generated NRdTot=       0 NPtTot=           0 NUsed=           0 NTot=          32
 NSgBfM=    59    59    59    59    59 MxSgAt=     6 MxSgA2=     6.
 Leave Link  302 at Wed Oct  7 13:28:29 2020, MaxMem=  2684354560 cpu:               4.7 elap:               1.0
 (Enter /udrive/faculty/rpeverati/g16/g16/l303.exe)
 DipDrv:  MaxL=1.
 Leave Link  303 at Wed Oct  7 13:28:31 2020, MaxMem=  2684354560 cpu:               5.1 elap:               1.0
 (Enter /udrive/faculty/rpeverati/g16/g16/l401.exe)
 SCF N**3 symmetry information disabled.
 ExpMin= 1.43D-01 ExpMax= 2.52D+04 ExpMxC= 3.78D+03 IAcc=3 IRadAn=         5 AccDes= 0.00D+00
 Harris functional with IExCor= 1009 and IRadAn=       5 diagonalized for initial guess.
 HarFok:  IExCor= 1009 AccDes= 0.00D+00 IRadAn=         5 IDoV= 1 UseB2=F ITyADJ=14
 ICtDFT=  3500011 ScaDFX=  1.000000  1.000000  1.000000  1.000000
 FoFCou: FMM=F IPFlag=           0 FMFlag=      100000 FMFlg1=           0
         NFxFlg=           0 DoJE=T BraDBF=F KetDBF=T FulRan=T
         wScrn=  0.000000 ICntrl=       500 IOpCl=  0 I1Cent=   200000004 NGrid=           0
         NMat0=    1 NMatS0=      1 NMatT0=    0 NMatD0=    1 NMtDS0=    0 NMtDT0=    0
 Petite list used in FoFCou.
 Harris En= -959.914536150955    
 JPrj=0 DoOrth=F DoCkMO=F.
 Initial guess orbital symmetries:
       Occupied  (A1) (A1) (A1) (A1) (A1) (A1) (E) (E) (A1) (E)
                 (E) (A1) (A1) (A1) (E) (E) (A1) (E) (E) (A1) (E)
                 (E)
       Virtual   (A1) (A1) (E) (E) (A1) (A1) (A1) (E) (E) (E) (E)
                 (A1) (E) (E) (A1) (E) (E) (A1) (E) (E) (E) (E)
                 (E) (E) (E) (E) (A1) (A1) (A1) (E) (E) (A1) (E)
                 (E)
 The electronic state of the initial guess is 1-A1.
 Leave Link  401 at Wed Oct  7 13:28:32 2020, MaxMem=  2684354560 cpu:               5.5 elap:               0.9
 (Enter /udrive/faculty/rpeverati/g16/g16/l502.exe)
 Keep R1 ints in memory in symmetry-blocked form, NReq=11845073.
 FoFCou: FMM=F IPFlag=           0 FMFlag=           0 FMFlg1=           0
         NFxFlg=           0 DoJE=F BraDBF=F KetDBF=F FulRan=T
         wScrn=  0.000000 ICntrl=       600 IOpCl=  0 I1Cent=           0 NGrid=           0
         NMat0=    1 NMatS0=   1596 NMatT0=    0 NMatD0=    1 NMtDS0=    0 NMtDT0=    0
 Petite list used in FoFCou.
 Closed shell SCF:
 Using DIIS extrapolation, IDIIS=  1040.
 NGot=  2684354560 LenX=  2683679425 LenY=  2683675503
 Requested convergence on RMS density matrix=1.00D-08 within 120 cycles.
 Requested convergence on MAX density matrix=1.00D-06.
 Requested convergence on             energy=1.00D-06.
 No special actions if energy rises.
 Integral accuracy reduced to 1.0D-05 until final iterations.

 Cycle   1  Pass 0  IDiag  1:
 E= -960.191851578524    
 DIIS: error= 4.20D-02 at cycle   1 NSaved=   1.
 NSaved= 1 IEnMin= 1 EnMin= -960.191851578524     IErMin= 1 ErrMin= 4.20D-02
 ErrMax= 4.20D-02  0.00D+00 EMaxC= 1.00D-01 BMatC= 8.28D-02 BMatP= 8.28D-02
 IDIUse=3 WtCom= 5.80D-01 WtEn= 4.20D-01
 Coeff-Com:  0.100D+01
 Coeff-En:   0.100D+01
 Coeff:      0.100D+01
 Gap=     0.299 Goal=   None    Shift=    0.000
 GapD=    0.299 DampG=1.000 DampE=0.500 DampFc=0.5000 IDamp=-1.
 Damping current iteration by 5.00D-01
 RMSDP=9.33D-03 MaxDP=1.37D-01              OVMax= 2.00D-01

 Cycle   2  Pass 0  IDiag  1:
 E= -960.236134998807     Delta-E=       -0.044283420283 Rises=F Damp=T
 DIIS: error= 9.60D-03 at cycle   2 NSaved=   2.
 NSaved= 2 IEnMin= 2 EnMin= -960.236134998807     IErMin= 2 ErrMin= 9.60D-03
 ErrMax= 9.60D-03  0.00D+00 EMaxC= 1.00D-01 BMatC= 7.08D-03 BMatP= 8.28D-02
 IDIUse=3 WtCom= 9.04D-01 WtEn= 9.60D-02
 Coeff-Com: -0.134D+00 0.113D+01
 Coeff-En:   0.000D+00 0.100D+01
 Coeff:     -0.121D+00 0.112D+01
 Gap=     0.284 Goal=   None    Shift=    0.000
 RMSDP=1.61D-03 MaxDP=2.20D-02 DE=-4.43D-02 OVMax= 8.42D-02

 Cycle   3  Pass 0  IDiag  1:
 E= -960.275778544331     Delta-E=       -0.039643545524 Rises=F Damp=F
 DIIS: error= 2.85D-03 at cycle   3 NSaved=   3.
 NSaved= 3 IEnMin= 3 EnMin= -960.275778544331     IErMin= 3 ErrMin= 2.85D-03
 ErrMax= 2.85D-03  0.00D+00 EMaxC= 1.00D-01 BMatC= 4.96D-04 BMatP= 7.08D-03
 IDIUse=3 WtCom= 9.72D-01 WtEn= 2.85D-02
 Coeff-Com: -0.623D-01 0.196D+00 0.866D+00
 Coeff-En:   0.000D+00 0.000D+00 0.100D+01
 Coeff:     -0.606D-01 0.191D+00 0.870D+00
 Gap=     0.296 Goal=   None    Shift=    0.000
 RMSDP=5.87D-04 MaxDP=1.00D-02 DE=-3.96D-02 OVMax= 1.32D-02

 Cycle   4  Pass 0  IDiag  1:
 E= -960.276263461924     Delta-E=       -0.000484917593 Rises=F Damp=F
 DIIS: error= 1.00D-03 at cycle   4 NSaved=   4.
 NSaved= 4 IEnMin= 4 EnMin= -960.276263461924     IErMin= 4 ErrMin= 1.00D-03
 ErrMax= 1.00D-03  0.00D+00 EMaxC= 1.00D-01 BMatC= 8.01D-05 BMatP= 4.96D-04
 IDIUse=3 WtCom= 9.90D-01 WtEn= 1.00D-02
 Coeff-Com: -0.122D-01 0.262D-01 0.323D+00 0.663D+00
 Coeff-En:   0.000D+00 0.000D+00 0.000D+00 0.100D+01
 Coeff:     -0.121D-01 0.259D-01 0.320D+00 0.666D+00
 Gap=     0.292 Goal=   None    Shift=    0.000
 RMSDP=2.10D-04 MaxDP=3.76D-03 DE=-4.85D-04 OVMax= 2.94D-03

 Cycle   5  Pass 0  IDiag  1:
 E= -960.276350902442     Delta-E=       -0.000087440518 Rises=F Damp=F
 DIIS: error= 1.46D-04 at cycle   5 NSaved=   5.
 NSaved= 5 IEnMin= 5 EnMin= -960.276350902442     IErMin= 5 ErrMin= 1.46D-04
 ErrMax= 1.46D-04  0.00D+00 EMaxC= 1.00D-01 BMatC= 1.28D-06 BMatP= 8.01D-05
 IDIUse=3 WtCom= 9.99D-01 WtEn= 1.46D-03
 Coeff-Com:  0.124D-02-0.505D-02 0.304D-01 0.115D+00 0.858D+00
 Coeff-En:   0.000D+00 0.000D+00 0.000D+00 0.000D+00 0.100D+01
 Coeff:      0.123D-02-0.504D-02 0.303D-01 0.115D+00 0.859D+00
 Gap=     0.293 Goal=   None    Shift=    0.000
 RMSDP=3.70D-05 MaxDP=5.86D-04 DE=-8.74D-05 OVMax= 3.91D-04

 Cycle   6  Pass 0  IDiag  1:
 E= -960.276352721690     Delta-E=       -0.000001819249 Rises=F Damp=F
 DIIS: error= 5.29D-05 at cycle   6 NSaved=   6.
 NSaved= 6 IEnMin= 6 EnMin= -960.276352721690     IErMin= 6 ErrMin= 5.29D-05
 ErrMax= 5.29D-05  0.00D+00 EMaxC= 1.00D-01 BMatC= 8.21D-08 BMatP= 1.28D-06
 IDIUse=1 WtCom= 1.00D+00 WtEn= 0.00D+00
 Coeff-Com:  0.129D-02-0.301D-02-0.201D-01-0.437D-01 0.962D-01 0.969D+00
 Coeff:      0.129D-02-0.301D-02-0.201D-01-0.437D-01 0.962D-01 0.969D+00
 Gap=     0.293 Goal=   None    Shift=    0.000
 RMSDP=9.90D-06 MaxDP=1.68D-04 DE=-1.82D-06 OVMax= 1.62D-04

 Initial convergence to 1.0D-05 achieved.  Increase integral accuracy.
 Cycle   7  Pass 1  IDiag  1:
 E= -960.276691721311     Delta-E=       -0.000338999620 Rises=F Damp=F
 DIIS: error= 6.83D-05 at cycle   1 NSaved=   1.
 NSaved= 1 IEnMin= 1 EnMin= -960.276691721311     IErMin= 1 ErrMin= 6.83D-05
 ErrMax= 6.83D-05  0.00D+00 EMaxC= 1.00D-01 BMatC= 1.88D-07 BMatP= 1.88D-07
 IDIUse=1 WtCom= 1.00D+00 WtEn= 0.00D+00
 Coeff-Com:  0.100D+01
 Coeff:      0.100D+01
 Gap=     0.293 Goal=   None    Shift=    0.000
 RMSDP=9.90D-06 MaxDP=1.68D-04 DE=-3.39D-04 OVMax= 1.41D-04

 Cycle   8  Pass 1  IDiag  1:
 E= -960.276691857660     Delta-E=       -0.000000136349 Rises=F Damp=F
 DIIS: error= 1.97D-05 at cycle   2 NSaved=   2.
 NSaved= 2 IEnMin= 2 EnMin= -960.276691857660     IErMin= 2 ErrMin= 1.97D-05
 ErrMax= 1.97D-05  0.00D+00 EMaxC= 1.00D-01 BMatC= 1.97D-08 BMatP= 1.88D-07
 IDIUse=1 WtCom= 1.00D+00 WtEn= 0.00D+00
 Coeff-Com:  0.190D+00 0.810D+00
 Coeff:      0.190D+00 0.810D+00
 Gap=     0.293 Goal=   None    Shift=    0.000
 RMSDP=4.88D-06 MaxDP=9.79D-05 DE=-1.36D-07 OVMax= 7.19D-05

 Cycle   9  Pass 1  IDiag  1:
 E= -960.276691878852     Delta-E=       -0.000000021193 Rises=F Damp=F
 DIIS: error= 7.19D-06 at cycle   3 NSaved=   3.
 NSaved= 3 IEnMin= 3 EnMin= -960.276691878852     IErMin= 3 ErrMin= 7.19D-06
 ErrMax= 7.19D-06  0.00D+00 EMaxC= 1.00D-01 BMatC= 2.74D-09 BMatP= 1.97D-08
 IDIUse=1 WtCom= 1.00D+00 WtEn= 0.00D+00
 Coeff-Com: -0.130D-01 0.247D+00 0.766D+00
 Coeff:     -0.130D-01 0.247D+00 0.766D+00
 Gap=     0.293 Goal=   None    Shift=    0.000
 RMSDP=1.45D-06 MaxDP=3.03D-05 DE=-2.12D-08 OVMax= 1.91D-05

 Cycle  10  Pass 1  IDiag  1:
 E= -960.276691882193     Delta-E=       -0.000000003341 Rises=F Damp=F
 DIIS: error= 1.52D-06 at cycle   4 NSaved=   4.
 NSaved= 4 IEnMin= 4 EnMin= -960.276691882193     IErMin= 4 ErrMin= 1.52D-06
 ErrMax= 1.52D-06  0.00D+00 EMaxC= 1.00D-01 BMatC= 9.63D-11 BMatP= 2.74D-09
 IDIUse=1 WtCom= 1.00D+00 WtEn= 0.00D+00
 Coeff-Com: -0.881D-02 0.491D-01 0.230D+00 0.730D+00
 Coeff:     -0.881D-02 0.491D-01 0.230D+00 0.730D+00
 Gap=     0.293 Goal=   None    Shift=    0.000
 RMSDP=2.39D-07 MaxDP=2.48D-06 DE=-3.34D-09 OVMax= 3.87D-06

 Cycle  11  Pass 1  IDiag  1:
 E= -960.276691882293     Delta-E=       -0.000000000100 Rises=F Damp=F
 DIIS: error= 5.22D-07 at cycle   5 NSaved=   5.
 NSaved= 5 IEnMin= 5 EnMin= -960.276691882293     IErMin= 5 ErrMin= 5.22D-07
 ErrMax= 5.22D-07  0.00D+00 EMaxC= 1.00D-01 BMatC= 1.16D-11 BMatP= 9.63D-11
 IDIUse=1 WtCom= 1.00D+00 WtEn= 0.00D+00
 Coeff-Com: -0.859D-03-0.147D-01-0.179D-01 0.242D+00 0.791D+00
 Coeff:     -0.859D-03-0.147D-01-0.179D-01 0.242D+00 0.791D+00
 Gap=     0.293 Goal=   None    Shift=    0.000
 RMSDP=7.38D-08 MaxDP=1.63D-06 DE=-1.00D-10 OVMax= 1.83D-06

 Cycle  12  Pass 1  IDiag  1:
 E= -960.276691882306     Delta-E=       -0.000000000013 Rises=F Damp=F
 DIIS: error= 1.10D-07 at cycle   6 NSaved=   6.
 NSaved= 6 IEnMin= 6 EnMin= -960.276691882306     IErMin= 6 ErrMin= 1.10D-07
 ErrMax= 1.10D-07  0.00D+00 EMaxC= 1.00D-01 BMatC= 4.38D-13 BMatP= 1.16D-11
 IDIUse=1 WtCom= 1.00D+00 WtEn= 0.00D+00
 Coeff-Com:  0.132D-03-0.707D-02-0.170D-01 0.331D-01 0.230D+00 0.760D+00
 Coeff:      0.132D-03-0.707D-02-0.170D-01 0.331D-01 0.230D+00 0.760D+00
 Gap=     0.293 Goal=   None    Shift=    0.000
 RMSDP=1.48D-08 MaxDP=2.30D-07 DE=-1.32D-11 OVMax= 1.32D-07

 Cycle  13  Pass 1  IDiag  1:
 E= -960.276691882306     Delta-E=        0.000000000000 Rises=F Damp=F
 DIIS: error= 1.22D-08 at cycle   7 NSaved=   7.
 NSaved= 7 IEnMin= 6 EnMin= -960.276691882306     IErMin= 7 ErrMin= 1.22D-08
 ErrMax= 1.22D-08  0.00D+00 EMaxC= 1.00D-01 BMatC= 6.94D-15 BMatP= 4.38D-13
 IDIUse=1 WtCom= 1.00D+00 WtEn= 0.00D+00
 Coeff-Com:  0.450D-04 0.164D-03-0.282D-03-0.760D-02-0.105D-01 0.622D-01
 Coeff-Com:  0.956D+00
 Coeff:      0.450D-04 0.164D-03-0.282D-03-0.760D-02-0.105D-01 0.622D-01
 Coeff:      0.956D+00
 Gap=     0.293 Goal=   None    Shift=    0.000
 RMSDP=3.72D-09 MaxDP=6.40D-08 DE= 0.00D+00 OVMax= 5.93D-08

 SCF Done:  E(RM062X) =  -960.276691882     A.U. after   13 cycles
            NFock= 13  Conv=0.37D-08     -V/T= 2.0015
 KE= 9.588271758056D+02 PE=-2.505522434969D+03 EE= 4.793763338478D+02
 Leave Link  502 at Wed Oct  7 13:28:36 2020, MaxMem=  2684354560 cpu:              34.6 elap:               3.3
 (Enter /udrive/faculty/rpeverati/g16/g16/l508.exe)
 QCSCF skips out because SCF is already converged.
 Leave Link  508 at Wed Oct  7 13:28:37 2020, MaxMem=  2684354560 cpu:               0.7 elap:               0.6
 (Enter /udrive/faculty/rpeverati/g16/g16/l601.exe)
 Copying SCF densities to generalized density rwf, IOpCl= 0 IROHF=0.

 **********************************************************************

            Population analysis using the SCF density.

 **********************************************************************

 Orbital symmetries:
       Occupied  (A1) (A1) (A1) (A1) (A1) (A1) (E) (E) (A1) (E)
                 (E) (A1) (A1) (A1) (E) (E) (A1) (E) (E) (A1) (E)
                 (E)
       Virtual   (A1) (A1) (E) (E) (A1) (A1) (E) (E) (A1) (E) (E)
                 (A1) (E) (E) (A1) (E) (E) (E) (E) (A1) (E) (E)
                 (A1) (E) (E) (E) (E) (A1) (A1) (E) (E) (A1) (E)
                 (E)
 The electronic state is 1-A1.
 Alpha  occ. eigenvalues -- -102.50013-102.31326 -10.44325  -9.66450  -9.47202
 Alpha  occ. eigenvalues --   -7.38590  -7.37998  -7.37998  -7.19038  -7.19009
 Alpha  occ. eigenvalues --   -7.19009  -0.80809  -0.62026  -0.55892  -0.36788
 Alpha  occ. eigenvalues --   -0.36788  -0.32747  -0.22909  -0.22909  -0.07508
 Alpha  occ. eigenvalues --   -0.07430  -0.07430
 Alpha virt. eigenvalues --    0.21865   0.30910   0.34847   0.34847   0.57350
 Alpha virt. eigenvalues --    0.60319   0.62846   0.62846   0.67354   0.70867
 Alpha virt. eigenvalues --    0.70867   0.75352   0.77768   0.77768   0.99811
 Alpha virt. eigenvalues --    1.05694   1.05694   1.10498   1.10498   1.11182
 Alpha virt. eigenvalues --    1.13858   1.13858   1.23741   1.26418   1.26418
 Alpha virt. eigenvalues --    1.26791   1.26791   1.29851   1.44858   1.88371
 Alpha virt. eigenvalues --    1.88371   2.34811   2.43132   2.43132
          Condensed to atoms (all electrons):
               1          2          3          4          5          6
     1  Cl  17.189941   0.147982  -0.043890  -0.043890  -0.043890   0.001997
     2  C    0.147982   5.231990   0.380810   0.380810   0.380810  -0.006359
     3  H   -0.043890   0.380810   0.474795  -0.021106  -0.021106   0.005025
     4  H   -0.043890   0.380810  -0.021106   0.474795  -0.021106   0.005025
     5  H   -0.043890   0.380810  -0.021106  -0.021106   0.474795   0.005025
     6  Cl   0.001997  -0.006359   0.005025   0.005025   0.005025  17.941408
 Mulliken charges:
               1
     1  Cl  -0.208251
     2  C   -0.516042
     3  H    0.225471
     4  H    0.225471
     5  H    0.225471
     6  Cl  -0.952121
 Sum of Mulliken charges =  -1.00000
 Mulliken charges with hydrogens summed into heavy atoms:
               1
     1  Cl  -0.208251
     2  C    0.160371
     6  Cl  -0.952121
 Electronic spatial extent (au):  <R**2>=            891.3002
 Charge=             -1.0000 electrons
 Dipole moment (field-independent basis, Debye):
    X=             -0.0000    Y=             -0.0000    Z=             -8.5353  Tot=              8.5353
 Quadrupole moment (field-independent basis, Debye-Ang):
   XX=            -35.5409   YY=            -35.5409   ZZ=            -75.9567
   XY=             -0.0000   XZ=             -0.0000   YZ=              0.0000
 Traceless Quadrupole moment (field-independent basis, Debye-Ang):
   XX=             13.4719   YY=             13.4719   ZZ=            -26.9439
   XY=             -0.0000   XZ=             -0.0000   YZ=              0.0000
 Octapole moment (field-independent basis, Debye-Ang**2):
  XXX=              0.0000  YYY=              0.8436  ZZZ=            -80.8464  XYY=              0.0000
  XXY=             -0.8436  XXZ=             -5.0093  XZZ=              0.0000  YZZ=              0.0000
  YYZ=             -5.0093  XYZ=              0.0000
 Hexadecapole moment (field-independent basis, Debye-Ang**3):
 XXXX=            -46.8562 YYYY=            -46.8562 ZZZZ=          -1378.6796 XXXY=              0.0000
 XXXZ=              0.0000 YYYX=              0.0000 YYYZ=             -0.1980 ZZZX=              0.0000
 ZZZY=             -0.0000 XXYY=            -15.6187 XXZZ=           -201.2069 YYZZ=           -201.2069
 XXYZ=              0.1980 YYXZ=             -0.0000 ZZXY=             -0.0000
 N-N= 1.070422334332D+02 E-N=-2.505522435517D+03  KE= 9.588271758056D+02
 No NMR shielding tensors so no spin-rotation constants.
 Leave Link  601 at Wed Oct  7 13:28:38 2020, MaxMem=  2684354560 cpu:               3.9 elap:               0.8
 (Enter /udrive/faculty/rpeverati/g16/g16/l701.exe)
 ... and contract with generalized density number  0.
 Compute integral first derivatives.
 Leave Link  701 at Wed Oct  7 13:28:39 2020, MaxMem=  2684354560 cpu:               4.8 elap:               0.6
 (Enter /udrive/faculty/rpeverati/g16/g16/l702.exe)
 L702 exits ... SP integral derivatives will be done elsewhere.
 Leave Link  702 at Wed Oct  7 13:28:40 2020, MaxMem=  2684354560 cpu:               1.7 elap:               0.5
 (Enter /udrive/faculty/rpeverati/g16/g16/l703.exe)
 Integral derivatives from FoFJK, PRISM(SPDF).
 Compute integral first derivatives, UseDBF=F ICtDFT=           0.
 Calling FoFJK, ICntrl=      2127 FMM=F ISym2X=1 I1Cent= 0 IOpClX= 0 NMat=1 NMatS=1 NMatT=0.
 FoFJK:  IHMeth= 1 ICntrl=    2127 DoSepK=F KAlg= 0 I1Cent=           0 FoldK=F
 IRaf=         0 NMat=       1 IRICut=       1 DoRegI=T DoRafI=F ISym2E= 1 IDoP0=0 IntGTp=1.
 FoFCou: FMM=F IPFlag=           0 FMFlag=      100000 FMFlg1=         800
         NFxFlg=           0 DoJE=F BraDBF=F KetDBF=F FulRan=T
         wScrn=  0.000000 ICntrl=      2127 IOpCl=  0 I1Cent=           0 NGrid=           0
         NMat0=    1 NMatS0=      1 NMatT0=    0 NMatD0=    1 NMtDS0=    0 NMtDT0=    0
 Petite list used in FoFCou.
 Leave Link  703 at Wed Oct  7 13:28:41 2020, MaxMem=  2684354560 cpu:               8.0 elap:               0.9
 (Enter /udrive/faculty/rpeverati/g16/g16/l716.exe)
 Dipole        = 0.00000000D+00-2.22044605D-16-3.35804355D+00
 ***** Axes restored to original set *****
 -------------------------------------------------------------------
 Center     Atomic                   Forces (Hartrees/Bohr)
 Number     Number              X              Y              Z
 -------------------------------------------------------------------
      1       17           0.000000000   -0.000000000   -0.003394378
      2        6          -0.000000000    0.000000000   -0.000316394
      3        1          -0.001355524    0.002347837    0.002152894
      4        1          -0.001355524   -0.002347837    0.002152894
      5        1           0.002711049    0.000000000    0.002152894
      6       17           0.000000000    0.000000000   -0.002747911
 -------------------------------------------------------------------
 Cartesian Forces:  Max     0.003394378 RMS     0.001750034
 Leave Link  716 at Wed Oct  7 13:28:42 2020, MaxMem=  2684354560 cpu:               2.5 elap:               0.8
 (Enter /udrive/faculty/rpeverati/g16/g16/l103.exe)

 GradGradGradGradGradGradGradGradGradGradGradGradGradGradGradGradGradGrad
 Berny optimization.
 Optmz: redundant internal coordinate code flag= 1
 FormGI is forming the generalized inverse of G from B-inverse, IUseBI=4.
 Internal  Forces:  Max     0.003394378 RMS     0.001125312
 Search for a local minimum.
 Step number   1 out of a maximum of  100
 All quantities printed in internal units (Hartrees-Bohrs-Radians)
 RMS Force = .11253D-02 SwitMx=.10000D-02 MixMth= 1
 Mixed Optimization -- RFO/linear search
 Second derivative matrix not updated -- first step.
 The second derivative matrix:
                          R1        R2        R3        R4        R5
           R1           0.24719
           R2           0.00000   0.35922
           R3           0.00000   0.00000   0.35922
           R4           0.00000   0.00000   0.00000   0.35922
           R5           0.00000   0.00000   0.00000   0.00000   0.01338
           R6           0.00000   0.00000   0.00000   0.00000   0.00000
           R7           0.00000   0.00000   0.00000   0.00000   0.00000
           A1           0.00000   0.00000   0.00000   0.00000   0.00000
           A2           0.00000   0.00000   0.00000   0.00000   0.00000
           A3           0.00000   0.00000   0.00000   0.00000   0.00000
           A4           0.00000   0.00000   0.00000   0.00000   0.00000
           A5           0.00000   0.00000   0.00000   0.00000   0.00000
           A6           0.00000   0.00000   0.00000   0.00000   0.00000
           A7           0.00000   0.00000   0.00000   0.00000   0.00000
           A8           0.00000   0.00000   0.00000   0.00000   0.00000
           A9           0.00000   0.00000   0.00000   0.00000   0.00000
           A10          0.00000   0.00000   0.00000   0.00000   0.00000
           A11          0.00000   0.00000   0.00000   0.00000   0.00000
           A12          0.00000   0.00000   0.00000   0.00000   0.00000
           D1           0.00000   0.00000   0.00000   0.00000   0.00000
           D2           0.00000   0.00000   0.00000   0.00000   0.00000
           D3           0.00000   0.00000   0.00000   0.00000   0.00000
           D4           0.00000   0.00000   0.00000   0.00000   0.00000
           D5           0.00000   0.00000   0.00000   0.00000   0.00000
           D6           0.00000   0.00000   0.00000   0.00000   0.00000
           D7           0.00000   0.00000   0.00000   0.00000   0.00000
           D8           0.00000   0.00000   0.00000   0.00000   0.00000
           D9           0.00000   0.00000   0.00000   0.00000   0.00000
           D10          0.00000   0.00000   0.00000   0.00000   0.00000
           D11          0.00000   0.00000   0.00000   0.00000   0.00000
           D12          0.00000   0.00000   0.00000   0.00000   0.00000
           D13          0.00000   0.00000   0.00000   0.00000   0.00000
           D14          0.00000   0.00000   0.00000   0.00000   0.00000
           D15          0.00000   0.00000   0.00000   0.00000   0.00000
                          R6        R7        A1        A2        A3
           R6           0.01338
           R7           0.00000   0.01338
           A1           0.00000   0.00000   0.16000
           A2           0.00000   0.00000   0.00000   0.16000
           A3           0.00000   0.00000   0.00000   0.00000   0.16000
           A4           0.00000   0.00000   0.00000   0.00000   0.00000
           A5           0.00000   0.00000   0.00000   0.00000   0.00000
           A6           0.00000   0.00000   0.00000   0.00000   0.00000
           A7           0.00000   0.00000   0.00000   0.00000   0.00000
           A8           0.00000   0.00000   0.00000   0.00000   0.00000
           A9           0.00000   0.00000   0.00000   0.00000   0.00000
           A10          0.00000   0.00000   0.00000   0.00000   0.00000
           A11          0.00000   0.00000   0.00000   0.00000   0.00000
           A12          0.00000   0.00000   0.00000   0.00000   0.00000
           D1           0.00000   0.00000   0.00000   0.00000   0.00000
           D2           0.00000   0.00000   0.00000   0.00000   0.00000
           D3           0.00000   0.00000   0.00000   0.00000   0.00000
           D4           0.00000   0.00000   0.00000   0.00000   0.00000
           D5           0.00000   0.00000   0.00000   0.00000   0.00000
           D6           0.00000   0.00000   0.00000   0.00000   0.00000
           D7           0.00000   0.00000   0.00000   0.00000   0.00000
           D8           0.00000   0.00000   0.00000   0.00000   0.00000
           D9           0.00000   0.00000   0.00000   0.00000   0.00000
           D10          0.00000   0.00000   0.00000   0.00000   0.00000
           D11          0.00000   0.00000   0.00000   0.00000   0.00000
           D12          0.00000   0.00000   0.00000   0.00000   0.00000
           D13          0.00000   0.00000   0.00000   0.00000   0.00000
           D14          0.00000   0.00000   0.00000   0.00000   0.00000
           D15          0.00000   0.00000   0.00000   0.00000   0.00000
                          A4        A5        A6        A7        A8
           A4           0.16000
           A5           0.00000   0.16000
           A6           0.00000   0.00000   0.16000
           A7           0.00000   0.00000   0.00000   0.25000
           A8           0.00000   0.00000   0.00000   0.00000   0.25000
           A9           0.00000   0.00000   0.00000   0.00000   0.00000
           A10          0.00000   0.00000   0.00000   0.00000   0.00000
           A11          0.00000   0.00000   0.00000   0.00000   0.00000
           A12          0.00000   0.00000   0.00000   0.00000   0.00000
           D1           0.00000   0.00000   0.00000   0.00000   0.00000
           D2           0.00000   0.00000   0.00000   0.00000   0.00000
           D3           0.00000   0.00000   0.00000   0.00000   0.00000
           D4           0.00000   0.00000   0.00000   0.00000   0.00000
           D5           0.00000   0.00000   0.00000   0.00000   0.00000
           D6           0.00000   0.00000   0.00000   0.00000   0.00000
           D7           0.00000   0.00000   0.00000   0.00000   0.00000
           D8           0.00000   0.00000   0.00000   0.00000   0.00000
           D9           0.00000   0.00000   0.00000   0.00000   0.00000
           D10          0.00000   0.00000   0.00000   0.00000   0.00000
           D11          0.00000   0.00000   0.00000   0.00000   0.00000
           D12          0.00000   0.00000   0.00000   0.00000   0.00000
           D13          0.00000   0.00000   0.00000   0.00000   0.00000
           D14          0.00000   0.00000   0.00000   0.00000   0.00000
           D15          0.00000   0.00000   0.00000   0.00000   0.00000
                          A9        A10       A11       A12       D1
           A9           0.25000
           A10          0.00000   0.16000
           A11          0.00000   0.00000   0.16000
           A12          0.00000   0.00000   0.00000   0.16000
           D1           0.00000   0.00000   0.00000   0.00000   0.00359
           D2           0.00000   0.00000   0.00000   0.00000   0.00000
           D3           0.00000   0.00000   0.00000   0.00000   0.00000
           D4           0.00000   0.00000   0.00000   0.00000   0.00000
           D5           0.00000   0.00000   0.00000   0.00000   0.00000
           D6           0.00000   0.00000   0.00000   0.00000   0.00000
           D7           0.00000   0.00000   0.00000   0.00000   0.00000
           D8           0.00000   0.00000   0.00000   0.00000   0.00000
           D9           0.00000   0.00000   0.00000   0.00000   0.00000
           D10          0.00000   0.00000   0.00000   0.00000   0.00000
           D11          0.00000   0.00000   0.00000   0.00000   0.00000
           D12          0.00000   0.00000   0.00000   0.00000   0.00000
           D13          0.00000   0.00000   0.00000   0.00000   0.00000
           D14          0.00000   0.00000   0.00000   0.00000   0.00000
           D15          0.00000   0.00000   0.00000   0.00000   0.00000
                          D2        D3        D4        D5        D6
           D2           0.00359
           D3           0.00000   0.00359
           D4           0.00000   0.00000   0.00359
           D5           0.00000   0.00000   0.00000   0.00359
           D6           0.00000   0.00000   0.00000   0.00000   0.00359
           D7           0.00000   0.00000   0.00000   0.00000   0.00000
           D8           0.00000   0.00000   0.00000   0.00000   0.00000
           D9           0.00000   0.00000   0.00000   0.00000   0.00000
           D10          0.00000   0.00000   0.00000   0.00000   0.00000
           D11          0.00000   0.00000   0.00000   0.00000   0.00000
           D12          0.00000   0.00000   0.00000   0.00000   0.00000
           D13          0.00000   0.00000   0.00000   0.00000   0.00000
           D14          0.00000   0.00000   0.00000   0.00000   0.00000
           D15          0.00000   0.00000   0.00000   0.00000   0.00000
                          D7        D8        D9        D10       D11
           D7           0.00359
           D8           0.00000   0.00359
           D9           0.00000   0.00000   0.00359
           D10          0.00000   0.00000   0.00000   0.00230
           D11          0.00000   0.00000   0.00000   0.00000   0.00230
           D12          0.00000   0.00000   0.00000   0.00000   0.00000
           D13          0.00000   0.00000   0.00000   0.00000   0.00000
           D14          0.00000   0.00000   0.00000   0.00000   0.00000
           D15          0.00000   0.00000   0.00000   0.00000   0.00000
                          D12       D13       D14       D15
           D12          0.00230
           D13          0.00000   0.00230
           D14          0.00000   0.00000   0.00230
           D15          0.00000   0.00000   0.00000   0.00230
 ITU=  0
 Eigenvectors of the second derivative matrix:
                           1         2         3         4         5
     Eigenvalues --     0.01517   0.03278   0.03278   0.07289   0.07289
   1         R1        -0.00000   0.00000  -0.00000  -0.00000  -0.00000
   2         R2        -0.00838   0.02339   0.00419   0.00941   0.00312
   3         R3        -0.00838  -0.00807  -0.02236  -0.00201  -0.00971
   4         R4        -0.00838  -0.01533   0.01816  -0.00740   0.00659
   5         R5        -0.57273  -0.48558  -0.08699  -0.08601  -0.02848
   6         R6        -0.57273   0.16746   0.46402   0.01835   0.08873
   7         R7        -0.57273   0.31813  -0.37703   0.06767  -0.06025
   8         A1         0.01997  -0.08147  -0.01459  -0.32227  -0.10669
   9         A2         0.01997   0.02810   0.07785   0.06874   0.33244
  10         A3         0.01997   0.05337  -0.06326   0.25353  -0.22575
  11         A4        -0.01919   0.06777  -0.08032  -0.30873   0.27490
  12         A5        -0.01919   0.03567   0.09885  -0.08370  -0.40482
  13         A6        -0.01919  -0.10344  -0.01853   0.39243   0.12992
  14         A7        -0.01218   0.23205   0.04157   0.04024   0.01332
  15         A8        -0.01218  -0.08002  -0.22175  -0.00858  -0.04151
  16         A9        -0.01218  -0.15203   0.18018  -0.03166   0.02819
  17         A10        0.05481   0.03378  -0.04004  -0.06098   0.05430
  18         A11        0.05481   0.01778   0.04928  -0.01653  -0.07996
  19         A12        0.05481  -0.05157  -0.00924   0.07751   0.02566
  20         D1         0.00000  -0.06036   0.33691  -0.12721   0.38426
  21         D2        -0.02523  -0.08462   0.29802   0.16588  -0.11630
  22         D3         0.02523  -0.02410   0.30886  -0.06371  -0.19231
  23         D4         0.00000   0.32195  -0.11619   0.39639  -0.08196
  24         D5         0.02523   0.27953  -0.13356  -0.13469   0.15133
  25         D6        -0.02523   0.30040  -0.07573  -0.18366  -0.08551
  26         D7        -0.00000  -0.26160  -0.22073  -0.26917  -0.30230
  27         D8        -0.02523  -0.21578  -0.22229   0.01778   0.20181
  28         D9         0.02523  -0.25543  -0.17530   0.19840   0.04098
  29         D10       -0.00516   0.09498  -0.09843  -0.17921   0.16373
  30         D11        0.00516  -0.05491  -0.12528   0.04610   0.23832
  31         D12        0.00516  -0.08104   0.11019   0.18334  -0.15909
  32         D13       -0.00516  -0.13273  -0.03304   0.23140   0.07333
  33         D14       -0.00516   0.03775   0.13147  -0.05219  -0.23706
  34         D15        0.00516   0.13595   0.01509  -0.22944  -0.07923
                           6         7         8         9        10
     Eigenvalues --     0.09633   0.09633   0.09933   0.24719   0.31260
   1         R1         0.00000  -0.00000   0.00000   1.00000   0.00000
   2         R2         0.01102  -0.01649   0.02860  -0.00000  -0.72371
   3         R3        -0.01979  -0.00129   0.02860  -0.00000   0.53503
   4         R4         0.00878   0.01779   0.02860  -0.00000   0.18867
   5         R5        -0.20272   0.30350   0.03087  -0.00000   0.00153
   6         R6         0.36420   0.02381   0.03087  -0.00000  -0.00113
   7         R7        -0.16148  -0.32731   0.03087  -0.00000  -0.00040
   8         A1         0.26010  -0.38941   0.22806  -0.00000  -0.00627
   9         A2        -0.46729  -0.03055   0.22806  -0.00000   0.00464
  10         A3         0.20719   0.41996   0.22806   0.00000   0.00163
  11         A4         0.15130   0.30668  -0.21923   0.00000   0.00157
  12         A5        -0.34125  -0.02231  -0.21923   0.00000   0.00445
  13         A6         0.18994  -0.28438  -0.21923   0.00000  -0.00601
  14         A7         0.09667  -0.14473   0.25234  -0.00000   0.11749
  15         A8        -0.17367  -0.01135   0.25234   0.00000  -0.08686
  16         A9         0.07700   0.15608   0.25234   0.00000  -0.03063
  17         A10        0.02223   0.04507  -0.04139  -0.00000  -0.02803
  18         A11       -0.05015  -0.00328  -0.04139  -0.00000  -0.07948
  19         A12        0.02791  -0.04179  -0.04139  -0.00000   0.10750
  20         D1        -0.25359  -0.16938   0.00000  -0.00000  -0.00081
  21         D2         0.06840  -0.07462  -0.28815   0.00000  -0.00356
  22         D3        -0.04273   0.09176   0.28815  -0.00000  -0.00004
  23         D4        -0.01989   0.30430  -0.00000   0.00000  -0.00214
  24         D5         0.10083  -0.00887   0.28815  -0.00000  -0.00603
  25         D6        -0.09882  -0.02193  -0.28815  -0.00000  -0.00343
  26         D7         0.27348  -0.13492  -0.00000  -0.00000   0.00295
  27         D8         0.03042   0.09654  -0.28815   0.00000   0.00699
  28         D9        -0.05810  -0.08289   0.28815  -0.00000   0.00607
  29         D10        0.07682   0.13914   0.00389   0.00000  -0.18473
  30         D11        0.15795   0.01767  -0.00389  -0.00000   0.12775
  31         D12       -0.06367  -0.14562  -0.00389   0.00000  -0.19056
  32         D13        0.08209  -0.13609   0.00389  -0.00000   0.04046
  33         D14       -0.15890  -0.00304   0.00389  -0.00000   0.14427
  34         D15       -0.09428   0.12795  -0.00389  -0.00000   0.06281
                          11        12
     Eigenvalues --     0.31260   0.34031
   1         R1         0.00000  -0.00000
   2         R2         0.19997  -0.54699
   3         R3         0.52676  -0.54699
   4         R4        -0.72674  -0.54699
   5         R5        -0.00042  -0.01130
   6         R6        -0.00111  -0.01130
   7         R7         0.00153  -0.01130
   8         A1         0.00173  -0.01030
   9         A2         0.00456  -0.01030
  10         A3        -0.00630  -0.01030
  11         A4        -0.00604   0.00990
  12         A5         0.00438   0.00990
  13         A6         0.00166   0.00990
  14         A7        -0.03246   0.08414
  15         A8        -0.08551   0.08414
  16         A9         0.11798   0.08414
  17         A10        0.10795  -0.16100
  18         A11       -0.07825  -0.16100
  19         A12       -0.02970  -0.16100
  20         D1        -0.00294  -0.00000
  21         D2        -0.00601   0.01302
  22         D3        -0.00699  -0.01302
  23         D4         0.00217  -0.00000
  24         D5         0.00352  -0.01302
  25         D6         0.00609   0.01302
  26         D7         0.00077   0.00000
  27         D8        -0.00007   0.01302
  28         D9         0.00346  -0.01302
  29         D10       -0.05994   0.01515
  30         D11       -0.14628  -0.01515
  31         D12       -0.03749  -0.01515
  32         D13        0.18995   0.01515
  33         D14       -0.13001   0.01515
  34         D15        0.18378  -0.01515
 Iter=   1 RLamda= 0.00000000D+00 Sum=-3.05386759D-04.
 Iter=   2 RLamda=-3.05386759D-04 Sum=-3.01851081D-04.
 Iter=   3 RLamda=-3.01851081D-04 Sum=-3.01891247D-04.
 Iter=   4 RLamda=-3.01891247D-04 Sum=-3.01890791D-04.
 RFO step:  Lambda=-3.01891247D-04 EMin= 1.51743270D-02
 Linear search not attempted -- first point.
 Iteration  1 RMS(Cart)=  0.00993818 RMS(Int)=  0.00003896
 Iteration  2 RMS(Cart)=  0.00001800 RMS(Int)=  0.00002658
 Iteration  3 RMS(Cart)=  0.00000000 RMS(Int)=  0.00002658
 ITry= 1 IFail=0 DXMaxC= 4.90D-02 DCOld= 1.00D+10 DXMaxT= 3.00D-01 DXLimC= 3.00D+00 Rises=F
 ClnCor:  largest displacement from symmetrization is 2.02D-13 for atom     1.
 Variable       Old X    -DE/DX   Delta X   Delta X   Delta X     New X
                                 (Linear)    (Quad)   (Total)
    R1        3.43629   0.00339   0.00000   0.01372   0.01372   3.45001
    R2        2.04203   0.00293   0.00000   0.00787   0.00784   2.04987
    R3        2.04203   0.00293   0.00000   0.00787   0.00784   2.04987
    R4        2.04203   0.00293   0.00000   0.00787   0.00784   2.04987
    R5        5.72099  -0.00085   0.00000  -0.05948  -0.05947   5.66152
    R6        5.72099  -0.00085   0.00000  -0.05948  -0.05947   5.66152
    R7        5.72099  -0.00085   0.00000  -0.05948  -0.05947   5.66152
    A1        1.89278   0.00020   0.00000   0.00336   0.00337   1.89615
    A2        1.89278   0.00020   0.00000   0.00336   0.00337   1.89615
    A3        1.89278   0.00020   0.00000   0.00336   0.00337   1.89615
    A4        1.92814  -0.00019   0.00000  -0.00323  -0.00325   1.92489
    A5        1.92814  -0.00019   0.00000  -0.00323  -0.00325   1.92489
    A6        1.92814  -0.00019   0.00000  -0.00323  -0.00325   1.92489
    A7        1.54736  -0.00035   0.00000  -0.00136  -0.00139   1.54596
    A8        1.54736  -0.00035   0.00000  -0.00136  -0.00139   1.54596
    A9        1.54736  -0.00035   0.00000  -0.00136  -0.00139   1.54596
   A10        0.59521   0.00093   0.00000   0.00805   0.00812   0.60333
   A11        0.59521   0.00093   0.00000   0.00805   0.00812   0.60333
   A12        0.59521   0.00093   0.00000   0.00805   0.00812   0.60333
    D1        3.14159   0.00000   0.00000   0.00000   0.00000   3.14159
    D2        1.06941  -0.00025   0.00000  -0.00424  -0.00425   1.06516
    D3       -1.06941   0.00025   0.00000   0.00424   0.00425  -1.06516
    D4        3.14159  -0.00000   0.00000  -0.00000   0.00000  -3.14159
    D5       -1.06941   0.00025   0.00000   0.00424   0.00425  -1.06516
    D6        1.06941  -0.00025   0.00000  -0.00424  -0.00425   1.06516
    D7        3.14159   0.00000   0.00000   0.00000   0.00000   3.14159
    D8        1.06941  -0.00025   0.00000  -0.00424  -0.00425   1.06516
    D9       -1.06941   0.00025   0.00000   0.00424   0.00425  -1.06516
   D10       -0.55035  -0.00009   0.00000  -0.00076  -0.00077  -0.55113
   D11        0.55035   0.00009   0.00000   0.00076   0.00077   0.55113
   D12        0.55035   0.00009   0.00000   0.00076   0.00077   0.55113
   D13       -0.55035  -0.00009   0.00000  -0.00076  -0.00077  -0.55113
   D14       -0.55035  -0.00009   0.00000  -0.00076  -0.00077  -0.55113
   D15        0.55035   0.00009   0.00000   0.00076   0.00077   0.55113
         Item               Value     Threshold  Converged?
 Maximum Force            0.003394     0.000450     NO 
 RMS     Force            0.001125     0.000300     NO 
 Maximum Displacement     0.048996     0.001800     NO 
 RMS     Displacement     0.009941     0.001200     NO 
 Predicted change in Energy=-1.525469D-04
 Lowest energy point so far.  Saving SCF results.
 Largest change from initial coordinates is atom    6       0.026 Angstoms.
 GradGradGradGradGradGradGradGradGradGradGradGradGradGradGradGradGradGrad

 Leave Link  103 at Wed Oct  7 13:28:43 2020, MaxMem=  2684354560 cpu:               3.3 elap:               0.7
 (Enter /udrive/faculty/rpeverati/g16/g16/l202.exe)
                          Input orientation:                          
 ---------------------------------------------------------------------
 Center     Atomic      Atomic             Coordinates (Angstroms)
 Number     Number       Type             X           Y           Z
 ---------------------------------------------------------------------
      1         17           0        0.000000    0.000000   -2.221562
      2          6           0        0.000000   -0.000000   -0.395897
      3          1           0       -0.513917    0.890131   -0.049165
      4          1           0       -0.513917   -0.890131   -0.049165
      5          1           0        1.027835   -0.000000   -0.049165
      6         17           0        0.000000    0.000000    2.764954
 ---------------------------------------------------------------------
                    Distance matrix (angstroms):
                    1          2          3          4          5
     1  Cl   0.000000
     2  C    1.825664   0.000000
     3  H    2.403279   1.084743   0.000000
     4  H    2.403279   1.084743   1.780262   0.000000
     5  H    2.403279   1.084743   1.780262   1.780262   0.000000
     6  Cl   4.986515   3.160851   2.995948   2.995948   2.995948
                    6
     6  Cl   0.000000
 Stoichiometry    CH3Cl2(1-)
 Framework group  C3V[C3(ClCCl),3SGV(H)]
 Deg. of freedom     4
 Full point group                 C3V     NOp   6
 RotChk:  IX=0 Diff= 0.00D+00
 Largest Abelian subgroup         CS      NOp   2
 Largest concise Abelian subgroup CS      NOp   2
                         Standard orientation:                         
 ---------------------------------------------------------------------
 Center     Atomic      Atomic             Coordinates (Angstroms)
 Number     Number       Type             X           Y           Z
 ---------------------------------------------------------------------
      1         17           0        0.000000    0.000000   -2.377719
      2          6           0        0.000000    0.000000   -0.552055
      3          1           0       -0.000000    1.027835   -0.205323
      4          1           0       -0.890131   -0.513917   -0.205323
      5          1           0        0.890131   -0.513917   -0.205323
      6         17           0        0.000000    0.000000    2.608796
 ---------------------------------------------------------------------
 Rotational constants (GHZ):         158.2210596           1.1458199           1.1458199
 Leave Link  202 at Wed Oct  7 13:28:44 2020, MaxMem=  2684354560 cpu:               1.1 elap:               0.5
 (Enter /udrive/faculty/rpeverati/g16/g16/l301.exe)
 Standard basis: 6-31G(d) (5D, 7F)
 Ernie: Thresh=  0.10000D-02 Tol=  0.10000D-05 Strict=F.
 There are    43 symmetry adapted cartesian basis functions of A'  symmetry.
 There are    16 symmetry adapted cartesian basis functions of A"  symmetry.
 There are    40 symmetry adapted basis functions of A'  symmetry.
 There are    16 symmetry adapted basis functions of A"  symmetry.
    56 basis functions,   144 primitive gaussians,    59 cartesian basis functions
    22 alpha electrons       22 beta electrons
       nuclear repulsion energy       107.2214119888 Hartrees.
 IExCor= 4336 DFT=T Ex+Corr=M062X ExCW=0 ScaHFX=  0.540000
 ScaDFX=  1.000000  1.000000  1.000000  1.000000 ScalE2=  1.000000  1.000000
 IRadAn=      5 IRanWt=     -1 IRanGd=            0 ICorTp=0 IEmpDi=  4
 NAtoms=    6 NActive=    6 NUniq=    4 SFac= 2.25D+00 NAtFMM=   60 NAOKFM=F Big=F
 Integral buffers will be    131072 words long.
 Raffenetti 2 integral format.
 Two-electron integral symmetry is turned on.
 Leave Link  301 at Wed Oct  7 13:28:45 2020, MaxMem=  2684354560 cpu:               2.1 elap:               0.6
 (Enter /udrive/faculty/rpeverati/g16/g16/l302.exe)
 NPDir=0 NMtPBC=     1 NCelOv=     1 NCel=       1 NClECP=     1 NCelD=      1
         NCelK=      1 NCelE2=     1 NClLst=     1 CellRange=     0.0.
 One-electron integrals computed using PRISM.
 One-electron integral symmetry used in STVInt
 NBasis=    56 RedAO= T EigKep=  1.84D-02  NBF=    40    16
 NBsUse=    56 1.00D-06 EigRej= -1.00D+00 NBFU=    40    16
 Precomputing XC quadrature grid using
 IXCGrd= 4 IRadAn=           5 IRanWt=          -1 IRanGd=           0 AccXCQ= 0.00D+00.
 Generated NRdTot=       0 NPtTot=           0 NUsed=           0 NTot=          32
 NSgBfM=    59    59    59    59    59 MxSgAt=     6 MxSgA2=     6.
 Leave Link  302 at Wed Oct  7 13:28:46 2020, MaxMem=  2684354560 cpu:               4.9 elap:               0.9
 (Enter /udrive/faculty/rpeverati/g16/g16/l303.exe)
 DipDrv:  MaxL=1.
 Leave Link  303 at Wed Oct  7 13:28:47 2020, MaxMem=  2684354560 cpu:               2.1 elap:               0.6
 (Enter /udrive/faculty/rpeverati/g16/g16/l401.exe)
 Initial guess from the checkpoint file:  "MN_27_clch3clcomp_BH76_M062X_631Gs.chk"
 SCF N**3 symmetry information disabled.
 B after Tr=    -0.000000    0.000000   -0.000000
         Rot=    1.000000    0.000000   -0.000000    0.000000 Ang=   0.00 deg.
 Guess basis will be translated and rotated to current coordinates.
 JPrj=2 DoOrth=T DoCkMO=T.
 Initial guess orbital symmetries:
       Occupied  (A1) (A1) (A1) (A1) (A1) (A1) (E) (E) (A1) (E)
                 (E) (A1) (A1) (A1) (E) (E) (A1) (E) (E) (A1) (E)
                 (E)
       Virtual   (A1) (A1) (E) (E) (A1) (A1) (E) (E) (A1) (E) (E)
                 (A1) (E) (E) (A1) (E) (E) (E) (E) (A1) (E) (E)
                 (A1) (E) (E) (E) (E) (A1) (A1) (E) (E) (A1) (E)
                 (E)
 The electronic state of the initial guess is 1-A1.
 Generating alternative initial guess.
 ExpMin= 1.43D-01 ExpMax= 2.52D+04 ExpMxC= 3.78D+03 IAcc=2 IRadAn=         4 AccDes= 0.00D+00
 Harris functional with IExCor= 1009 and IRadAn=       4 diagonalized for initial guess.
 HarFok:  IExCor= 1009 AccDes= 0.00D+00 IRadAn=         4 IDoV= 1 UseB2=F ITyADJ=14
 ICtDFT=  3500011 ScaDFX=  1.000000  1.000000  1.000000  1.000000
 FoFCou: FMM=F IPFlag=           0 FMFlag=      100000 FMFlg1=           0
         NFxFlg=           0 DoJE=T BraDBF=F KetDBF=T FulRan=T
         wScrn=  0.000000 ICntrl=       500 IOpCl=  0 I1Cent=   200000004 NGrid=           0
         NMat0=    1 NMatS0=      1 NMatT0=    0 NMatD0=    1 NMtDS0=    0 NMtDT0=    0
 Petite list used in FoFCou.
 Harris En= -959.919069423699    
 Leave Link  401 at Wed Oct  7 13:28:48 2020, MaxMem=  2684354560 cpu:               6.1 elap:               1.0
 (Enter /udrive/faculty/rpeverati/g16/g16/l502.exe)
 Keep R1 ints in memory in symmetry-blocked form, NReq=11845073.
 FoFCou: FMM=F IPFlag=           0 FMFlag=           0 FMFlg1=           0
         NFxFlg=           0 DoJE=F BraDBF=F KetDBF=F FulRan=T
         wScrn=  0.000000 ICntrl=       600 IOpCl=  0 I1Cent=           0 NGrid=           0
         NMat0=    1 NMatS0=   1596 NMatT0=    0 NMatD0=    1 NMtDS0=    0 NMtDT0=    0
 Petite list used in FoFCou.
 Closed shell SCF:
 Using DIIS extrapolation, IDIIS=  1040.
 NGot=  2684354560 LenX=  2683679425 LenY=  2683675503
 Requested convergence on RMS density matrix=1.00D-08 within 120 cycles.
 Requested convergence on MAX density matrix=1.00D-06.
 Requested convergence on             energy=1.00D-06.
 No special actions if energy rises.
 Integral accuracy reduced to 1.0D-05 until final iterations.

 Cycle   1  Pass 0  IDiag  1:
 E= -960.276549205445    
 DIIS: error= 7.32D-04 at cycle   1 NSaved=   1.
 NSaved= 1 IEnMin= 1 EnMin= -960.276549205445     IErMin= 1 ErrMin= 7.32D-04
 ErrMax= 7.32D-04  0.00D+00 EMaxC= 1.00D-01 BMatC= 2.01D-05 BMatP= 2.01D-05
 IDIUse=3 WtCom= 9.93D-01 WtEn= 7.32D-03
 Coeff-Com:  0.100D+01
 Coeff-En:   0.100D+01
 Coeff:      0.100D+01
 Gap=     0.293 Goal=   None    Shift=    0.000
 RMSDP=1.31D-04 MaxDP=1.60D-03              OVMax= 2.25D-03

 Cycle   2  Pass 0  IDiag  1:
 E= -960.276566265121     Delta-E=       -0.000017059676 Rises=F Damp=F
 DIIS: error= 5.43D-04 at cycle   2 NSaved=   2.
 NSaved= 2 IEnMin= 2 EnMin= -960.276566265121     IErMin= 2 ErrMin= 5.43D-04
 ErrMax= 5.43D-04  0.00D+00 EMaxC= 1.00D-01 BMatC= 8.71D-06 BMatP= 2.01D-05
 IDIUse=3 WtCom= 9.95D-01 WtEn= 5.43D-03
 Coeff-Com:  0.371D+00 0.629D+00
 Coeff-En:   0.000D+00 0.100D+01
 Coeff:      0.369D+00 0.631D+00
 Gap=     0.292 Goal=   None    Shift=    0.000
 RMSDP=5.52D-05 MaxDP=8.50D-04 DE=-1.71D-05 OVMax= 1.34D-03

 Cycle   3  Pass 0  IDiag  1:
 E= -960.276574887559     Delta-E=       -0.000008622438 Rises=F Damp=F
 DIIS: error= 1.52D-04 at cycle   3 NSaved=   3.
 NSaved= 3 IEnMin= 3 EnMin= -960.276574887559     IErMin= 3 ErrMin= 1.52D-04
 ErrMax= 1.52D-04  0.00D+00 EMaxC= 1.00D-01 BMatC= 6.15D-07 BMatP= 8.71D-06
 IDIUse=3 WtCom= 9.98D-01 WtEn= 1.52D-03
 Coeff-Com: -0.351D-01 0.185D+00 0.850D+00
 Coeff-En:   0.000D+00 0.000D+00 0.100D+01
 Coeff:     -0.351D-01 0.184D+00 0.851D+00
 Gap=     0.293 Goal=   None    Shift=    0.000
 RMSDP=1.69D-05 MaxDP=1.94D-04 DE=-8.62D-06 OVMax= 3.10D-04

 Cycle   4  Pass 0  IDiag  1:
 E= -960.276575595992     Delta-E=       -0.000000708432 Rises=F Damp=F
 DIIS: error= 7.99D-06 at cycle   4 NSaved=   4.
 NSaved= 4 IEnMin= 4 EnMin= -960.276575595992     IErMin= 4 ErrMin= 7.99D-06
 ErrMax= 7.99D-06  0.00D+00 EMaxC= 1.00D-01 BMatC= 6.72D-09 BMatP= 6.15D-07
 IDIUse=1 WtCom= 1.00D+00 WtEn= 0.00D+00
 Coeff-Com: -0.137D-01 0.315D-01 0.189D+00 0.793D+00
 Coeff:     -0.137D-01 0.315D-01 0.189D+00 0.793D+00
 Gap=     0.293 Goal=   None    Shift=    0.000
 RMSDP=2.93D-06 MaxDP=5.31D-05 DE=-7.08D-07 OVMax= 3.88D-05

 Initial convergence to 1.0D-05 achieved.  Increase integral accuracy.
 Cycle   5  Pass 1  IDiag  1:
 E= -960.276919355322     Delta-E=       -0.000343759330 Rises=F Damp=F
 DIIS: error= 6.62D-05 at cycle   1 NSaved=   1.
 NSaved= 1 IEnMin= 1 EnMin= -960.276919355322     IErMin= 1 ErrMin= 6.62D-05
 ErrMax= 6.62D-05  0.00D+00 EMaxC= 1.00D-01 BMatC= 1.82D-07 BMatP= 1.82D-07
 IDIUse=1 WtCom= 1.00D+00 WtEn= 0.00D+00
 Coeff-Com:  0.100D+01
 Coeff:      0.100D+01
 Gap=     0.293 Goal=   None    Shift=    0.000
 RMSDP=2.93D-06 MaxDP=5.31D-05 DE=-3.44D-04 OVMax= 1.39D-04

 Cycle   6  Pass 1  IDiag  1:
 E= -960.276919474961     Delta-E=       -0.000000119639 Rises=F Damp=F
 DIIS: error= 1.95D-05 at cycle   2 NSaved=   2.
 NSaved= 2 IEnMin= 2 EnMin= -960.276919474961     IErMin= 2 ErrMin= 1.95D-05
 ErrMax= 1.95D-05  0.00D+00 EMaxC= 1.00D-01 BMatC= 2.01D-08 BMatP= 1.82D-07
 IDIUse=1 WtCom= 1.00D+00 WtEn= 0.00D+00
 Coeff-Com:  0.199D+00 0.801D+00
 Coeff:      0.199D+00 0.801D+00
 Gap=     0.293 Goal=   None    Shift=    0.000
 RMSDP=4.91D-06 MaxDP=9.14D-05 DE=-1.20D-07 OVMax= 6.52D-05

 Cycle   7  Pass 1  IDiag  1:
 E= -960.276919496454     Delta-E=       -0.000000021493 Rises=F Damp=F
 DIIS: error= 6.66D-06 at cycle   3 NSaved=   3.
 NSaved= 3 IEnMin= 3 EnMin= -960.276919496454     IErMin= 3 ErrMin= 6.66D-06
 ErrMax= 6.66D-06  0.00D+00 EMaxC= 1.00D-01 BMatC= 2.79D-09 BMatP= 2.01D-08
 IDIUse=1 WtCom= 1.00D+00 WtEn= 0.00D+00
 Coeff-Com: -0.101D-01 0.251D+00 0.759D+00
 Coeff:     -0.101D-01 0.251D+00 0.759D+00
 Gap=     0.293 Goal=   None    Shift=    0.000
 RMSDP=1.40D-06 MaxDP=2.81D-05 DE=-2.15D-08 OVMax= 2.02D-05

 Cycle   8  Pass 1  IDiag  1:
 E= -960.276919499762     Delta-E=       -0.000000003308 Rises=F Damp=F
 DIIS: error= 1.74D-06 at cycle   4 NSaved=   4.
 NSaved= 4 IEnMin= 4 EnMin= -960.276919499762     IErMin= 4 ErrMin= 1.74D-06
 ErrMax= 1.74D-06  0.00D+00 EMaxC= 1.00D-01 BMatC= 1.07D-10 BMatP= 2.79D-09
 IDIUse=1 WtCom= 1.00D+00 WtEn= 0.00D+00
 Coeff-Com: -0.839D-02 0.672D-01 0.267D+00 0.675D+00
 Coeff:     -0.839D-02 0.672D-01 0.267D+00 0.675D+00
 Gap=     0.293 Goal=   None    Shift=    0.000
 RMSDP=2.21D-07 MaxDP=2.69D-06 DE=-3.31D-09 OVMax= 4.22D-06

 Cycle   9  Pass 1  IDiag  1:
 E= -960.276919499872     Delta-E=       -0.000000000109 Rises=F Damp=F
 DIIS: error= 4.68D-07 at cycle   5 NSaved=   5.
 NSaved= 5 IEnMin= 5 EnMin= -960.276919499872     IErMin= 5 ErrMin= 4.68D-07
 ErrMax= 4.68D-07  0.00D+00 EMaxC= 1.00D-01 BMatC= 8.08D-12 BMatP= 1.07D-10
 IDIUse=1 WtCom= 1.00D+00 WtEn= 0.00D+00
 Coeff-Com: -0.501D-03-0.152D-01-0.261D-01 0.189D+00 0.852D+00
 Coeff:     -0.501D-03-0.152D-01-0.261D-01 0.189D+00 0.852D+00
 Gap=     0.293 Goal=   None    Shift=    0.000
 RMSDP=6.31D-08 MaxDP=1.29D-06 DE=-1.09D-10 OVMax= 1.37D-06

 Cycle  10  Pass 1  IDiag  1:
 E= -960.276919499883     Delta-E=       -0.000000000012 Rises=F Damp=F
 DIIS: error= 6.28D-08 at cycle   6 NSaved=   6.
 NSaved= 6 IEnMin= 6 EnMin= -960.276919499883     IErMin= 6 ErrMin= 6.28D-08
 ErrMax= 6.28D-08  0.00D+00 EMaxC= 1.00D-01 BMatC= 2.10D-13 BMatP= 8.08D-12
 IDIUse=1 WtCom= 1.00D+00 WtEn= 0.00D+00
 Coeff-Com:  0.788D-04-0.651D-02-0.159D-01 0.317D-01 0.238D+00 0.752D+00
 Coeff:      0.788D-04-0.651D-02-0.159D-01 0.317D-01 0.238D+00 0.752D+00
 Gap=     0.293 Goal=   None    Shift=    0.000
 RMSDP=1.08D-08 MaxDP=1.73D-07 DE=-1.16D-11 OVMax= 1.01D-07

 Cycle  11  Pass 1  IDiag  1:
 E= -960.276919499880     Delta-E=        0.000000000003 Rises=F Damp=F
 DIIS: error= 9.85D-09 at cycle   7 NSaved=   7.
 NSaved= 7 IEnMin= 6 EnMin= -960.276919499883     IErMin= 7 ErrMin= 9.85D-09
 ErrMax= 9.85D-09  0.00D+00 EMaxC= 1.00D-01 BMatC= 4.78D-15 BMatP= 2.10D-13
 IDIUse=1 WtCom= 1.00D+00 WtEn= 0.00D+00
 Coeff-Com:  0.292D-04 0.225D-03 0.511D-04-0.642D-02-0.165D-01 0.712D-01
 Coeff-Com:  0.951D+00
 Coeff:      0.292D-04 0.225D-03 0.511D-04-0.642D-02-0.165D-01 0.712D-01
 Coeff:      0.951D+00
 Gap=     0.293 Goal=   None    Shift=    0.000
 RMSDP=2.89D-09 MaxDP=5.93D-08 DE= 3.18D-12 OVMax= 5.10D-08

 SCF Done:  E(RM062X) =  -960.276919500     A.U. after   11 cycles
            NFock= 11  Conv=0.29D-08     -V/T= 2.0015
 KE= 9.588025053061D+02 PE=-2.505882748185D+03 EE= 4.795819113901D+02
 Leave Link  502 at Wed Oct  7 13:28:52 2020, MaxMem=  2684354560 cpu:              29.0 elap:               2.8
 (Enter /udrive/faculty/rpeverati/g16/g16/l508.exe)
 QCSCF skips out because SCF is already converged.
 Leave Link  508 at Wed Oct  7 13:28:53 2020, MaxMem=  2684354560 cpu:               0.3 elap:               0.7
 (Enter /udrive/faculty/rpeverati/g16/g16/l701.exe)
 ... and contract with generalized density number  0.
 Compute integral first derivatives.
 Leave Link  701 at Wed Oct  7 13:28:54 2020, MaxMem=  2684354560 cpu:               3.7 elap:               0.8
 (Enter /udrive/faculty/rpeverati/g16/g16/l702.exe)
 L702 exits ... SP integral derivatives will be done elsewhere.
 Leave Link  702 at Wed Oct  7 13:28:55 2020, MaxMem=  2684354560 cpu:               1.9 elap:               0.6
 (Enter /udrive/faculty/rpeverati/g16/g16/l703.exe)
 Integral derivatives from FoFJK, PRISM(SPDF).
 Compute integral first derivatives, UseDBF=F ICtDFT=           0.
 Calling FoFJK, ICntrl=      2127 FMM=F ISym2X=1 I1Cent= 0 IOpClX= 0 NMat=1 NMatS=1 NMatT=0.
 FoFJK:  IHMeth= 1 ICntrl=    2127 DoSepK=F KAlg= 0 I1Cent=           0 FoldK=F
 IRaf=         0 NMat=       1 IRICut=       1 DoRegI=T DoRafI=F ISym2E= 1 IDoP0=0 IntGTp=1.
 FoFCou: FMM=F IPFlag=           0 FMFlag=      100000 FMFlg1=         800
         NFxFlg=           0 DoJE=F BraDBF=F KetDBF=F FulRan=T
         wScrn=  0.000000 ICntrl=      2127 IOpCl=  0 I1Cent=           0 NGrid=           0
         NMat0=    1 NMatS0=      1 NMatT0=    0 NMatD0=    1 NMtDS0=    0 NMtDT0=    0
 Petite list used in FoFCou.
 Leave Link  703 at Wed Oct  7 13:28:56 2020, MaxMem=  2684354560 cpu:               7.9 elap:               1.3
 (Enter /udrive/faculty/rpeverati/g16/g16/l716.exe)
 Dipole        = 2.22044605D-16-3.33066907D-16-3.30266464D+00
 ***** Axes restored to original set *****
 -------------------------------------------------------------------
 Center     Atomic                   Forces (Hartrees/Bohr)
 Number     Number              X              Y              Z
 -------------------------------------------------------------------
      1       17          -0.000000000   -0.000000000   -0.000623346
      2        6          -0.000000000    0.000000000    0.001351154
      3        1          -0.000046173    0.000079974    0.000524184
      4        1          -0.000046173   -0.000079974    0.000524184
      5        1           0.000092346   -0.000000000    0.000524184
      6       17          -0.000000000    0.000000000   -0.002300359
 -------------------------------------------------------------------
 Cartesian Forces:  Max     0.002300359 RMS     0.000681327
 Leave Link  716 at Wed Oct  7 13:28:57 2020, MaxMem=  2684354560 cpu:               1.6 elap:               0.7
 (Enter /udrive/faculty/rpeverati/g16/g16/l103.exe)

 GradGradGradGradGradGradGradGradGradGradGradGradGradGradGradGradGradGrad
 Berny optimization.
 Optmz: redundant internal coordinate code flag= 1
 Using GEDIIS/GDIIS optimizer.
 Red2BG:  D1=  4.78D-01 OD1=  2.24D-02 B2RMS=  0.00D+00 IAprox=0
 FormGI is forming the generalized inverse of G from B-inverse, IUseBI=4.
 Internal  Forces:  Max     0.000785865 RMS     0.000280154
 Search for a local minimum.
 Step number   2 out of a maximum of  100
 All quantities printed in internal units (Hartrees-Bohrs-Radians)
 RMS Force = .28015D-03 SwitMx=.10000D-02 MixMth= 2
 Mixed Optimization -- En-DIIS/RFO-DIIS
 Update second derivatives using D2CorX and points    1    2
 DE= -2.28D-04 DEPred=-1.53D-04 R= 1.49D+00
 TightC=F SS=  1.41D+00  RLast= 1.07D-01 DXNew= 5.0454D-01 3.1979D-01
 Trust test= 1.49D+00 RLast= 1.07D-01 DXMaxT set to 3.20D-01
 The second derivative matrix:
                          R1        R2        R3        R4        R5
           R1           0.26040
           R2           0.01913   0.38318
           R3           0.01913   0.02396   0.38318
           R4           0.01913   0.02396   0.02396   0.38318
           R5           0.00783   0.00632   0.00632   0.00632   0.01129
           R6           0.00783   0.00632   0.00632   0.00632  -0.00209
           R7           0.00783   0.00632   0.00632   0.00632  -0.00209
           A1          -0.00071   0.00027   0.00027   0.00027   0.00131
           A2          -0.00071   0.00027   0.00027   0.00027   0.00131
           A3          -0.00071   0.00027   0.00027   0.00027   0.00131
           A4           0.00069  -0.00025  -0.00025  -0.00025  -0.00127
           A5           0.00069  -0.00025  -0.00025  -0.00025  -0.00127
           A6           0.00069  -0.00025  -0.00025  -0.00025  -0.00127
           A7           0.00098   0.00034   0.00034   0.00034  -0.00086
           A8           0.00098   0.00034   0.00034   0.00034  -0.00086
           A9           0.00098   0.00034   0.00034   0.00034  -0.00086
           A10         -0.00045   0.00189   0.00189   0.00189   0.00313
           A11         -0.00045   0.00189   0.00189   0.00189   0.00313
           A12         -0.00045   0.00189   0.00189   0.00189   0.00313
           D1           0.00000   0.00000   0.00000   0.00000  -0.00000
           D2          -0.00666  -0.00661  -0.00661  -0.00661   0.00012
           D3           0.00666   0.00661   0.00661   0.00661  -0.00012
           D4           0.00000   0.00000   0.00000   0.00000  -0.00000
           D5           0.00666   0.00661   0.00661   0.00661  -0.00012
           D6          -0.00666  -0.00661  -0.00661  -0.00661   0.00012
           D7          -0.00000  -0.00000  -0.00000  -0.00000   0.00000
           D8          -0.00666  -0.00661  -0.00661  -0.00661   0.00012
           D9           0.00666   0.00661   0.00661   0.00661  -0.00012
           D10         -0.00132  -0.00131  -0.00131  -0.00131   0.00003
           D11          0.00132   0.00131   0.00131   0.00131  -0.00003
           D12          0.00132   0.00131   0.00131   0.00131  -0.00003
           D13         -0.00132  -0.00131  -0.00131  -0.00131   0.00003
           D14         -0.00132  -0.00131  -0.00131  -0.00131   0.00003
           D15          0.00132   0.00131   0.00131   0.00131  -0.00003
                          R6        R7        A1        A2        A3
           R6           0.01129
           R7          -0.00209   0.01129
           A1           0.00131   0.00131   0.15959
           A2           0.00131   0.00131  -0.00041   0.15959
           A3           0.00131   0.00131  -0.00041  -0.00041   0.15959
           A4          -0.00127  -0.00127   0.00039   0.00039   0.00039
           A5          -0.00127  -0.00127   0.00039   0.00039   0.00039
           A6          -0.00127  -0.00127   0.00039   0.00039   0.00039
           A7          -0.00086  -0.00086   0.00032   0.00032   0.00032
           A8          -0.00086  -0.00086   0.00032   0.00032   0.00032
           A9          -0.00086  -0.00086   0.00032   0.00032   0.00032
           A10          0.00313   0.00313  -0.00085  -0.00085  -0.00085
           A11          0.00313   0.00313  -0.00085  -0.00085  -0.00085
           A12          0.00313   0.00313  -0.00085  -0.00085  -0.00085
           D1          -0.00000  -0.00000   0.00000   0.00000   0.00000
           D2           0.00012   0.00012  -0.00069  -0.00069  -0.00069
           D3          -0.00012  -0.00012   0.00069   0.00069   0.00069
           D4          -0.00000  -0.00000   0.00000   0.00000   0.00000
           D5          -0.00012  -0.00012   0.00069   0.00069   0.00069
           D6           0.00012   0.00012  -0.00069  -0.00069  -0.00069
           D7           0.00000   0.00000  -0.00000  -0.00000  -0.00000
           D8           0.00012   0.00012  -0.00069  -0.00069  -0.00069
           D9          -0.00012  -0.00012   0.00069   0.00069   0.00069
           D10          0.00003   0.00003  -0.00014  -0.00014  -0.00014
           D11         -0.00003  -0.00003   0.00014   0.00014   0.00014
           D12         -0.00003  -0.00003   0.00014   0.00014   0.00014
           D13          0.00003   0.00003  -0.00014  -0.00014  -0.00014
           D14          0.00003   0.00003  -0.00014  -0.00014  -0.00014
           D15         -0.00003  -0.00003   0.00014   0.00014   0.00014
                          A4        A5        A6        A7        A8
           A4           0.15962
           A5          -0.00038   0.15962
           A6          -0.00038  -0.00038   0.15962
           A7          -0.00031  -0.00031  -0.00031   0.24976
           A8          -0.00031  -0.00031  -0.00031  -0.00024   0.24976
           A9          -0.00031  -0.00031  -0.00031  -0.00024  -0.00024
           A10          0.00082   0.00082   0.00082   0.00069   0.00069
           A11          0.00082   0.00082   0.00082   0.00069   0.00069
           A12          0.00082   0.00082   0.00082   0.00069   0.00069
           D1          -0.00000  -0.00000  -0.00000  -0.00000  -0.00000
           D2           0.00066   0.00066   0.00066   0.00038   0.00038
           D3          -0.00066  -0.00066  -0.00066  -0.00038  -0.00038
           D4          -0.00000  -0.00000  -0.00000  -0.00000  -0.00000
           D5          -0.00066  -0.00066  -0.00066  -0.00038  -0.00038
           D6           0.00066   0.00066   0.00066   0.00038   0.00038
           D7           0.00000   0.00000   0.00000   0.00000   0.00000
           D8           0.00066   0.00066   0.00066   0.00038   0.00038
           D9          -0.00066  -0.00066  -0.00066  -0.00038  -0.00038
           D10          0.00013   0.00013   0.00013   0.00008   0.00008
           D11         -0.00013  -0.00013  -0.00013  -0.00008  -0.00008
           D12         -0.00013  -0.00013  -0.00013  -0.00008  -0.00008
           D13          0.00013   0.00013   0.00013   0.00008   0.00008
           D14          0.00013   0.00013   0.00013   0.00008   0.00008
           D15         -0.00013  -0.00013  -0.00013  -0.00008  -0.00008
                          A9        A10       A11       A12       D1
           A9           0.24976
           A10          0.00069   0.15830
           A11          0.00069  -0.00170   0.15830
           A12          0.00069  -0.00170  -0.00170   0.15830
           D1          -0.00000   0.00000   0.00000   0.00000   0.00359
           D2           0.00038  -0.00182  -0.00182  -0.00182  -0.00000
           D3          -0.00038   0.00182   0.00182   0.00182   0.00000
           D4          -0.00000   0.00000   0.00000   0.00000  -0.00000
           D5          -0.00038   0.00182   0.00182   0.00182   0.00000
           D6           0.00038  -0.00182  -0.00182  -0.00182  -0.00000
           D7           0.00000  -0.00000  -0.00000  -0.00000  -0.00000
           D8           0.00038  -0.00182  -0.00182  -0.00182  -0.00000
           D9          -0.00038   0.00182   0.00182   0.00182   0.00000
           D10          0.00008  -0.00036  -0.00036  -0.00036  -0.00000
           D11         -0.00008   0.00036   0.00036   0.00036   0.00000
           D12         -0.00008   0.00036   0.00036   0.00036   0.00000
           D13          0.00008  -0.00036  -0.00036  -0.00036  -0.00000
           D14          0.00008  -0.00036  -0.00036  -0.00036  -0.00000
           D15         -0.00008   0.00036   0.00036   0.00036   0.00000
                          D2        D3        D4        D5        D6
           D2           0.00449
           D3          -0.00090   0.00449
           D4          -0.00000   0.00000   0.00359
           D5          -0.00090   0.00090   0.00000   0.00449
           D6           0.00090  -0.00090  -0.00000  -0.00090   0.00449
           D7           0.00000  -0.00000   0.00000  -0.00000   0.00000
           D8           0.00090  -0.00090  -0.00000  -0.00090   0.00090
           D9          -0.00090   0.00090   0.00000   0.00090  -0.00090
           D10          0.00018  -0.00018  -0.00000  -0.00018   0.00018
           D11         -0.00018   0.00018   0.00000   0.00018  -0.00018
           D12         -0.00018   0.00018   0.00000   0.00018  -0.00018
           D13          0.00018  -0.00018  -0.00000  -0.00018   0.00018
           D14          0.00018  -0.00018  -0.00000  -0.00018   0.00018
           D15         -0.00018   0.00018   0.00000   0.00018  -0.00018
                          D7        D8        D9        D10       D11
           D7           0.00359
           D8           0.00000   0.00449
           D9          -0.00000  -0.00090   0.00449
           D10          0.00000   0.00018  -0.00018   0.00233
           D11         -0.00000  -0.00018   0.00018  -0.00003   0.00233
[...]
   9         A2         0.13601  -0.21122  -0.42055   0.01885   0.00840
  10         A3         0.19804  -0.25860   0.39320   0.01885  -0.00620
  11         A4        -0.24389  -0.18588   0.28264  -0.01825  -0.00602
  12         A5        -0.16750  -0.15183  -0.30230  -0.01825   0.00814
  13         A6         0.41139   0.33772   0.01966  -0.01825  -0.00213
  14         A7         0.04307   0.17195   0.01001   0.05750   0.03137
  15         A8        -0.01754  -0.07731  -0.15392   0.05750  -0.12015
  16         A9        -0.02554  -0.09464   0.14391   0.05750   0.08878
  17         A10       -0.05065  -0.02833   0.04307  -0.06578   0.08278
  18         A11       -0.03479  -0.02314  -0.04607  -0.06578  -0.11202
  19         A12        0.08544   0.05147   0.00300  -0.06578   0.02925
  20         D1        -0.04296   0.01793  -0.30797   0.00000  -0.00394
  21         D2         0.13876   0.09876   0.02105  -0.02368  -0.00928
  22         D3        -0.10401  -0.10054   0.00945   0.02368  -0.00803
  23         D4         0.36850  -0.27568   0.13846   0.00000   0.00108
  24         D5        -0.09963   0.05845   0.08234   0.02368  -0.00002
  25         D6        -0.19848  -0.03115  -0.09606  -0.02368   0.00478
  26         D7        -0.32554   0.25775   0.16951  -0.00000   0.00286
  27         D8         0.05971  -0.06761   0.07500  -0.02368   0.00450
  28         D9         0.20364   0.04208  -0.09179   0.02368   0.00805
  29         D10       -0.14090  -0.07936   0.13619   0.00657  -0.14494
  30         D11        0.09546   0.06302   0.14448  -0.00657  -0.06403
  31         D12        0.14677   0.09361  -0.12682  -0.00657  -0.12624
  32         D13        0.24301   0.15763   0.00063   0.00657   0.18367
  33         D14       -0.10210  -0.07827  -0.13683   0.00657  -0.03873
  34         D15       -0.24223  -0.15664  -0.01766  -0.00657   0.19027
                          11        12
     Eigenvalues --     0.31235   0.42403
   1         R1         0.00000  -0.35633
   2         R2        -0.72573  -0.50732
   3         R3         0.19943  -0.50732
   4         R4         0.52630  -0.50732
   5         R5        -0.00250  -0.03894
   6         R6         0.00069  -0.03894
   7         R7         0.00181  -0.03894
   8         A1        -0.00843  -0.00336
   9         A2         0.00232  -0.00336
  10         A3         0.00611  -0.00336
  11         A4         0.00593   0.00326
  12         A5         0.00225   0.00326
  13         A6        -0.00818   0.00326
  14         A7         0.12063   0.08754
  15         A8        -0.03315   0.08754
  16         A9        -0.08748   0.08754
  17         A10       -0.08156  -0.15468
  18         A11       -0.03091  -0.15468
  19         A12        0.11247  -0.15468
  20         D1         0.00102  -0.00000
  21         D2        -0.00016   0.00423
  22         D3         0.00466  -0.00423
  23         D4        -0.00393  -0.00000
  24         D5        -0.00929  -0.00423
  25         D6        -0.00796   0.00423
  26         D7         0.00290   0.00000
  27         D8         0.00812   0.00423
  28         D9         0.00462  -0.00423
  29         D10       -0.12840   0.01544
  30         D11        0.18274  -0.01544
  31         D12       -0.14682  -0.01544
  32         D13       -0.06132   0.01544
  33         D14        0.18972   0.01544
  34         D15       -0.03592  -0.01544
 DoSqrt=T IScMMF=    -3 MM Scaling Factor =       0.00000
 En-DIIS/RFO-DIIS/Sim-DIIS IScMMF=       -3 using points:     6    5    4    3    2
 Iter=   1 RLamda=-4.47108260D-02 Sum=-1.79725483D-07.
 Iter=   2 RLamda=-1.79725483D-07 Sum=-2.70755045D-07.
 Iter=   3 RLamda=-2.70755045D-07 Sum=-2.70754711D-07.
 RFO step:  Lambda=-2.70755045D-07.
 NNeg= 0 NGDIIS= 5 SimSw=  2.50D-01 Rises=F DC= -7.27D-07 SmlDif=  1.00D-05
 NRisDI= 0 DoIntr=F SqrtH=F CThrHd= 10.0 CDAdj=  3.0
 RMS Error=  0.3285469012D-03 NUsed= 5 OKEnD=F EnDIS=F
 Total RFO-DIIS matrix:
                 1             2             3             4             5 
      1   0.000000D+00 -0.100000D+01 -0.100000D+01 -0.100000D+01 -0.100000D+01
      2  -0.100000D+01  0.367006D-05  0.815397D-05  0.247653D-04  0.441713D-04
      3  -0.100000D+01  0.815397D-05  0.197602D-03  0.892775D-04  0.124237D-02
      4  -0.100000D+01  0.247653D-04  0.892775D-04  0.224409D-03  0.573933D-03
      5  -0.100000D+01  0.441713D-04  0.124237D-02  0.573933D-03  0.789189D-02
      6  -0.100000D+01  0.391524D-04  0.373758D-02  0.880708D-03  0.236549D-01
                 6 
      1  -0.100000D+01
      2   0.391524D-04
      3   0.373758D-02
      4   0.880708D-03
      5   0.236549D-01
      6   0.748001D-01
 InvSVX:  RCond= 6.68D-10 Info=           0 Equed=N FErr=  8.93D-10 BErr=  5.78D-17
 DIIS inversion failure, remove point   5.
 InvSVX:  RCond= 3.13D-08 Info=           0 Equed=N FErr=  1.50D-12 BErr=  8.29D-17
 DIIS inversion failure, remove point   4.
 InvSVX:  RCond= 2.65D-05 Info=           0 Equed=N FErr=  1.58D-15 BErr=  5.87D-17
 RFO-DIIS uses    3 points instead of    5
 DidBck=F Rises=F RFO-DIIS coefs:    1.10764    0.01583   -0.12347    0.00000    0.00000
 Iteration  1 RMS(Cart)=  0.00014165 RMS(Int)=  0.00000055
 Iteration  2 RMS(Cart)=  0.00000004 RMS(Int)=  0.00000055
 ITry= 1 IFail=0 DXMaxC= 6.16D-04 DCOld= 1.00D+10 DXMaxT= 5.38D-01 DXLimC= 3.00D+00 Rises=F
 ClnCor:  largest displacement from symmetrization is 7.81D-09 for atom     1.
 Variable       Old X    -DE/DX   Delta X   Delta X   Delta X     New X
                                 (Linear)    (Quad)   (Total)
    R1        3.46264   0.00016  -0.00022   0.00082   0.00060   3.46323
    R2        2.04937   0.00006  -0.00032   0.00032  -0.00000   2.04937
    R3        2.04937   0.00006  -0.00032   0.00032  -0.00000   2.04937
    R4        2.04937   0.00006  -0.00032   0.00032  -0.00000   2.04937
    R5        5.46829   0.00001  -0.00014   0.00008  -0.00006   5.46823
    R6        5.46829   0.00001  -0.00014   0.00008  -0.00006   5.46823
    R7        5.46829   0.00001  -0.00014   0.00008  -0.00006   5.46823
    A1        1.89607  -0.00002  -0.00032  -0.00006  -0.00038   1.89569
    A2        1.89607  -0.00002  -0.00032  -0.00006  -0.00038   1.89569
    A3        1.89607  -0.00002  -0.00032  -0.00006  -0.00038   1.89569
    A4        1.92497   0.00002   0.00031   0.00006   0.00037   1.92534
    A5        1.92497   0.00002   0.00031   0.00006   0.00037   1.92534
    A6        1.92497   0.00002   0.00031   0.00006   0.00037   1.92534
    A7        1.53302  -0.00003  -0.00031  -0.00012  -0.00043   1.53259
    A8        1.53302  -0.00003  -0.00031  -0.00012  -0.00043   1.53259
    A9        1.53302  -0.00003  -0.00031  -0.00012  -0.00043   1.53259
   A10        0.62522   0.00002  -0.00002   0.00011   0.00009   0.62531
   A11        0.62522   0.00002  -0.00002   0.00011   0.00009   0.62531
   A12        0.62522   0.00002  -0.00002   0.00011   0.00009   0.62531
    D1        3.14159   0.00000   0.00000  -0.00000   0.00000   3.14159
    D2        1.06527   0.00002   0.00040   0.00008   0.00047   1.06574
    D3       -1.06527  -0.00002  -0.00040  -0.00008  -0.00047  -1.06574
    D4        3.14159   0.00000   0.00000  -0.00000  -0.00000   3.14159
    D5       -1.06527  -0.00002  -0.00040  -0.00008  -0.00047  -1.06574
    D6        1.06527   0.00002   0.00040   0.00008   0.00047   1.06574
    D7        3.14159  -0.00000   0.00000   0.00000   0.00000   3.14159
    D8        1.06527   0.00002   0.00040   0.00008   0.00047   1.06574
    D9       -1.06527  -0.00002  -0.00040  -0.00008  -0.00047  -1.06574
   D10       -0.55326  -0.00000   0.00000  -0.00001  -0.00001  -0.55327
   D11        0.55326   0.00000  -0.00000   0.00001   0.00001   0.55327
   D12        0.55326   0.00000  -0.00000   0.00001   0.00001   0.55327
   D13       -0.55326  -0.00000   0.00000  -0.00001  -0.00001  -0.55327
   D14       -0.55326  -0.00000   0.00000  -0.00001  -0.00001  -0.55327
   D15        0.55326   0.00000  -0.00000   0.00001   0.00001   0.55327
         Item               Value     Threshold  Converged?
 Maximum Force            0.000161     0.000450     YES
 RMS     Force            0.000037     0.000300     YES
 Maximum Displacement     0.000616     0.001800     YES
 RMS     Displacement     0.000142     0.001200     YES
 Predicted change in Energy=-1.341267D-07
 Optimization completed.
    -- Stationary point found.
                           ----------------------------
                           !   Optimized Parameters   !
                           ! (Angstroms and Degrees)  !
 --------------------------                            --------------------------
 ! Name  Definition              Value          Derivative Info.                !
 --------------------------------------------------------------------------------
 ! R1    R(1,2)                  1.8323         -DE/DX =    0.0002              !
 ! R2    R(2,3)                  1.0845         -DE/DX =    0.0001              !
 ! R3    R(2,4)                  1.0845         -DE/DX =    0.0001              !
 ! R4    R(2,5)                  1.0845         -DE/DX =    0.0001              !
 ! R5    R(3,6)                  2.8937         -DE/DX =    0.0                 !
 ! R6    R(4,6)                  2.8937         -DE/DX =    0.0                 !
 ! R7    R(5,6)                  2.8937         -DE/DX =    0.0                 !
 ! A1    A(1,2,3)              108.6366         -DE/DX =    0.0                 !
 ! A2    A(1,2,4)              108.6366         -DE/DX =    0.0                 !
 ! A3    A(1,2,5)              108.6366         -DE/DX =    0.0                 !
 ! A4    A(3,2,4)              110.2928         -DE/DX =    0.0                 !
 ! A5    A(3,2,5)              110.2928         -DE/DX =    0.0                 !
 ! A6    A(4,2,5)              110.2928         -DE/DX =    0.0                 !
 ! A7    A(2,3,6)               87.8357         -DE/DX =    0.0                 !
 ! A8    A(2,4,6)               87.8357         -DE/DX =    0.0                 !
 ! A9    A(2,5,6)               87.8357         -DE/DX =    0.0                 !
 ! A10   A(3,6,4)               35.8226         -DE/DX =    0.0                 !
 ! A11   A(3,6,5)               35.8226         -DE/DX =    0.0                 !
 ! A12   A(4,6,5)               35.8226         -DE/DX =    0.0                 !
 ! D1    D(1,2,3,6)            180.0            -DE/DX =    0.0                 !
 ! D2    D(4,2,3,6)             61.0354         -DE/DX =    0.0                 !
 ! D3    D(5,2,3,6)            -61.0354         -DE/DX =    0.0                 !
 ! D4    D(1,2,4,6)            180.0            -DE/DX =    0.0                 !
 ! D5    D(3,2,4,6)            -61.0354         -DE/DX =    0.0                 !
 ! D6    D(5,2,4,6)             61.0354         -DE/DX =    0.0                 !
 ! D7    D(1,2,5,6)            180.0            -DE/DX =    0.0                 !
 ! D8    D(3,2,5,6)             61.0354         -DE/DX =    0.0                 !
 ! D9    D(4,2,5,6)            -61.0354         -DE/DX =    0.0                 !
 ! D10   D(2,3,6,4)            -31.6997         -DE/DX =    0.0                 !
 ! D11   D(2,3,6,5)             31.6997         -DE/DX =    0.0                 !
 ! D12   D(2,4,6,3)             31.6997         -DE/DX =    0.0                 !
 ! D13   D(2,4,6,5)            -31.6997         -DE/DX =    0.0                 !
 ! D14   D(2,5,6,3)            -31.6997         -DE/DX =    0.0                 !
 ! D15   D(2,5,6,4)             31.6997         -DE/DX =    0.0                 !
 --------------------------------------------------------------------------------
 Lowest energy point so far.  Saving SCF results.
 Largest change from initial coordinates is atom    6       0.079 Angstoms.
 GradGradGradGradGradGradGradGradGradGradGradGradGradGradGradGradGradGrad

 Leave Link  103 at Wed Oct  7 13:30:00 2020, MaxMem=  2684354560 cpu:               2.7 elap:               0.7
 (Enter /udrive/faculty/rpeverati/g16/g16/l202.exe)
                          Input orientation:                          
 ---------------------------------------------------------------------
 Center     Atomic      Atomic             Coordinates (Angstroms)
 Number     Number       Type             X           Y           Z
 ---------------------------------------------------------------------
      1         17           0        0.000000   -0.000000   -2.208844
      2          6           0        0.000000   -0.000000   -0.376496
      3          1           0       -0.513806    0.889939   -0.029936
      4          1           0       -0.513806   -0.889939   -0.029936
      5          1           0        1.027613   -0.000000   -0.029936
      6         17           0        0.000000   -0.000000    2.675148
 ---------------------------------------------------------------------
                    Distance matrix (angstroms):
                    1          2          3          4          5
     1  Cl   0.000000
     2  C    1.832348   0.000000
     3  H    2.409072   1.084478   0.000000
     4  H    2.409072   1.084478   1.779877   0.000000
     5  H    2.409072   1.084478   1.779877   1.779877   0.000000
     6  Cl   4.883992   3.051645   2.893695   2.893695   2.893695
                    6
     6  Cl   0.000000
 Stoichiometry    CH3Cl2(1-)
 Framework group  C3V[C3(ClCCl),3SGV(H)]
 Deg. of freedom     4
 Full point group                 C3V     NOp   6
 RotChk:  IX=0 Diff= 0.00D+00
 Largest Abelian subgroup         CS      NOp   2
 Largest concise Abelian subgroup CS      NOp   2
                         Standard orientation:                         
 ---------------------------------------------------------------------
 Center     Atomic      Atomic             Coordinates (Angstroms)
 Number     Number       Type             X           Y           Z
 ---------------------------------------------------------------------
      1         17           0        0.000000    0.000000   -2.338574
      2          6           0        0.000000    0.000000   -0.506226
      3          1           0       -0.000000    1.027613   -0.159666
      4          1           0       -0.889939   -0.513806   -0.159666
      5          1           0        0.889939   -0.513806   -0.159666
      6         17           0        0.000000    0.000000    2.545418
 ---------------------------------------------------------------------
 Rotational constants (GHZ):         158.2894482           1.1960104           1.1960104
 Leave Link  202 at Wed Oct  7 13:30:01 2020, MaxMem=  2684354560 cpu:               1.2 elap:               0.6
 (Enter /udrive/faculty/rpeverati/g16/g16/l601.exe)
 Copying SCF densities to generalized density rwf, IOpCl= 0 IROHF=0.

 **********************************************************************

            Population analysis using the SCF density.

 **********************************************************************

 Orbital symmetries:
       Occupied  (A1) (A1) (A1) (A1) (A1) (A1) (E) (E) (A1) (E)
                 (E) (A1) (A1) (A1) (E) (E) (A1) (E) (E) (A1) (E)
                 (E)
       Virtual   (A1) (A1) (E) (E) (A1) (A1) (E) (E) (A1) (E) (E)
                 (A1) (E) (E) (A1) (E) (E) (E) (E) (A1) (E) (E)
                 (A1) (E) (E) (E) (E) (A1) (A1) (E) (E) (A1) (E)
                 (E)
 The electronic state is 1-A1.
 Alpha  occ. eigenvalues -- -102.49462-102.31562 -10.43953  -9.65884  -9.47459
 Alpha  occ. eigenvalues --   -7.38018  -7.37436  -7.37436  -7.19292  -7.19264
 Alpha  occ. eigenvalues --   -7.19264  -0.79955  -0.61552  -0.56148  -0.36022
 Alpha  occ. eigenvalues --   -0.36022  -0.32073  -0.22442  -0.22442  -0.07753
 Alpha  occ. eigenvalues --   -0.07719  -0.07719
 Alpha virt. eigenvalues --    0.22125   0.31260   0.35256   0.35256   0.57716
 Alpha virt. eigenvalues --    0.61094   0.63240   0.63240   0.67682   0.71261
 Alpha virt. eigenvalues --    0.71261   0.77159   0.77922   0.77922   0.99662
 Alpha virt. eigenvalues --    1.06273   1.06273   1.10946   1.10946   1.11648
 Alpha virt. eigenvalues --    1.14188   1.14188   1.23603   1.26131   1.26131
 Alpha virt. eigenvalues --    1.26797   1.26797   1.31764   1.45929   1.88639
 Alpha virt. eigenvalues --    1.88639   2.34635   2.43278   2.43278
          Condensed to atoms (all electrons):
               1          2          3          4          5          6
     1  Cl  17.206319   0.141739  -0.043112  -0.043112  -0.043112   0.002900
     2  C    0.141739   5.235329   0.381231   0.381231   0.381231  -0.011977
     3  H   -0.043112   0.381231   0.475922  -0.021417  -0.021417   0.004703
     4  H   -0.043112   0.381231  -0.021417   0.475922  -0.021417   0.004703
     5  H   -0.043112   0.381231  -0.021417  -0.021417   0.475922   0.004703
     6  Cl   0.002900  -0.011977   0.004703   0.004703   0.004703  17.936832
 Mulliken charges:
               1
     1  Cl  -0.221621
     2  C   -0.508785
     3  H    0.224090
     4  H    0.224090
     5  H    0.224090
     6  Cl  -0.941864
 Sum of Mulliken charges =  -1.00000
 Mulliken charges with hydrogens summed into heavy atoms:
               1
     1  Cl  -0.221621
     2  C    0.163485
     6  Cl  -0.941864
 Electronic spatial extent (au):  <R**2>=            850.3364
 Charge=             -1.0000 electrons
 Dipole moment (field-independent basis, Debye):
    X=             -0.0000    Y=             -0.0000    Z=             -7.9393  Tot=              7.9393
 Quadrupole moment (field-independent basis, Debye-Ang):
   XX=            -35.5765   YY=            -35.5765   ZZ=            -73.9951
   XY=             -0.0000   XZ=              0.0000   YZ=              0.0000
 Traceless Quadrupole moment (field-independent basis, Debye-Ang):
   XX=             12.8062   YY=             12.8062   ZZ=            -25.6124
   XY=             -0.0000   XZ=              0.0000   YZ=              0.0000
 Octapole moment (field-independent basis, Debye-Ang**2):
  XXX=              0.0000  YYY=              0.8431  ZZZ=            -72.7072  XYY=              0.0000
  XXY=             -0.8431  XXZ=             -4.6310  XZZ=              0.0000  YZZ=              0.0000
  YYZ=             -4.6310  XYZ=              0.0000
 Hexadecapole moment (field-independent basis, Debye-Ang**3):
 XXXX=            -46.9940 YYYY=            -46.9940 ZZZZ=          -1295.3561 XXXY=              0.0000
 XXXZ=             -0.0000 YYYX=              0.0000 YYYZ=             -0.1398 ZZZX=             -0.0000
 ZZZY=              0.0000 XXYY=            -15.6647 XXZZ=           -191.6795 YYZZ=           -191.6795
 XXYZ=              0.1398 YYXZ=             -0.0000 ZZXY=              0.0000
 N-N= 1.086621239088D+02 E-N=-2.508854358065D+03  KE= 9.588112094317D+02
 No NMR shielding tensors so no spin-rotation constants.
 Leave Link  601 at Wed Oct  7 13:30:02 2020, MaxMem=  2684354560 cpu:               4.6 elap:               0.9
 (Enter /udrive/faculty/rpeverati/g16/g16/l9999.exe)

 Test job not archived.
 1\1\GINC-NODE51\FOpt\RM062X\6-31G(d)\C1H3Cl2(1-)\RPEVERATI\07-Oct-2020
 \0\\#P Opt(MaxCyc=100) M062X/6-31G* 5D 7F Integral=UltraFineGrid SCF=(
 NoSymm,XQC,MaxCyc=120) IOp(1/33=1)\\TS search on BH76.\\-1,1\Cl,0.,0.,
 -2.2088441155\C,0.,0.,-0.3764963894\H,-0.5138062972,0.8899386119,-0.02
 99359462\H,-0.5138062972,-0.8899386119,-0.0299359462\H,1.0276125943,0.
 ,-0.0299359462\Cl,0.,0.,2.6751483572\\Version=ES64L-G16RevA.03\State=1
 -A1\HF=-960.2771735\RMSD=3.674e-09\RMSF=8.607e-05\Dipole=0.,0.,-3.1235
 438\Quadrupole=9.5210958,9.5210958,-19.0421915,0.,0.,0.\PG=C03V [C3(Cl
 1C1Cl1),3SGV(H1)]\\@


 Any fool can criticize, condemn, and complain -- and most do.
 -- Dale Carnegie
 Job cpu time:       0 days  0 hours  7 minutes 20.0 seconds.
 Elapsed time:       0 days  0 hours  1 minutes 13.1 seconds.
 File lengths (MBytes):  RWF=      5 Int=      0 D2E=      0 Chk=      1 Scr=      1
 Normal termination of Gaussian 16 at Wed Oct  7 13:30:03 2020.
