 Entering Gaussian System, Link 0=g16
 Input=MN_32_co_BH76_M062X_631Gs.in
 Output=MN_32_co_BH76_M062X_631Gs.log
 Initial command:
 /udrive/faculty/rpeverati/g16/g16/l1.exe "/udrive/scratch-directories/gaussian09/rpeverati/Gau-13714.inp" -scrdir="/udrive/scratch-directories/gaussian09/rpeverati/"
 Entering Link 1 = /udrive/faculty/rpeverati/g16/g16/l1.exe PID=     13731.
  
 Copyright (c) 1988,1990,1992,1993,1995,1998,2003,2009,2016,
            Gaussian, Inc.  All Rights Reserved.
  
 This is part of the Gaussian(R) 16 program.  It is based on
 the Gaussian(R) 09 system (copyright 2009, Gaussian, Inc.),
 the Gaussian(R) 03 system (copyright 2003, Gaussian, Inc.),
 the Gaussian(R) 98 system (copyright 1998, Gaussian, Inc.),
 the Gaussian(R) 94 system (copyright 1995, Gaussian, Inc.),
 the Gaussian 92(TM) system (copyright 1992, Gaussian, Inc.),
 the Gaussian 90(TM) system (copyright 1990, Gaussian, Inc.),
 the Gaussian 88(TM) system (copyright 1988, Gaussian, Inc.),
 the Gaussian 86(TM) system (copyright 1986, Carnegie Mellon
 University), and the Gaussian 82(TM) system (copyright 1983,
 Carnegie Mellon University). Gaussian is a federally registered
 trademark of Gaussian, Inc.
  
 This software contains proprietary and confidential information,
 including trade secrets, belonging to Gaussian, Inc.
  
 This software is provided under written license and may be
 used, copied, transmitted, or stored only in accord with that
 written license.
  
 The following legend is applicable only to US Government
 contracts under FAR:
  
                    RESTRICTED RIGHTS LEGEND
  
 Use, reproduction and disclosure by the US Government is
 subject to restrictions as set forth in subparagraphs (a)
 and (c) of the Commercial Computer Software - Restricted
 Rights clause in FAR 52.227-19.
  
 Gaussian, Inc.
 340 Quinnipiac St., Bldg. 40, Wallingford CT 06492
  
  
 ---------------------------------------------------------------
 Warning -- This program may not be used in any manner that
 competes with the business of Gaussian, Inc. or will provide
 assistance to any competitor of Gaussian, Inc.  The licensee
 of this program is prohibited from giving any competitor of
 Gaussian, Inc. access to this program.  By using this program,
 the user acknowledges that Gaussian, Inc. is engaged in the
 business of creating and licensing software in the field of
 computational chemistry and represents and warrants to the
 licensee that it is not a competitor of Gaussian, Inc. and that
 it will not use this program in any manner prohibited above.
 ---------------------------------------------------------------
  

 Cite this work as:
 Gaussian 16, Revision A.03,
 M. J. Frisch, G. W. Trucks, H. B. Schlegel, G. E. Scuseria, 
 M. A. Robb, J. R. Cheeseman, G. Scalmani, V. Barone, 
 G. A. Petersson, H. Nakatsuji, X. Li, M. Caricato, A. V. Marenich, 
 J. Bloino, B. G. Janesko, R. Gomperts, B. Mennucci, H. P. Hratchian, 
 J. V. Ortiz, A. F. Izmaylov, J. L. Sonnenberg, D. Williams-Young, 
 F. Ding, F. Lipparini, F. Egidi, J. Goings, B. Peng, A. Petrone, 
 T. Henderson, D. Ranasinghe, V. G. Zakrzewski, J. Gao, N. Rega, 
 G. Zheng, W. Liang, M. Hada, M. Ehara, K. Toyota, R. Fukuda, 
 J. Hasegawa, M. Ishida, T. Nakajima, Y. Honda, O. Kitao, H. Nakai, 
 T. Vreven, K. Throssell, J. A. Montgomery, Jr., J. E. Peralta, 
 F. Ogliaro, M. J. Bearpark, J. J. Heyd, E. N. Brothers, K. N. Kudin, 
 V. N. Staroverov, T. A. Keith, R. Kobayashi, J. Normand, 
 K. Raghavachari, A. P. Rendell, J. C. Burant, S. S. Iyengar, 
 J. Tomasi, M. Cossi, J. M. Millam, M. Klene, C. Adamo, R. Cammi, 
 J. W. Ochterski, R. L. Martin, K. Morokuma, O. Farkas, 
 J. B. Foresman, and D. J. Fox, Gaussian, Inc., Wallingford CT, 2016.
 
 ******************************************
 Gaussian 16:  ES64L-G16RevA.03 25-Dec-2016
                 7-Oct-2020 
 ******************************************
 %NoSave
 %nproc=12
 Will use up to   12 processors via shared memory.
 %mem=20GB
 %chk=MN_32_co_BH76_M062X_631Gs
 ----------------------------------------------------------------------
 #P Opt(MaxCyc=100) M062X/6-31G* 5D 7F Integral=UltraFineGrid SCF=(NoSy
 mm,XQC,MaxCyc=120) IOp(1/33=1)
 ----------------------------------------------------------------------
 1/6=100,18=20,19=15,26=4,33=1,38=1/1,3;
 2/9=110,12=2,17=6,18=5,40=1/2;
 3/5=1,6=6,7=1,8=11,11=2,25=1,30=1,71=1,74=-55,75=-5/1,2,3;
 4/9=2/1;
 5/5=2,7=120,8=3,13=1,38=5/2,8;
 6/7=2,8=2,9=2,10=2,28=1/1;
 7//1,2,3,16;
 1/6=100,18=20,19=15,26=4,33=1/3(2);
 2/9=110/2;
 99//99;
 2/9=110/2;
 3/5=1,6=6,7=1,8=11,11=2,25=1,30=1,71=1,74=-55,75=-5/1,2,3;
 4/5=5,9=2,16=3,69=1/1;
 5/5=2,7=120,8=3,13=1,38=5/2,8;
 7//1,2,3,16;
 1/6=100,18=20,19=15,26=4,33=1/3(-5);
 2/9=110/2;
 6/7=2,8=2,9=2,10=2,19=2,28=1/1;
 99/9=1/99;
 Leave Link    1 at Wed Oct  7 13:28:34 2020, MaxMem=  2684354560 cpu:               6.4 elap:               0.7
 (Enter /udrive/faculty/rpeverati/g16/g16/l101.exe)
 ONIOM data not found on unit 2.
 ------------------
 TS search on BH76.
 ------------------
 TstMul:  ICh=     0
 TstMul:  Mul=     1
 TstMul:  ICh=     0
 TstMul:  Mul=     1
 Symbolic Z-matrix:
 Charge =  0 Multiplicity = 1
 O                     0.        0.        0.48412 
 C                     0.        0.       -0.64549 
 
 RdStrC is calling ZToCFu for IStruc=1 NZ=     2.
 PrtBox:  NBox=     1 Levels=  1 BoxLen=    8.00 SMaxX=        2.13
          Shift=            0.000000            0.000000            1.219800
 Box      1 Number                   0 centers from      1 to      2:
 After GenITR:
 ITRead=  0  0
 MicOpt= -1 -1
 ITRead=  0  0
 MicOpt= -1 -1
 NAtoms=      2 NQM=        2 NQMF=       0 NMMI=      0 NMMIF=      0
                NMic=       0 NMicF=      0.
                    Isotopes and Nuclear Properties:
 (Nuclear quadrupole moments (NQMom) in fm**2, nuclear magnetic moments (NMagM)
  in nuclear magnetons)

  Atom         1           2
 IAtWgt=          16          12
 AtmWgt=  15.9949146  12.0000000
 NucSpn=           0           0
 AtZEff=   0.0000000   0.0000000
 NQMom=    0.0000000   0.0000000
 NMagM=    0.0000000   0.0000000
 AtZNuc=   8.0000000   6.0000000
 No MM parameters found.
 Leave Link  101 at Wed Oct  7 13:28:35 2020, MaxMem=  2684354560 cpu:               9.4 elap:               1.0
 (Enter /udrive/faculty/rpeverati/g16/g16/l103.exe)

 GradGradGradGradGradGradGradGradGradGradGradGradGradGradGradGradGradGrad
 Berny optimization.
 Optmz: redundant internal coordinate code flag= 1
 Initialization pass.
                           ----------------------------
                           !    Initial Parameters    !
                           ! (Angstroms and Degrees)  !
 --------------------------                            --------------------------
 ! Name  Definition              Value          Derivative Info.                !
 --------------------------------------------------------------------------------
 ! R1    R(1,2)                  1.1296         estimate D2E/DX2                !
 --------------------------------------------------------------------------------
 Maximum allowed force set to 1.00D+20.
 Trust Radius=3.00D-01 FncErr=1.00D-07 GrdErr=1.00D-06 EigMax=2.50D+02 EigMin=1.00D-04
 Number of steps in this run=    100 maximum allowed number of steps=    100.
 GradGradGradGradGradGradGradGradGradGradGradGradGradGradGradGradGradGrad

 Leave Link  103 at Wed Oct  7 13:28:36 2020, MaxMem=  2684354560 cpu:               1.0 elap:               0.5
 (Enter /udrive/faculty/rpeverati/g16/g16/l202.exe)
                          Input orientation:                          
 ---------------------------------------------------------------------
 Center     Atomic      Atomic             Coordinates (Angstroms)
 Number     Number       Type             X           Y           Z
 ---------------------------------------------------------------------
      1          8           0        0.000000    0.000000    0.484118
      2          6           0        0.000000    0.000000   -0.645490
 ---------------------------------------------------------------------
 Stoichiometry    CO
 Framework group  C*V[C*(CO)]
 Deg. of freedom     1
 Full point group                 C*V     NOp   4
 Largest Abelian subgroup         C2V     NOp   4
 Largest concise Abelian subgroup C1      NOp   1
                         Standard orientation:                         
 ---------------------------------------------------------------------
 Center     Atomic      Atomic             Coordinates (Angstroms)
 Number     Number       Type             X           Y           Z
 ---------------------------------------------------------------------
      1          8           0        0.000000    0.000000    0.484118
      2          6           0        0.000000    0.000000   -0.645491
 ---------------------------------------------------------------------
 Rotational constants (GHZ):           0.0000000          57.7666452          57.7666452
 Leave Link  202 at Wed Oct  7 13:28:37 2020, MaxMem=  2684354560 cpu:               1.1 elap:               0.6
 (Enter /udrive/faculty/rpeverati/g16/g16/l301.exe)
 Standard basis: 6-31G(d) (5D, 7F)
 Ernie: Thresh=  0.10000D-02 Tol=  0.10000D-05 Strict=F.
 There are    16 symmetry adapted cartesian basis functions of A1  symmetry.
 There are     2 symmetry adapted cartesian basis functions of A2  symmetry.
 There are     6 symmetry adapted cartesian basis functions of B1  symmetry.
 There are     6 symmetry adapted cartesian basis functions of B2  symmetry.
 There are    14 symmetry adapted basis functions of A1  symmetry.
 There are     2 symmetry adapted basis functions of A2  symmetry.
 There are     6 symmetry adapted basis functions of B1  symmetry.
 There are     6 symmetry adapted basis functions of B2  symmetry.
    28 basis functions,    56 primitive gaussians,    30 cartesian basis functions
     7 alpha electrons        7 beta electrons
       nuclear repulsion energy        22.4861113181 Hartrees.
 IExCor= 4336 DFT=T Ex+Corr=M062X ExCW=0 ScaHFX=  0.540000
 ScaDFX=  1.000000  1.000000  1.000000  1.000000 ScalE2=  1.000000  1.000000
 IRadAn=      5 IRanWt=     -1 IRanGd=            0 ICorTp=0 IEmpDi=  4
 NAtoms=    2 NActive=    2 NUniq=    2 SFac= 1.00D+00 NAtFMM=   60 NAOKFM=F Big=F
 Integral buffers will be    131072 words long.
 Raffenetti 2 integral format.
 Two-electron integral symmetry is turned on.
 Leave Link  301 at Wed Oct  7 13:28:37 2020, MaxMem=  2684354560 cpu:               2.3 elap:               0.5
 (Enter /udrive/faculty/rpeverati/g16/g16/l302.exe)
 NPDir=0 NMtPBC=     1 NCelOv=     1 NCel=       1 NClECP=     1 NCelD=      1
         NCelK=      1 NCelE2=     1 NClLst=     1 CellRange=     0.0.
 One-electron integrals computed using PRISM.
 One-electron integral symmetry used in STVInt
 NBasis=    28 RedAO= T EigKep=  1.52D-02  NBF=    14     2     6     6
 NBsUse=    28 1.00D-06 EigRej= -1.00D+00 NBFU=    14     2     6     6
 Precomputing XC quadrature grid using
 IXCGrd= 4 IRadAn=           5 IRanWt=          -1 IRanGd=           0 AccXCQ= 0.00D+00.
 Generated NRdTot=       0 NPtTot=           0 NUsed=           0 NTot=          32
 NSgBfM=    30    30    30    30    30 MxSgAt=     2 MxSgA2=     2.
 Leave Link  302 at Wed Oct  7 13:28:38 2020, MaxMem=  2684354560 cpu:               3.7 elap:               0.7
 (Enter /udrive/faculty/rpeverati/g16/g16/l303.exe)
 DipDrv:  MaxL=1.
 Leave Link  303 at Wed Oct  7 13:28:39 2020, MaxMem=  2684354560 cpu:               1.2 elap:               0.4
 (Enter /udrive/faculty/rpeverati/g16/g16/l401.exe)
 SCF N**3 symmetry information disabled.
 ExpMin= 1.69D-01 ExpMax= 5.48D+03 ExpMxC= 8.25D+02 IAcc=3 IRadAn=         5 AccDes= 0.00D+00
 Harris functional with IExCor= 1009 and IRadAn=       5 diagonalized for initial guess.
 HarFok:  IExCor= 1009 AccDes= 0.00D+00 IRadAn=         5 IDoV= 1 UseB2=F ITyADJ=14
 ICtDFT=  3500011 ScaDFX=  1.000000  1.000000  1.000000  1.000000
 FoFCou: FMM=F IPFlag=           0 FMFlag=      100000 FMFlg1=           0
         NFxFlg=           0 DoJE=T BraDBF=F KetDBF=T FulRan=T
         wScrn=  0.000000 ICntrl=       500 IOpCl=  0 I1Cent=   200000004 NGrid=           0
         NMat0=    1 NMatS0=      1 NMatT0=    0 NMatD0=    1 NMtDS0=    0 NMtDT0=    0
 Petite list used in FoFCou.
 Harris En= -113.177402561074    
 JPrj=0 DoOrth=F DoCkMO=F.
 Initial guess orbital symmetries:
       Occupied  (SG) (SG) (SG) (SG) (PI) (PI) (SG)
       Virtual   (PI) (PI) (SG) (PI) (PI) (SG) (SG) (SG) (PI) (PI)
                 (DLTA) (DLTA) (SG) (PI) (PI) (DLTA) (DLTA) (SG)
                 (PI) (PI) (SG)
 The electronic state of the initial guess is 1-SG.
 Leave Link  401 at Wed Oct  7 13:28:40 2020, MaxMem=  2684354560 cpu:               5.5 elap:               0.8
 (Enter /udrive/faculty/rpeverati/g16/g16/l502.exe)
 Keep R1 ints in memory in symmetry-blocked form, NReq=10441445.
 FoFCou: FMM=F IPFlag=           0 FMFlag=           0 FMFlg1=           0
         NFxFlg=           0 DoJE=F BraDBF=F KetDBF=F FulRan=T
         wScrn=  0.000000 ICntrl=       600 IOpCl=  0 I1Cent=           0 NGrid=           0
         NMat0=    1 NMatS0=    406 NMatT0=    0 NMatD0=    1 NMtDS0=    0 NMtDT0=    0
 Petite list used in FoFCou.
 Closed shell SCF:
 Using DIIS extrapolation, IDIIS=  1040.
 NGot=  2684354560 LenX=  2684327255 LenY=  2684325914
 Requested convergence on RMS density matrix=1.00D-08 within 120 cycles.
 Requested convergence on MAX density matrix=1.00D-06.
 Requested convergence on             energy=1.00D-06.
 No special actions if energy rises.
 Integral accuracy reduced to 1.0D-05 until final iterations.

 Cycle   1  Pass 0  IDiag  1:
 E= -113.253631803843    
 DIIS: error= 3.00D-02 at cycle   1 NSaved=   1.
 NSaved= 1 IEnMin= 1 EnMin= -113.253631803843     IErMin= 1 ErrMin= 3.00D-02
 ErrMax= 3.00D-02  0.00D+00 EMaxC= 1.00D-01 BMatC= 2.50D-02 BMatP= 2.50D-02
 IDIUse=3 WtCom= 7.00D-01 WtEn= 3.00D-01
 Coeff-Com:  0.100D+01
 Coeff-En:   0.100D+01
 Coeff:      0.100D+01
 Gap=     0.497 Goal=   None    Shift=    0.000
 GapD=    0.497 DampG=2.000 DampE=0.500 DampFc=1.0000 IDamp=-1.
 RMSDP=5.90D-03 MaxDP=7.72D-02              OVMax= 8.41D-02

 Cycle   2  Pass 0  IDiag  1:
 E= -113.241992294725     Delta-E=        0.011639509118 Rises=F Damp=F
 DIIS: error= 3.89D-02 at cycle   2 NSaved=   2.
 NSaved= 2 IEnMin= 1 EnMin= -113.253631803843     IErMin= 1 ErrMin= 3.00D-02
 ErrMax= 3.89D-02  0.00D+00 EMaxC= 1.00D-01 BMatC= 3.86D-02 BMatP= 2.50D-02
 IDIUse=2 WtCom= 0.00D+00 WtEn= 1.00D+00
 Coeff-En:   0.632D+00 0.368D+00
 Coeff:      0.632D+00 0.368D+00
 Gap=     0.477 Goal=   None    Shift=    0.000
 RMSDP=3.38D-03 MaxDP=3.69D-02 DE= 1.16D-02 OVMax= 5.20D-02

 Cycle   3  Pass 0  IDiag  1:
 E= -113.269011387546     Delta-E=       -0.027019092821 Rises=F Damp=F
 DIIS: error= 2.23D-03 at cycle   3 NSaved=   3.
 NSaved= 3 IEnMin= 3 EnMin= -113.269011387546     IErMin= 3 ErrMin= 2.23D-03
 ErrMax= 2.23D-03  0.00D+00 EMaxC= 1.00D-01 BMatC= 1.58D-04 BMatP= 2.50D-02
 IDIUse=3 WtCom= 9.78D-01 WtEn= 2.23D-02
 Coeff-Com:  0.481D-01 0.119D-01 0.940D+00
 Coeff-En:   0.000D+00 0.000D+00 0.100D+01
 Coeff:      0.470D-01 0.117D-01 0.941D+00
 Gap=     0.478 Goal=   None    Shift=    0.000
 RMSDP=7.20D-04 MaxDP=1.20D-02 DE=-2.70D-02 OVMax= 5.40D-03

 Cycle   4  Pass 0  IDiag  1:
 E= -113.269144968001     Delta-E=       -0.000133580455 Rises=F Damp=F
 DIIS: error= 8.98D-04 at cycle   4 NSaved=   4.
 NSaved= 4 IEnMin= 4 EnMin= -113.269144968001     IErMin= 4 ErrMin= 8.98D-04
 ErrMax= 8.98D-04  0.00D+00 EMaxC= 1.00D-01 BMatC= 2.34D-05 BMatP= 1.58D-04
 IDIUse=3 WtCom= 9.91D-01 WtEn= 8.98D-03
 Coeff-Com: -0.518D-02-0.206D-01 0.234D+00 0.792D+00
 Coeff-En:   0.000D+00 0.000D+00 0.000D+00 0.100D+01
 Coeff:     -0.513D-02-0.204D-01 0.232D+00 0.794D+00
 Gap=     0.478 Goal=   None    Shift=    0.000
 RMSDP=1.69D-04 MaxDP=2.53D-03 DE=-1.34D-04 OVMax= 1.44D-03

 Cycle   5  Pass 0  IDiag  1:
 E= -113.269167630376     Delta-E=       -0.000022662375 Rises=F Damp=F
 DIIS: error= 8.29D-05 at cycle   5 NSaved=   5.
 NSaved= 5 IEnMin= 5 EnMin= -113.269167630376     IErMin= 5 ErrMin= 8.29D-05
 ErrMax= 8.29D-05  0.00D+00 EMaxC= 1.00D-01 BMatC= 1.91D-07 BMatP= 2.34D-05
 IDIUse=1 WtCom= 1.00D+00 WtEn= 0.00D+00
 Coeff-Com: -0.533D-03-0.297D-02 0.904D-02 0.432D-01 0.951D+00
 Coeff:     -0.533D-03-0.297D-02 0.904D-02 0.432D-01 0.951D+00
 Gap=     0.478 Goal=   None    Shift=    0.000
 RMSDP=8.97D-06 MaxDP=1.05D-04 DE=-2.27D-05 OVMax= 9.81D-05

 Initial convergence to 1.0D-05 achieved.  Increase integral accuracy.
 Cycle   6  Pass 1  IDiag  1:
 E= -113.269170212193     Delta-E=       -0.000002581817 Rises=F Damp=F
 DIIS: error= 1.33D-05 at cycle   1 NSaved=   1.
 NSaved= 1 IEnMin= 1 EnMin= -113.269170212193     IErMin= 1 ErrMin= 1.33D-05
 ErrMax= 1.33D-05  0.00D+00 EMaxC= 1.00D-01 BMatC= 5.52D-09 BMatP= 5.52D-09
 IDIUse=1 WtCom= 1.00D+00 WtEn= 0.00D+00
 Coeff-Com:  0.100D+01
 Coeff:      0.100D+01
 Gap=     0.478 Goal=   None    Shift=    0.000
 RMSDP=8.97D-06 MaxDP=1.05D-04 DE=-2.58D-06 OVMax= 2.94D-05

 Cycle   7  Pass 1  IDiag  1:
 E= -113.269170212331     Delta-E=       -0.000000000138 Rises=F Damp=F
 DIIS: error= 1.68D-05 at cycle   2 NSaved=   2.
 NSaved= 2 IEnMin= 2 EnMin= -113.269170212331     IErMin= 1 ErrMin= 1.33D-05
 ErrMax= 1.68D-05  0.00D+00 EMaxC= 1.00D-01 BMatC= 5.66D-09 BMatP= 5.52D-09
 IDIUse=1 WtCom= 1.00D+00 WtEn= 0.00D+00
 Coeff-Com:  0.504D+00 0.496D+00
 Coeff:      0.504D+00 0.496D+00
 Gap=     0.478 Goal=   None    Shift=    0.000
 RMSDP=1.80D-06 MaxDP=2.04D-05 DE=-1.38D-10 OVMax= 2.91D-05

 Cycle   8  Pass 1  IDiag  1:
 E= -113.269170216257     Delta-E=       -0.000000003926 Rises=F Damp=F
 DIIS: error= 4.46D-06 at cycle   3 NSaved=   3.
 NSaved= 3 IEnMin= 3 EnMin= -113.269170216257     IErMin= 3 ErrMin= 4.46D-06
 ErrMax= 4.46D-06  0.00D+00 EMaxC= 1.00D-01 BMatC= 6.89D-10 BMatP= 5.52D-09
 IDIUse=1 WtCom= 1.00D+00 WtEn= 0.00D+00
 Coeff-Com: -0.391D-01 0.243D+00 0.796D+00
 Coeff:     -0.391D-01 0.243D+00 0.796D+00
 Gap=     0.478 Goal=   None    Shift=    0.000
 RMSDP=6.85D-07 MaxDP=8.82D-06 DE=-3.93D-09 OVMax= 4.74D-06

 Cycle   9  Pass 1  IDiag  1:
 E= -113.269170216734     Delta-E=       -0.000000000477 Rises=F Damp=F
 DIIS: error= 3.90D-07 at cycle   4 NSaved=   4.
 NSaved= 4 IEnMin= 4 EnMin= -113.269170216734     IErMin= 4 ErrMin= 3.90D-07
 ErrMax= 3.90D-07  0.00D+00 EMaxC= 1.00D-01 BMatC= 5.24D-12 BMatP= 6.89D-10
 IDIUse=1 WtCom= 1.00D+00 WtEn= 0.00D+00
 Coeff-Com: -0.230D-01 0.155D-01 0.273D-01 0.980D+00
 Coeff:     -0.230D-01 0.155D-01 0.273D-01 0.980D+00
 Gap=     0.478 Goal=   None    Shift=    0.000
 RMSDP=1.05D-07 MaxDP=1.53D-06 DE=-4.77D-10 OVMax= 7.04D-07

 Cycle  10  Pass 1  IDiag  1:
 E= -113.269170216739     Delta-E=       -0.000000000004 Rises=F Damp=F
 DIIS: error= 5.63D-08 at cycle   5 NSaved=   5.
 NSaved= 5 IEnMin= 5 EnMin= -113.269170216739     IErMin= 5 ErrMin= 5.63D-08
 ErrMax= 5.63D-08  0.00D+00 EMaxC= 1.00D-01 BMatC= 1.08D-13 BMatP= 5.24D-12
 IDIUse=1 WtCom= 1.00D+00 WtEn= 0.00D+00
 Coeff-Com: -0.605D-03-0.349D-02-0.231D-01 0.849D-01 0.942D+00
 Coeff:     -0.605D-03-0.349D-02-0.231D-01 0.849D-01 0.942D+00
 Gap=     0.478 Goal=   None    Shift=    0.000
 RMSDP=1.06D-08 MaxDP=1.13D-07 DE=-4.23D-12 OVMax= 1.06D-07

 Cycle  11  Pass 1  IDiag  1:
 E= -113.269170216739     Delta-E=       -0.000000000000 Rises=F Damp=F
 DIIS: error= 1.39D-08 at cycle   6 NSaved=   6.
 NSaved= 6 IEnMin= 6 EnMin= -113.269170216739     IErMin= 6 ErrMin= 1.39D-08
 ErrMax= 1.39D-08  0.00D+00 EMaxC= 1.00D-01 BMatC= 6.27D-15 BMatP= 1.08D-13
 IDIUse=1 WtCom= 1.00D+00 WtEn= 0.00D+00
 Coeff-Com:  0.700D-03-0.381D-03-0.422D-02-0.258D-01 0.129D+00 0.901D+00
 Coeff:      0.700D-03-0.381D-03-0.422D-02-0.258D-01 0.129D+00 0.901D+00
 Gap=     0.478 Goal=   None    Shift=    0.000
 RMSDP=3.24D-09 MaxDP=5.18D-08 DE=-1.14D-13 OVMax= 2.31D-08

 SCF Done:  E(RM062X) =  -113.269170217     A.U. after   11 cycles
            NFock= 11  Conv=0.32D-08     -V/T= 2.0060
 KE= 1.125892719871D+02 PE=-3.108352840585D+02 EE= 6.249073053646D+01
 Leave Link  502 at Wed Oct  7 13:28:41 2020, MaxMem=  2684354560 cpu:               9.1 elap:               1.1
 (Enter /udrive/faculty/rpeverati/g16/g16/l508.exe)
 QCSCF skips out because SCF is already converged.
 Leave Link  508 at Wed Oct  7 13:28:42 2020, MaxMem=  2684354560 cpu:               0.4 elap:               0.4
 (Enter /udrive/faculty/rpeverati/g16/g16/l601.exe)
 Copying SCF densities to generalized density rwf, IOpCl= 0 IROHF=0.

 **********************************************************************

            Population analysis using the SCF density.

 **********************************************************************

 Orbital symmetries:
       Occupied  (SG) (SG) (SG) (SG) (PI) (PI) (SG)
       Virtual   (PI) (PI) (SG) (PI) (PI) (SG) (SG) (SG) (PI) (PI)
                 (DLTA) (DLTA) (SG) (PI) (PI) (DLTA) (DLTA) (SG)
                 (PI) (PI) (SG)
 The electronic state is 1-SG.
 Alpha  occ. eigenvalues --  -19.74428 -10.65893  -1.28218  -0.65977  -0.54321
 Alpha  occ. eigenvalues --   -0.54321  -0.43689
 Alpha virt. eigenvalues --    0.04106   0.04106   0.31116   0.57032   0.57032
 Alpha virt. eigenvalues --    0.63320   0.83372   0.91076   0.99940   0.99940
 Alpha virt. eigenvalues --    1.52569   1.52569   1.56319   1.61593   1.61593
 Alpha virt. eigenvalues --    2.00118   2.00118   2.49497   2.65229   2.65229
 Alpha virt. eigenvalues --    3.02301
          Condensed to atoms (all electrons):
               1          2
     1  O    7.591731   0.589339
     2  C    0.589339   5.229592
 Mulliken charges:
               1
     1  O   -0.181070
     2  C    0.181070
 Sum of Mulliken charges =  -0.00000
 Mulliken charges with hydrogens summed into heavy atoms:
               1
     1  O   -0.181070
     2  C    0.181070
 Electronic spatial extent (au):  <R**2>=             39.1186
 Charge=             -0.0000 electrons
 Dipole moment (field-independent basis, Debye):
    X=              0.0000    Y=              0.0000    Z=              0.0063  Tot=              0.0063
 Quadrupole moment (field-independent basis, Debye-Ang):
   XX=             -9.8739   YY=             -9.8739   ZZ=            -11.8545
   XY=             -0.0000   XZ=              0.0000   YZ=              0.0000
 Traceless Quadrupole moment (field-independent basis, Debye-Ang):
   XX=              0.6602   YY=              0.6602   ZZ=             -1.3204
   XY=             -0.0000   XZ=              0.0000   YZ=              0.0000
 Octapole moment (field-independent basis, Debye-Ang**2):
  XXX=              0.0000  YYY=              0.0000  ZZZ=              5.5382  XYY=              0.0000
  XXY=             -0.0000  XXZ=              1.0240  XZZ=              0.0000  YZZ=             -0.0000
  YYZ=              1.0240  XYZ=              0.0000
 Hexadecapole moment (field-independent basis, Debye-Ang**3):
 XXXX=             -7.7948 YYYY=             -7.7948 ZZZZ=            -33.8129 XXXY=             -0.0000
 XXXZ=              0.0000 YYYX=             -0.0000 YYYZ=              0.0000 ZZZX=              0.0000
 ZZZY=              0.0000 XXYY=             -2.5983 XXZZ=             -6.4133 YYZZ=             -6.4133
 XXYZ=              0.0000 YYXZ=              0.0000 ZZXY=             -0.0000
 N-N= 2.248611131814D+01 E-N=-3.108352839846D+02  KE= 1.125892719871D+02
 No NMR shielding tensors so no spin-rotation constants.
 Leave Link  601 at Wed Oct  7 13:28:43 2020, MaxMem=  2684354560 cpu:               3.2 elap:               0.5
 (Enter /udrive/faculty/rpeverati/g16/g16/l701.exe)
 ... and contract with generalized density number  0.
 Compute integral first derivatives.
 Leave Link  701 at Wed Oct  7 13:28:43 2020, MaxMem=  2684354560 cpu:               3.7 elap:               0.6
 (Enter /udrive/faculty/rpeverati/g16/g16/l702.exe)
 L702 exits ... SP integral derivatives will be done elsewhere.
 Leave Link  702 at Wed Oct  7 13:28:44 2020, MaxMem=  2684354560 cpu:               1.1 elap:               0.4
 (Enter /udrive/faculty/rpeverati/g16/g16/l703.exe)
 Integral derivatives from FoFJK, PRISM(SPDF).
 Compute integral first derivatives, UseDBF=F ICtDFT=           0.
 Calling FoFJK, ICntrl=      2127 FMM=F ISym2X=1 I1Cent= 0 IOpClX= 0 NMat=1 NMatS=1 NMatT=0.
 FoFJK:  IHMeth= 1 ICntrl=    2127 DoSepK=F KAlg= 0 I1Cent=           0 FoldK=F
 IRaf=         0 NMat=       1 IRICut=       1 DoRegI=T DoRafI=F ISym2E= 1 IDoP0=0 IntGTp=1.
 FoFCou: FMM=F IPFlag=           0 FMFlag=      100000 FMFlg1=         800
         NFxFlg=           0 DoJE=F BraDBF=F KetDBF=F FulRan=T
         wScrn=  0.000000 ICntrl=      2127 IOpCl=  0 I1Cent=           0 NGrid=           0
         NMat0=    1 NMatS0=      1 NMatT0=    0 NMatD0=    1 NMtDS0=    0 NMtDT0=    0
 Petite list used in FoFCou.
 Leave Link  703 at Wed Oct  7 13:28:45 2020, MaxMem=  2684354560 cpu:               4.6 elap:               0.7
 (Enter /udrive/faculty/rpeverati/g16/g16/l716.exe)
 Dipole        = 0.00000000D+00 3.81931865D-33 2.48061465D-03
 ***** Axes restored to original set *****
 -------------------------------------------------------------------
 Center     Atomic                   Forces (Hartrees/Bohr)
 Number     Number              X              Y              Z
 -------------------------------------------------------------------
      1        8           0.000000000    0.000000000    0.004154141
      2        6          -0.000000000   -0.000000000   -0.004154141
 -------------------------------------------------------------------
 Cartesian Forces:  Max     0.004154141 RMS     0.002398395
 Leave Link  716 at Wed Oct  7 13:28:46 2020, MaxMem=  2684354560 cpu:               1.3 elap:               0.5
 (Enter /udrive/faculty/rpeverati/g16/g16/l103.exe)

 GradGradGradGradGradGradGradGradGradGradGradGradGradGradGradGradGradGrad
 Berny optimization.
 Optmz: redundant internal coordinate code flag= 1
 FormGI is forming the generalized inverse of G from B-inverse, IUseBI=4.
 Internal  Forces:  Max     0.004154141 RMS     0.004154141
 Search for a local minimum.
 Step number   1 out of a maximum of  100
 All quantities printed in internal units (Hartrees-Bohrs-Radians)
 RMS Force = .41541D-02 SwitMx=.10000D-02 MixMth= 1
 Mixed Optimization -- RFO/linear search
 Second derivative matrix not updated -- first step.
 The second derivative matrix:
                          R1
           R1           1.49939
 ITU=  0
 Eigenvectors of the second derivative matrix:
                           1
     Eigenvalues --     1.49939
   1         R1         1.00000
 RFO step:  Lambda=-1.15091940D-05 EMin= 1.49938901D+00
 Linear search not attempted -- first point.
 Iteration  1 RMS(Cart)=  0.00195906 RMS(Int)=  0.00000000
 Iteration  2 RMS(Cart)=  0.00000000 RMS(Int)=  0.00000000
 ITry= 1 IFail=0 DXMaxC= 1.39D-03 DCOld= 1.00D+10 DXMaxT= 3.00D-01 DXLimC= 3.00D+00 Rises=F
 ClnCor:  largest displacement from symmetrization is 0.00D+00 for atom     0.
 Variable       Old X    -DE/DX   Delta X   Delta X   Delta X     New X
                                 (Linear)    (Quad)   (Total)
    R1        2.13465   0.00415   0.00000   0.00277   0.00277   2.13742
         Item               Value     Threshold  Converged?
 Maximum Force            0.004154     0.000450     NO 
 RMS     Force            0.004154     0.000300     NO 
 Maximum Displacement     0.001385     0.001800     YES
 RMS     Displacement     0.001959     0.001200     NO 
 Predicted change in Energy=-5.754641D-06
 Lowest energy point so far.  Saving SCF results.
 Largest change from initial coordinates is atom    1       0.001 Angstoms.
 GradGradGradGradGradGradGradGradGradGradGradGradGradGradGradGradGradGrad

 Leave Link  103 at Wed Oct  7 13:28:46 2020, MaxMem=  2684354560 cpu:               2.2 elap:               0.6
 (Enter /udrive/faculty/rpeverati/g16/g16/l202.exe)
                          Input orientation:                          
 ---------------------------------------------------------------------
 Center     Atomic      Atomic             Coordinates (Angstroms)
 Number     Number       Type             X           Y           Z
 ---------------------------------------------------------------------
      1          8           0        0.000000    0.000000    0.484851
      2          6           0        0.000000    0.000000   -0.646223
 ---------------------------------------------------------------------
 Stoichiometry    CO
 Framework group  C*V[C*(CO)]
 Deg. of freedom     1
 Full point group                 C*V     NOp   4
 RotChk:  IX=0 Diff= 0.00D+00
 Largest Abelian subgroup         C2V     NOp   4
 Largest concise Abelian subgroup C1      NOp   1
                         Standard orientation:                         
 ---------------------------------------------------------------------
 Center     Atomic      Atomic             Coordinates (Angstroms)
 Number     Number       Type             X           Y           Z
 ---------------------------------------------------------------------
      1          8           0        0.000000    0.000000    0.484746
      2          6           0        0.000000    0.000000   -0.646328
 ---------------------------------------------------------------------
 Rotational constants (GHZ):           0.0000000          57.6169875          57.6169875
 Leave Link  202 at Wed Oct  7 13:28:47 2020, MaxMem=  2684354560 cpu:               1.0 elap:               0.4
 (Enter /udrive/faculty/rpeverati/g16/g16/l301.exe)
 Standard basis: 6-31G(d) (5D, 7F)
 Ernie: Thresh=  0.10000D-02 Tol=  0.10000D-05 Strict=F.
 There are    16 symmetry adapted cartesian basis functions of A1  symmetry.
 There are     2 symmetry adapted cartesian basis functions of A2  symmetry.
 There are     6 symmetry adapted cartesian basis functions of B1  symmetry.
 There are     6 symmetry adapted cartesian basis functions of B2  symmetry.
 There are    14 symmetry adapted basis functions of A1  symmetry.
 There are     2 symmetry adapted basis functions of A2  symmetry.
 There are     6 symmetry adapted basis functions of B1  symmetry.
 There are     6 symmetry adapted basis functions of B2  symmetry.
    28 basis functions,    56 primitive gaussians,    30 cartesian basis functions
     7 alpha electrons        7 beta electrons
       nuclear repulsion energy        22.4569647247 Hartrees.
 IExCor= 4336 DFT=T Ex+Corr=M062X ExCW=0 ScaHFX=  0.540000
 ScaDFX=  1.000000  1.000000  1.000000  1.000000 ScalE2=  1.000000  1.000000
 IRadAn=      5 IRanWt=     -1 IRanGd=            0 ICorTp=0 IEmpDi=  4
 NAtoms=    2 NActive=    2 NUniq=    2 SFac= 1.00D+00 NAtFMM=   60 NAOKFM=F Big=F
 Integral buffers will be    131072 words long.
 Raffenetti 2 integral format.
 Two-electron integral symmetry is turned on.
 Leave Link  301 at Wed Oct  7 13:28:48 2020, MaxMem=  2684354560 cpu:               1.7 elap:               0.5
 (Enter /udrive/faculty/rpeverati/g16/g16/l302.exe)
 NPDir=0 NMtPBC=     1 NCelOv=     1 NCel=       1 NClECP=     1 NCelD=      1
         NCelK=      1 NCelE2=     1 NClLst=     1 CellRange=     0.0.
 One-electron integrals computed using PRISM.
 One-electron integral symmetry used in STVInt
 NBasis=    28 RedAO= T EigKep=  1.52D-02  NBF=    14     2     6     6
 NBsUse=    28 1.00D-06 EigRej= -1.00D+00 NBFU=    14     2     6     6
 Precomputing XC quadrature grid using
 IXCGrd= 4 IRadAn=           5 IRanWt=          -1 IRanGd=           0 AccXCQ= 0.00D+00.
 Generated NRdTot=       0 NPtTot=           0 NUsed=           0 NTot=          32
 NSgBfM=    30    30    30    30    30 MxSgAt=     2 MxSgA2=     2.
 Leave Link  302 at Wed Oct  7 13:28:49 2020, MaxMem=  2684354560 cpu:               3.8 elap:               0.7
 (Enter /udrive/faculty/rpeverati/g16/g16/l303.exe)
 DipDrv:  MaxL=1.
 Leave Link  303 at Wed Oct  7 13:28:49 2020, MaxMem=  2684354560 cpu:               1.5 elap:               0.4
 (Enter /udrive/faculty/rpeverati/g16/g16/l401.exe)
 Initial guess from the checkpoint file:  "MN_32_co_BH76_M062X_631Gs.chk"
 SCF N**3 symmetry information disabled.
 B after Tr=     0.000000    0.000000    0.000000
         Rot=    1.000000    0.000000    0.000000    0.000000 Ang=   0.00 deg.
 Guess basis will be translated and rotated to current coordinates.
 JPrj=2 DoOrth=T DoCkMO=T.
 Initial guess orbital symmetries:
       Occupied  (SG) (SG) (SG) (SG) (PI) (PI) (SG)
       Virtual   (PI) (PI) (SG) (PI) (PI) (SG) (SG) (SG) (PI) (PI)
                 (DLTA) (DLTA) (SG) (PI) (PI) (DLTA) (DLTA) (SG)
                 (PI) (PI) (SG)
 The electronic state of the initial guess is 1-SG.
 Leave Link  401 at Wed Oct  7 13:28:50 2020, MaxMem=  2684354560 cpu:               2.0 elap:               0.5
 (Enter /udrive/faculty/rpeverati/g16/g16/l502.exe)
 Keep R1 ints in memory in symmetry-blocked form, NReq=10441445.
 FoFCou: FMM=F IPFlag=           0 FMFlag=           0 FMFlg1=           0
         NFxFlg=           0 DoJE=F BraDBF=F KetDBF=F FulRan=T
         wScrn=  0.000000 ICntrl=       600 IOpCl=  0 I1Cent=           0 NGrid=           0
         NMat0=    1 NMatS0=    406 NMatT0=    0 NMatD0=    1 NMtDS0=    0 NMtDT0=    0
 Petite list used in FoFCou.
 Closed shell SCF:
 Using DIIS extrapolation, IDIIS=  1040.
 NGot=  2684354560 LenX=  2684327255 LenY=  2684325914
 Requested convergence on RMS density matrix=1.00D-08 within 120 cycles.
 Requested convergence on MAX density matrix=1.00D-06.
 Requested convergence on             energy=1.00D-06.
 No special actions if energy rises.

 Cycle   1  Pass 1  IDiag  1:
 E= -113.269175046033    
 DIIS: error= 1.83D-04 at cycle   1 NSaved=   1.
 NSaved= 1 IEnMin= 1 EnMin= -113.269175046033     IErMin= 1 ErrMin= 1.83D-04
 ErrMax= 1.83D-04  0.00D+00 EMaxC= 1.00D-01 BMatC= 1.33D-06 BMatP= 1.33D-06
 IDIUse=3 WtCom= 9.98D-01 WtEn= 1.83D-03
 Coeff-Com:  0.100D+01
 Coeff-En:   0.100D+01
 Coeff:      0.100D+01
 Gap=     0.478 Goal=   None    Shift=    0.000
 RMSDP=4.90D-05 MaxDP=3.19D-04              OVMax= 4.02D-04

 Cycle   2  Pass 1  IDiag  1:
 E= -113.269176259496     Delta-E=       -0.000001213462 Rises=F Damp=F
 DIIS: error= 8.73D-05 at cycle   2 NSaved=   2.
 NSaved= 2 IEnMin= 2 EnMin= -113.269176259496     IErMin= 2 ErrMin= 8.73D-05
 ErrMax= 8.73D-05  0.00D+00 EMaxC= 1.00D-01 BMatC= 2.89D-07 BMatP= 1.33D-06
 IDIUse=1 WtCom= 1.00D+00 WtEn= 0.00D+00
 Coeff-Com:  0.257D+00 0.743D+00
 Coeff:      0.257D+00 0.743D+00
 Gap=     0.477 Goal=   None    Shift=    0.000
 RMSDP=1.75D-05 MaxDP=1.90D-04 DE=-1.21D-06 OVMax= 2.20D-04

 Cycle   3  Pass 1  IDiag  1:
 E= -113.269176362718     Delta-E=       -0.000000103222 Rises=F Damp=F
 DIIS: error= 7.96D-05 at cycle   3 NSaved=   3.
 NSaved= 3 IEnMin= 3 EnMin= -113.269176362718     IErMin= 3 ErrMin= 7.96D-05
 ErrMax= 7.96D-05  0.00D+00 EMaxC= 1.00D-01 BMatC= 1.61D-07 BMatP= 2.89D-07
 IDIUse=1 WtCom= 1.00D+00 WtEn= 0.00D+00
 Coeff-Com:  0.304D-01 0.423D+00 0.546D+00
 Coeff:      0.304D-01 0.423D+00 0.546D+00
 Gap=     0.478 Goal=   None    Shift=    0.000
 RMSDP=9.82D-06 MaxDP=1.14D-04 DE=-1.03D-07 OVMax= 1.32D-04

 Cycle   4  Pass 1  IDiag  1:
 E= -113.269176472711     Delta-E=       -0.000000109993 Rises=F Damp=F
 DIIS: error= 2.04D-05 at cycle   4 NSaved=   4.
 NSaved= 4 IEnMin= 4 EnMin= -113.269176472711     IErMin= 4 ErrMin= 2.04D-05
 ErrMax= 2.04D-05  0.00D+00 EMaxC= 1.00D-01 BMatC= 8.34D-09 BMatP= 1.61D-07
 IDIUse=1 WtCom= 1.00D+00 WtEn= 0.00D+00
 Coeff-Com: -0.249D-01 0.392D-01 0.220D+00 0.766D+00
 Coeff:     -0.249D-01 0.392D-01 0.220D+00 0.766D+00
 Gap=     0.478 Goal=   None    Shift=    0.000
 RMSDP=2.35D-06 MaxDP=2.34D-05 DE=-1.10D-07 OVMax= 3.07D-05

 Cycle   5  Pass 1  IDiag  1:
 E= -113.269176480034     Delta-E=       -0.000000007323 Rises=F Damp=F
 DIIS: error= 7.00D-07 at cycle   5 NSaved=   5.
 NSaved= 5 IEnMin= 5 EnMin= -113.269176480034     IErMin= 5 ErrMin= 7.00D-07
 ErrMax= 7.00D-07  0.00D+00 EMaxC= 1.00D-01 BMatC= 1.41D-11 BMatP= 8.34D-09
 IDIUse=1 WtCom= 1.00D+00 WtEn= 0.00D+00
 Coeff-Com:  0.114D-02-0.765D-02-0.221D-01-0.259D-01 0.105D+01
 Coeff:      0.114D-02-0.765D-02-0.221D-01-0.259D-01 0.105D+01
 Gap=     0.478 Goal=   None    Shift=    0.000
 RMSDP=2.35D-07 MaxDP=3.50D-06 DE=-7.32D-09 OVMax= 1.46D-06

 Cycle   6  Pass 1  IDiag  1:
 E= -113.269176480048     Delta-E=       -0.000000000015 Rises=F Damp=F
 DIIS: error= 8.00D-08 at cycle   6 NSaved=   6.
 NSaved= 6 IEnMin= 6 EnMin= -113.269176480048     IErMin= 6 ErrMin= 8.00D-08
 ErrMax= 8.00D-08  0.00D+00 EMaxC= 1.00D-01 BMatC= 1.73D-13 BMatP= 1.41D-11
 IDIUse=1 WtCom= 1.00D+00 WtEn= 0.00D+00
 Coeff-Com: -0.257D-04 0.800D-03 0.125D-02 0.124D-02-0.155D+00 0.115D+01
 Coeff:     -0.257D-04 0.800D-03 0.125D-02 0.124D-02-0.155D+00 0.115D+01
 Gap=     0.478 Goal=   None    Shift=    0.000
 RMSDP=2.43D-08 MaxDP=2.74D-07 DE=-1.47D-11 OVMax= 1.44D-07

 Cycle   7  Pass 1  IDiag  1:
 E= -113.269176480048     Delta-E=        0.000000000000 Rises=F Damp=F
 DIIS: error= 1.54D-08 at cycle   7 NSaved=   7.
 NSaved= 7 IEnMin= 6 EnMin= -113.269176480048     IErMin= 7 ErrMin= 1.54D-08
 ErrMax= 1.54D-08  0.00D+00 EMaxC= 1.00D-01 BMatC= 7.32D-15 BMatP= 1.73D-13
 IDIUse=1 WtCom= 1.00D+00 WtEn= 0.00D+00
 Coeff-Com: -0.235D-04 0.117D-03 0.213D-03 0.823D-03-0.106D-01-0.411D-01
 Coeff-Com:  0.105D+01
 Coeff:     -0.235D-04 0.117D-03 0.213D-03 0.823D-03-0.106D-01-0.411D-01
 Coeff:      0.105D+01
 Gap=     0.478 Goal=   None    Shift=    0.000
 RMSDP=2.85D-09 MaxDP=3.97D-08 DE= 0.00D+00 OVMax= 2.38D-08

 SCF Done:  E(RM062X) =  -113.269176480     A.U. after    7 cycles
            NFock=  7  Conv=0.28D-08     -V/T= 2.0061
 KE= 1.125817278987D+02 PE=-3.107726538787D+02 EE= 6.246478477522D+01
 Leave Link  502 at Wed Oct  7 13:28:51 2020, MaxMem=  2684354560 cpu:               8.1 elap:               1.0
 (Enter /udrive/faculty/rpeverati/g16/g16/l508.exe)
 QCSCF skips out because SCF is already converged.
 Leave Link  508 at Wed Oct  7 13:28:52 2020, MaxMem=  2684354560 cpu:               0.4 elap:               0.4
 (Enter /udrive/faculty/rpeverati/g16/g16/l701.exe)
 ... and contract with generalized density number  0.
 Compute integral first derivatives.
 Leave Link  701 at Wed Oct  7 13:28:53 2020, MaxMem=  2684354560 cpu:               3.3 elap:               0.7
 (Enter /udrive/faculty/rpeverati/g16/g16/l702.exe)
 L702 exits ... SP integral derivatives will be done elsewhere.
 Leave Link  702 at Wed Oct  7 13:28:54 2020, MaxMem=  2684354560 cpu:               1.2 elap:               0.5
 (Enter /udrive/faculty/rpeverati/g16/g16/l703.exe)
 Integral derivatives from FoFJK, PRISM(SPDF).
 Compute integral first derivatives, UseDBF=F ICtDFT=           0.
 Calling FoFJK, ICntrl=      2127 FMM=F ISym2X=1 I1Cent= 0 IOpClX= 0 NMat=1 NMatS=1 NMatT=0.
 FoFJK:  IHMeth= 1 ICntrl=    2127 DoSepK=F KAlg= 0 I1Cent=           0 FoldK=F
 IRaf=         0 NMat=       1 IRICut=       1 DoRegI=T DoRafI=F ISym2E= 1 IDoP0=0 IntGTp=1.
 FoFCou: FMM=F IPFlag=           0 FMFlag=      100000 FMFlg1=         800
         NFxFlg=           0 DoJE=F BraDBF=F KetDBF=F FulRan=T
         wScrn=  0.000000 ICntrl=      2127 IOpCl=  0 I1Cent=           0 NGrid=           0
         NMat0=    1 NMatS0=      1 NMatT0=    0 NMatD0=    1 NMtDS0=    0 NMtDT0=    0
 Petite list used in FoFCou.
 Leave Link  703 at Wed Oct  7 13:28:55 2020, MaxMem=  2684354560 cpu:               4.7 elap:               0.7
 (Enter /udrive/faculty/rpeverati/g16/g16/l716.exe)
 Dipole        = 0.00000000D+00-1.32270448D-32 3.38077274D-04
 ***** Axes restored to original set *****
 -------------------------------------------------------------------
 Center     Atomic                   Forces (Hartrees/Bohr)
 Number     Number              X              Y              Z
 -------------------------------------------------------------------
      1        8          -0.000000000   -0.000000000    0.000373679
      2        6           0.000000000    0.000000000   -0.000373679
 -------------------------------------------------------------------
 Cartesian Forces:  Max     0.000373679 RMS     0.000215744
 Leave Link  716 at Wed Oct  7 13:28:55 2020, MaxMem=  2684354560 cpu:               0.9 elap:               0.4
 (Enter /udrive/faculty/rpeverati/g16/g16/l103.exe)

 GradGradGradGradGradGradGradGradGradGradGradGradGradGradGradGradGradGrad
 Berny optimization.
 Optmz: redundant internal coordinate code flag= 1
 Using GEDIIS/GDIIS optimizer.
 Red2BG:  D1=  2.00D+00 OD1=  0.00D+00 B2RMS=  0.00D+00 IAprox=1
 Red2BG is reusing G-inverse.
 Internal  Forces:  Max     0.000373679 RMS     0.000373679
 Search for a local minimum.
 Step number   2 out of a maximum of  100
 All quantities printed in internal units (Hartrees-Bohrs-Radians)
 RMS Force = .37368D-03 SwitMx=.10000D-02 MixMth= 2
 Mixed Optimization -- En-DIIS/RFO-DIIS
 Update second derivatives using D2CorX and points    1    2
 DE= -6.26D-06 DEPred=-5.75D-06 R= 1.09D+00
 TightC=F SS=  1.41D+00  RLast= 2.77D-03 DXNew= 5.0454D-01 8.3116D-03
 Trust test= 1.09D+00 RLast= 2.77D-03 DXMaxT set to 3.00D-01
 The second derivative matrix:
                          R1
           R1           1.36452
 ITU=  1  0
 Use linear search instead of GDIIS.
 Eigenvectors of the second derivative matrix:
                           1
     Eigenvalues --     1.36452
   1         R1         1.00000
 RFO step:  Lambda= 0.00000000D+00 EMin= 1.36452425D+00
 Quartic linear search produced a step of  0.09940.
 Iteration  1 RMS(Cart)=  0.00019474 RMS(Int)=  0.00000000
 Iteration  2 RMS(Cart)=  0.00000000 RMS(Int)=  0.00000000
 ITry= 1 IFail=0 DXMaxC= 1.38D-04 DCOld= 1.00D+10 DXMaxT= 3.00D-01 DXLimC= 3.00D+00 Rises=F
 ClnCor:  largest displacement from symmetrization is 0.00D+00 for atom     0.
 Variable       Old X    -DE/DX   Delta X   Delta X   Delta X     New X
                                 (Linear)    (Quad)   (Total)
    R1        2.13742   0.00037   0.00028   0.00000   0.00028   2.13770
         Item               Value     Threshold  Converged?
 Maximum Force            0.000374     0.000450     YES
 RMS     Force            0.000374     0.000300     NO 
 Maximum Displacement     0.000138     0.001800     YES
 RMS     Displacement     0.000195     0.001200     YES
 Predicted change in Energy=-5.116502D-08
 Lowest energy point so far.  Saving SCF results.
 Largest change from initial coordinates is atom    2       0.001 Angstoms.
 GradGradGradGradGradGradGradGradGradGradGradGradGradGradGradGradGradGrad

 Leave Link  103 at Wed Oct  7 13:28:56 2020, MaxMem=  2684354560 cpu:               1.7 elap:               0.5
 (Enter /udrive/faculty/rpeverati/g16/g16/l202.exe)
                          Input orientation:                          
 ---------------------------------------------------------------------
 Center     Atomic      Atomic             Coordinates (Angstroms)
 Number     Number       Type             X           Y           Z
 ---------------------------------------------------------------------
      1          8           0        0.000000    0.000000    0.484924
      2          6           0        0.000000    0.000000   -0.646296
 ---------------------------------------------------------------------
 Stoichiometry    CO
 Framework group  C*V[C*(CO)]
 Deg. of freedom     1
 Full point group                 C*V     NOp   4
 RotChk:  IX=0 Diff= 0.00D+00
 Largest Abelian subgroup         C2V     NOp   4
 Largest concise Abelian subgroup C1      NOp   1
                         Standard orientation:                         
 ---------------------------------------------------------------------
 Center     Atomic      Atomic             Coordinates (Angstroms)
 Number     Number       Type             X           Y           Z
 ---------------------------------------------------------------------
      1          8           0        0.000000    0.000000    0.484809
      2          6           0        0.000000    0.000000   -0.646412
 ---------------------------------------------------------------------
 Rotational constants (GHZ):           0.0000000          57.6021428          57.6021428
 Leave Link  202 at Wed Oct  7 13:28:57 2020, MaxMem=  2684354560 cpu:               1.3 elap:               0.4
 (Enter /udrive/faculty/rpeverati/g16/g16/l301.exe)
 Standard basis: 6-31G(d) (5D, 7F)
 Ernie: Thresh=  0.10000D-02 Tol=  0.10000D-05 Strict=F.
 There are    16 symmetry adapted cartesian basis functions of A1  symmetry.
 There are     2 symmetry adapted cartesian basis functions of A2  symmetry.
 There are     6 symmetry adapted cartesian basis functions of B1  symmetry.
 There are     6 symmetry adapted cartesian basis functions of B2  symmetry.
 There are    14 symmetry adapted basis functions of A1  symmetry.
 There are     2 symmetry adapted basis functions of A2  symmetry.
 There are     6 symmetry adapted basis functions of B1  symmetry.
 There are     6 symmetry adapted basis functions of B2  symmetry.
    28 basis functions,    56 primitive gaussians,    30 cartesian basis functions
     7 alpha electrons        7 beta electrons
       nuclear repulsion energy        22.4540715766 Hartrees.
 IExCor= 4336 DFT=T Ex+Corr=M062X ExCW=0 ScaHFX=  0.540000
 ScaDFX=  1.000000  1.000000  1.000000  1.000000 ScalE2=  1.000000  1.000000
 IRadAn=      5 IRanWt=     -1 IRanGd=            0 ICorTp=0 IEmpDi=  4
 NAtoms=    2 NActive=    2 NUniq=    2 SFac= 1.00D+00 NAtFMM=   60 NAOKFM=F Big=F
 Integral buffers will be    131072 words long.
 Raffenetti 2 integral format.
 Two-electron integral symmetry is turned on.
 Leave Link  301 at Wed Oct  7 13:28:57 2020, MaxMem=  2684354560 cpu:               1.8 elap:               0.5
 (Enter /udrive/faculty/rpeverati/g16/g16/l302.exe)
 NPDir=0 NMtPBC=     1 NCelOv=     1 NCel=       1 NClECP=     1 NCelD=      1
         NCelK=      1 NCelE2=     1 NClLst=     1 CellRange=     0.0.
 One-electron integrals computed using PRISM.
 One-electron integral symmetry used in STVInt
 NBasis=    28 RedAO= T EigKep=  1.52D-02  NBF=    14     2     6     6
 NBsUse=    28 1.00D-06 EigRej= -1.00D+00 NBFU=    14     2     6     6
 Precomputing XC quadrature grid using
 IXCGrd= 4 IRadAn=           5 IRanWt=          -1 IRanGd=           0 AccXCQ= 0.00D+00.
 Generated NRdTot=       0 NPtTot=           0 NUsed=           0 NTot=          32
 NSgBfM=    30    30    30    30    30 MxSgAt=     2 MxSgA2=     2.
 Leave Link  302 at Wed Oct  7 13:28:58 2020, MaxMem=  2684354560 cpu:               3.9 elap:               0.7
 (Enter /udrive/faculty/rpeverati/g16/g16/l303.exe)
 DipDrv:  MaxL=1.
 Leave Link  303 at Wed Oct  7 13:28:59 2020, MaxMem=  2684354560 cpu:               1.5 elap:               0.4
 (Enter /udrive/faculty/rpeverati/g16/g16/l401.exe)
 Initial guess from the checkpoint file:  "MN_32_co_BH76_M062X_631Gs.chk"
 SCF N**3 symmetry information disabled.
 B after Tr=     0.000000    0.000000    0.000000
         Rot=    1.000000    0.000000    0.000000    0.000000 Ang=   0.00 deg.
 Guess basis will be translated and rotated to current coordinates.
 JPrj=2 DoOrth=T DoCkMO=T.
 Initial guess orbital symmetries:
       Occupied  (SG) (SG) (SG) (SG) (PI) (PI) (SG)
       Virtual   (PI) (PI) (SG) (PI) (PI) (SG) (SG) (SG) (PI) (PI)
                 (DLTA) (DLTA) (SG) (PI) (PI) (DLTA) (DLTA) (SG)
                 (PI) (PI) (SG)
 The electronic state of the initial guess is 1-SG.
 Leave Link  401 at Wed Oct  7 13:29:00 2020, MaxMem=  2684354560 cpu:               2.0 elap:               0.5
 (Enter /udrive/faculty/rpeverati/g16/g16/l502.exe)
 Keep R1 ints in memory in symmetry-blocked form, NReq=10441445.
 FoFCou: FMM=F IPFlag=           0 FMFlag=           0 FMFlg1=           0
         NFxFlg=           0 DoJE=F BraDBF=F KetDBF=F FulRan=T
         wScrn=  0.000000 ICntrl=       600 IOpCl=  0 I1Cent=           0 NGrid=           0
         NMat0=    1 NMatS0=    406 NMatT0=    0 NMatD0=    1 NMtDS0=    0 NMtDT0=    0
 Petite list used in FoFCou.
 Closed shell SCF:
 Using DIIS extrapolation, IDIIS=  1040.
 NGot=  2684354560 LenX=  2684327255 LenY=  2684325914
 Requested convergence on RMS density matrix=1.00D-08 within 120 cycles.
 Requested convergence on MAX density matrix=1.00D-06.
 Requested convergence on             energy=1.00D-06.
 No special actions if energy rises.

 Cycle   1  Pass 1  IDiag  1:
 E= -113.269176517352    
 DIIS: error= 1.81D-05 at cycle   1 NSaved=   1.
 NSaved= 1 IEnMin= 1 EnMin= -113.269176517352     IErMin= 1 ErrMin= 1.81D-05
 ErrMax= 1.81D-05  0.00D+00 EMaxC= 1.00D-01 BMatC= 1.32D-08 BMatP= 1.32D-08
 IDIUse=1 WtCom= 1.00D+00 WtEn= 0.00D+00
 Coeff-Com:  0.100D+01
 Coeff:      0.100D+01
 Gap=     0.477 Goal=   None    Shift=    0.000
 RMSDP=4.86D-06 MaxDP=3.17D-05              OVMax= 3.99D-05

 Cycle   2  Pass 1  IDiag  1:
 E= -113.269176529319     Delta-E=       -0.000000011966 Rises=F Damp=F
 DIIS: error= 8.68D-06 at cycle   2 NSaved=   2.
 NSaved= 2 IEnMin= 2 EnMin= -113.269176529319     IErMin= 2 ErrMin= 8.68D-06
 ErrMax= 8.68D-06  0.00D+00 EMaxC= 1.00D-01 BMatC= 2.86D-09 BMatP= 1.32D-08
 IDIUse=1 WtCom= 1.00D+00 WtEn= 0.00D+00
 Coeff-Com:  0.257D+00 0.743D+00
 Coeff:      0.257D+00 0.743D+00
 Gap=     0.477 Goal=   None    Shift=    0.000
 RMSDP=1.73D-06 MaxDP=1.89D-05 DE=-1.20D-08 OVMax= 2.19D-05

 Cycle   3  Pass 1  IDiag  1:
 E= -113.269176530336     Delta-E=       -0.000000001017 Rises=F Damp=F
 DIIS: error= 7.92D-06 at cycle   3 NSaved=   3.
 NSaved= 3 IEnMin= 3 EnMin= -113.269176530336     IErMin= 3 ErrMin= 7.92D-06
 ErrMax= 7.92D-06  0.00D+00 EMaxC= 1.00D-01 BMatC= 1.59D-09 BMatP= 2.86D-09
 IDIUse=1 WtCom= 1.00D+00 WtEn= 0.00D+00
 Coeff-Com:  0.303D-01 0.423D+00 0.546D+00
 Coeff:      0.303D-01 0.423D+00 0.546D+00
 Gap=     0.477 Goal=   None    Shift=    0.000
 RMSDP=9.76D-07 MaxDP=1.13D-05 DE=-1.02D-09 OVMax= 1.31D-05

 Cycle   4  Pass 1  IDiag  1:
 E= -113.269176531423     Delta-E=       -0.000000001087 Rises=F Damp=F
 DIIS: error= 2.02D-06 at cycle   4 NSaved=   4.
 NSaved= 4 IEnMin= 4 EnMin= -113.269176531423     IErMin= 4 ErrMin= 2.02D-06
 ErrMax= 2.02D-06  0.00D+00 EMaxC= 1.00D-01 BMatC= 8.22D-11 BMatP= 1.59D-09
 IDIUse=1 WtCom= 1.00D+00 WtEn= 0.00D+00
 Coeff-Com: -0.249D-01 0.392D-01 0.219D+00 0.766D+00
 Coeff:     -0.249D-01 0.392D-01 0.219D+00 0.766D+00
 Gap=     0.477 Goal=   None    Shift=    0.000
 RMSDP=2.33D-07 MaxDP=2.32D-06 DE=-1.09D-09 OVMax= 3.04D-06

 Cycle   5  Pass 1  IDiag  1:
 E= -113.269176531495     Delta-E=       -0.000000000072 Rises=F Damp=F
 DIIS: error= 6.96D-08 at cycle   5 NSaved=   5.
 NSaved= 5 IEnMin= 5 EnMin= -113.269176531495     IErMin= 5 ErrMin= 6.96D-08
 ErrMax= 6.96D-08  0.00D+00 EMaxC= 1.00D-01 BMatC= 1.40D-13 BMatP= 8.22D-11
 IDIUse=1 WtCom= 1.00D+00 WtEn= 0.00D+00
 Coeff-Com:  0.114D-02-0.765D-02-0.221D-01-0.259D-01 0.105D+01
 Coeff:      0.114D-02-0.765D-02-0.221D-01-0.259D-01 0.105D+01
 Gap=     0.477 Goal=   None    Shift=    0.000
 RMSDP=2.34D-08 MaxDP=3.48D-07 DE=-7.23D-11 OVMax= 1.45D-07

 Cycle   6  Pass 1  IDiag  1:
 E= -113.269176531495     Delta-E=       -0.000000000000 Rises=F Damp=F
 DIIS: error= 7.96D-09 at cycle   6 NSaved=   6.
 NSaved= 6 IEnMin= 6 EnMin= -113.269176531495     IErMin= 6 ErrMin= 7.96D-09
 ErrMax= 7.96D-09  0.00D+00 EMaxC= 1.00D-01 BMatC= 1.72D-15 BMatP= 1.40D-13
 IDIUse=1 WtCom= 1.00D+00 WtEn= 0.00D+00
 Coeff-Com: -0.262D-04 0.802D-03 0.125D-02 0.125D-02-0.155D+00 0.115D+01
 Coeff:     -0.262D-04 0.802D-03 0.125D-02 0.125D-02-0.155D+00 0.115D+01
 Gap=     0.477 Goal=   None    Shift=    0.000
 RMSDP=2.41D-09 MaxDP=2.73D-08 DE=-2.27D-13 OVMax= 1.44D-08

 SCF Done:  E(RM062X) =  -113.269176531     A.U. after    6 cycles
            NFock=  6  Conv=0.24D-08     -V/T= 2.0061
 KE= 1.125809805977D+02 PE=-3.107664374647D+02 EE= 6.246220875889D+01
 Leave Link  502 at Wed Oct  7 13:29:01 2020, MaxMem=  2684354560 cpu:               8.3 elap:               1.1
 (Enter /udrive/faculty/rpeverati/g16/g16/l508.exe)
 QCSCF skips out because SCF is already converged.
 Leave Link  508 at Wed Oct  7 13:29:02 2020, MaxMem=  2684354560 cpu:               0.2 elap:               0.3
 (Enter /udrive/faculty/rpeverati/g16/g16/l701.exe)
 ... and contract with generalized density number  0.
 Compute integral first derivatives.
 Leave Link  701 at Wed Oct  7 13:29:03 2020, MaxMem=  2684354560 cpu:               3.6 elap:               0.7
 (Enter /udrive/faculty/rpeverati/g16/g16/l702.exe)
 L702 exits ... SP integral derivatives will be done elsewhere.
 Leave Link  702 at Wed Oct  7 13:29:03 2020, MaxMem=  2684354560 cpu:               1.1 elap:               0.4
 (Enter /udrive/faculty/rpeverati/g16/g16/l703.exe)
 Integral derivatives from FoFJK, PRISM(SPDF).
 Compute integral first derivatives, UseDBF=F ICtDFT=           0.
 Calling FoFJK, ICntrl=      2127 FMM=F ISym2X=1 I1Cent= 0 IOpClX= 0 NMat=1 NMatS=1 NMatT=0.
 FoFJK:  IHMeth= 1 ICntrl=    2127 DoSepK=F KAlg= 0 I1Cent=           0 FoldK=F
 IRaf=         0 NMat=       1 IRICut=       1 DoRegI=T DoRafI=F ISym2E= 1 IDoP0=0 IntGTp=1.
 FoFCou: FMM=F IPFlag=           0 FMFlag=      100000 FMFlg1=         800
         NFxFlg=           0 DoJE=F BraDBF=F KetDBF=F FulRan=T
         wScrn=  0.000000 ICntrl=      2127 IOpCl=  0 I1Cent=           0 NGrid=           0
         NMat0=    1 NMatS0=      1 NMatT0=    0 NMatD0=    1 NMtDS0=    0 NMtDT0=    0
 Petite list used in FoFCou.
 Leave Link  703 at Wed Oct  7 13:29:04 2020, MaxMem=  2684354560 cpu:               4.6 elap:               0.7
 (Enter /udrive/faculty/rpeverati/g16/g16/l716.exe)
 Dipole        = 0.00000000D+00-2.55508320D-32 1.25023805D-04
 ***** Axes restored to original set *****
 -------------------------------------------------------------------
 Center     Atomic                   Forces (Hartrees/Bohr)
 Number     Number              X              Y              Z
 -------------------------------------------------------------------
      1        8           0.000000000    0.000000000    0.000000002
      2        6          -0.000000000   -0.000000000   -0.000000002
 -------------------------------------------------------------------
 Cartesian Forces:  Max     0.000000002 RMS     0.000000001
 Leave Link  716 at Wed Oct  7 13:29:05 2020, MaxMem=  2684354560 cpu:               0.8 elap:               0.3
 (Enter /udrive/faculty/rpeverati/g16/g16/l103.exe)

 GradGradGradGradGradGradGradGradGradGradGradGradGradGradGradGradGradGrad
 Berny optimization.
 Optmz: redundant internal coordinate code flag= 1
 Using GEDIIS/GDIIS optimizer.
 Red2BG:  D1=  2.00D+00 OD1=  0.00D+00 B2RMS=  0.00D+00 IAprox=1
 Red2BG is reusing G-inverse.
 Internal  Forces:  Max     0.000000002 RMS     0.000000002
 Search for a local minimum.
 Step number   3 out of a maximum of  100
 All quantities printed in internal units (Hartrees-Bohrs-Radians)
 RMS Force = .21184D-08 SwitMx=.10000D-02 MixMth= 2
 Mixed Optimization -- En-DIIS/RFO-DIIS
 Swapping is turned off.
 Update second derivatives using D2CorX and points    3
 DE= -5.14D-08 DEPred=-5.12D-08 R= 1.01D+00
 Trust test= 1.01D+00 RLast= 2.75D-04 DXMaxT set to 3.00D-01
 The second derivative matrix:
                          R1
           R1           1.36452
 ITU=  0  1
 Eigenvectors of the second derivative matrix:
                           1
     Eigenvalues --     1.36452
   1         R1         1.00000
 DoSqrt=T IScMMF=    -3 MM Scaling Factor =       0.00000
 En-DIIS/RFO-DIIS/Sim-DIIS IScMMF=       -3 using points:     3    2
 RFO step:  Lambda= 0.00000000D+00.
 NNeg= 0 NGDIIS= 2 SimSw=  2.50D-03 Rises=F DC= -5.14D-08 SmlDif=  1.00D-05
 NRisDI= 0 DoIntr=F SqrtH=F CThrHd= 10.0 CDAdj=  3.0
 RMS Error=  0.1552476389D-08 NUsed= 2 OKEnD=F EnDIS=F
 Total RFO-DIIS matrix:
                 1             2             3 
      1   0.000000D+00 -0.100000D+01 -0.100000D+01
      2  -0.100000D+01  0.241018D-17  0.425151D-12
      3  -0.100000D+01  0.425151D-12  0.749956D-07
 InvSVX:  RCond= 1.87D-08 Info=           0 Equed=N FErr=  8.88D-16 BErr=  0.00D+00
 DIIS inversion failure, remove point   2.
 Use linear search instead of GDIIS.
 RFO step:  Lambda= 0.00000000D+00 EMin= 1.36452425D+00
 Quartic linear search produced a step of  0.00001.
 Iteration  1 RMS(Cart)=  0.00000000 RMS(Int)=  0.00000000
 ITry= 1 IFail=0 DXMaxC= 7.81D-10 DCOld= 1.00D+10 DXMaxT= 3.00D-01 DXLimC= 3.00D+00 Rises=F
 ClnCor:  largest displacement from symmetrization is 0.00D+00 for atom     0.
 Variable       Old X    -DE/DX   Delta X   Delta X   Delta X     New X
                                 (Linear)    (Quad)   (Total)
    R1        2.13770   0.00000   0.00000   0.00000   0.00000   2.13770
         Item               Value     Threshold  Converged?
 Maximum Force            0.000000     0.000450     YES
 RMS     Force            0.000000     0.000300     YES
 Maximum Displacement     0.000000     0.001800     YES
 RMS     Displacement     0.000000     0.001200     YES
 Predicted change in Energy=-1.644314D-18
 Optimization completed.
    -- Stationary point found.
                           ----------------------------
                           !   Optimized Parameters   !
                           ! (Angstroms and Degrees)  !
 --------------------------                            --------------------------
 ! Name  Definition              Value          Derivative Info.                !
 --------------------------------------------------------------------------------
 ! R1    R(1,2)                  1.1312         -DE/DX =    0.0                 !
 --------------------------------------------------------------------------------
 Lowest energy point so far.  Saving SCF results.
 Largest change from initial coordinates is atom    2       0.001 Angstoms.
 GradGradGradGradGradGradGradGradGradGradGradGradGradGradGradGradGradGrad

 Leave Link  103 at Wed Oct  7 13:29:05 2020, MaxMem=  2684354560 cpu:               1.3 elap:               0.4
 (Enter /udrive/faculty/rpeverati/g16/g16/l202.exe)
                          Input orientation:                          
 ---------------------------------------------------------------------
 Center     Atomic      Atomic             Coordinates (Angstroms)
 Number     Number       Type             X           Y           Z
 ---------------------------------------------------------------------
      1          8           0        0.000000    0.000000    0.484924
      2          6           0        0.000000    0.000000   -0.646296
 ---------------------------------------------------------------------
 Stoichiometry    CO
 Framework group  C*V[C*(CO)]
 Deg. of freedom     1
 Full point group                 C*V     NOp   4
 RotChk:  IX=0 Diff= 0.00D+00
 Largest Abelian subgroup         C2V     NOp   4
 Largest concise Abelian subgroup C1      NOp   1
                         Standard orientation:                         
 ---------------------------------------------------------------------
 Center     Atomic      Atomic             Coordinates (Angstroms)
 Number     Number       Type             X           Y           Z
 ---------------------------------------------------------------------
      1          8           0        0.000000    0.000000    0.484809
      2          6           0        0.000000    0.000000   -0.646412
 ---------------------------------------------------------------------
 Rotational constants (GHZ):           0.0000000          57.6021428          57.6021428
 Leave Link  202 at Wed Oct  7 13:29:06 2020, MaxMem=  2684354560 cpu:               1.1 elap:               0.5
 (Enter /udrive/faculty/rpeverati/g16/g16/l601.exe)
 Copying SCF densities to generalized density rwf, IOpCl= 0 IROHF=0.

 **********************************************************************

            Population analysis using the SCF density.

 **********************************************************************

 Orbital symmetries:
       Occupied  (SG) (SG) (SG) (SG) (PI) (PI) (SG)
       Virtual   (PI) (PI) (SG) (PI) (PI) (SG) (SG) (SG) (PI) (PI)
                 (DLTA) (DLTA) (SG) (PI) (PI) (DLTA) (DLTA) (SG)
                 (PI) (PI) (SG)
 The electronic state is 1-SG.
 Alpha  occ. eigenvalues --  -19.74433 -10.65949  -1.28122  -0.65973  -0.54260
 Alpha  occ. eigenvalues --   -0.54260  -0.43706
 Alpha virt. eigenvalues --    0.04040   0.04040   0.31099   0.57033   0.57033
 Alpha virt. eigenvalues --    0.63309   0.83177   0.91021   0.99939   0.99939
 Alpha virt. eigenvalues --    1.52619   1.52619   1.56275   1.61460   1.61460
 Alpha virt. eigenvalues --    2.00028   2.00028   2.49152   2.65056   2.65056
 Alpha virt. eigenvalues --    3.02025
          Condensed to atoms (all electrons):
               1          2
     1  O    7.594501   0.588009
     2  C    0.588009   5.229481
 Mulliken charges:
               1
     1  O   -0.182510
     2  C    0.182510
 Sum of Mulliken charges =  -0.00000
 Mulliken charges with hydrogens summed into heavy atoms:
               1
     1  O   -0.182510
     2  C    0.182510
 Electronic spatial extent (au):  <R**2>=             39.1694
 Charge=             -0.0000 electrons
 Dipole moment (field-independent basis, Debye):
    X=              0.0000    Y=             -0.0000    Z=              0.0003  Tot=              0.0003
 Quadrupole moment (field-independent basis, Debye-Ang):
   XX=             -9.8776   YY=             -9.8776   ZZ=            -11.8553
   XY=             -0.0000   XZ=              0.0000   YZ=              0.0000
 Traceless Quadrupole moment (field-independent basis, Debye-Ang):
   XX=              0.6593   YY=              0.6593   ZZ=             -1.3185
   XY=             -0.0000   XZ=              0.0000   YZ=              0.0000
 Octapole moment (field-independent basis, Debye-Ang**2):
  XXX=              0.0000  YYY=             -0.0000  ZZZ=              5.5394  XYY=              0.0000
  XXY=             -0.0000  XXZ=              1.0234  XZZ=              0.0000  YZZ=             -0.0000
  YYZ=              1.0234  XYZ=             -0.0000
 Hexadecapole moment (field-independent basis, Debye-Ang**3):
 XXXX=             -7.8002 YYYY=             -7.8002 ZZZZ=            -33.8778 XXXY=             -0.0000
 XXXZ=              0.0000 YYYX=             -0.0000 YYYZ=              0.0000 ZZZX=              0.0000
 ZZZY=              0.0000 XXYY=             -2.6001 XXZZ=             -6.4240 YYZZ=             -6.4240
 XXYZ=              0.0000 YYXZ=              0.0000 ZZXY=             -0.0000
 N-N= 2.245407157661D+01 E-N=-3.107664374167D+02  KE= 1.125809805977D+02
 No NMR shielding tensors so no spin-rotation constants.
 Leave Link  601 at Wed Oct  7 13:29:07 2020, MaxMem=  2684354560 cpu:               3.2 elap:               0.6
 (Enter /udrive/faculty/rpeverati/g16/g16/l9999.exe)

 Test job not archived.
 1\1\GINC-NODE27\FOpt\RM062X\6-31G(d)\C1O1\RPEVERATI\07-Oct-2020\0\\#P 
 Opt(MaxCyc=100) M062X/6-31G* 5D 7F Integral=UltraFineGrid SCF=(NoSymm,
 XQC,MaxCyc=120) IOp(1/33=1)\\TS search on BH76.\\0,1\O,0.,0.,0.4849242
 205\C,0.,0.,-0.6462962817\\Version=ES64L-G16RevA.03\State=1-SG\HF=-113
 .2691765\RMSD=2.413e-09\RMSF=1.223e-09\Dipole=0.,0.,0.000125\Quadrupol
 e=0.4901368,0.4901368,-0.9802736,0.,0.,0.\PG=C*V [C*(C1O1)]\\@


      HUMANKIND PERIODICALLY GOES THROUGH A SPEEDUP OF ITS AFFAIRS, 
      THEREBY EXPERIENCING THE RACE BETWEEN THE RENEWABLE VITALITY
      OF THE LIVING, AND THE BECKONING VITIATION OF DECADENCE.
      IN THIS PERIODIC RACE, ANY PAUSE BECOMES A LUXURY.
      ONLY THEN CAN ONE REFLECT THAT ALL IS PERMITTED;
      ALL IS POSSIBLE.

                              -- THE APOCRYPHA OF MUAD'DIB
                                 CHILDREN OF DUNE, BY FRANK HERBERT
 Job cpu time:       0 days  0 hours  2 minutes  3.4 seconds.
 Elapsed time:       0 days  0 hours  0 minutes 24.7 seconds.
 File lengths (MBytes):  RWF=      5 Int=      0 D2E=      0 Chk=      1 Scr=      1
 Normal termination of Gaussian 16 at Wed Oct  7 13:29:08 2020.
