 Entering Gaussian System, Link 0=g16
 Input=MN_49_hcnts_BH76_M062X_631Gs.in
 Output=MN_49_hcnts_BH76_M062X_631Gs.log
 Initial command:
 /udrive/faculty/rpeverati/g16/g16/l1.exe "/udrive/scratch-directories/gaussian09/rpeverati/Gau-14294.inp" -scrdir="/udrive/scratch-directories/gaussian09/rpeverati/"
 Entering Link 1 = /udrive/faculty/rpeverati/g16/g16/l1.exe PID=     14309.
  
 Copyright (c) 1988,1990,1992,1993,1995,1998,2003,2009,2016,
            Gaussian, Inc.  All Rights Reserved.
  
 This is part of the Gaussian(R) 16 program.  It is based on
 the Gaussian(R) 09 system (copyright 2009, Gaussian, Inc.),
 the Gaussian(R) 03 system (copyright 2003, Gaussian, Inc.),
 the Gaussian(R) 98 system (copyright 1998, Gaussian, Inc.),
 the Gaussian(R) 94 system (copyright 1995, Gaussian, Inc.),
 the Gaussian 92(TM) system (copyright 1992, Gaussian, Inc.),
 the Gaussian 90(TM) system (copyright 1990, Gaussian, Inc.),
 the Gaussian 88(TM) system (copyright 1988, Gaussian, Inc.),
 the Gaussian 86(TM) system (copyright 1986, Carnegie Mellon
 University), and the Gaussian 82(TM) system (copyright 1983,
 Carnegie Mellon University). Gaussian is a federally registered
 trademark of Gaussian, Inc.
  
 This software contains proprietary and confidential information,
 including trade secrets, belonging to Gaussian, Inc.
  
 This software is provided under written license and may be
 used, copied, transmitted, or stored only in accord with that
 written license.
  
 The following legend is applicable only to US Government
 contracts under FAR:
  
                    RESTRICTED RIGHTS LEGEND
  
 Use, reproduction and disclosure by the US Government is
 subject to restrictions as set forth in subparagraphs (a)
 and (c) of the Commercial Computer Software - Restricted
 Rights clause in FAR 52.227-19.
  
 Gaussian, Inc.
 340 Quinnipiac St., Bldg. 40, Wallingford CT 06492
  
  
 ---------------------------------------------------------------
 Warning -- This program may not be used in any manner that
 competes with the business of Gaussian, Inc. or will provide
 assistance to any competitor of Gaussian, Inc.  The licensee
 of this program is prohibited from giving any competitor of
 Gaussian, Inc. access to this program.  By using this program,
 the user acknowledges that Gaussian, Inc. is engaged in the
 business of creating and licensing software in the field of
 computational chemistry and represents and warrants to the
 licensee that it is not a competitor of Gaussian, Inc. and that
 it will not use this program in any manner prohibited above.
 ---------------------------------------------------------------
  

 Cite this work as:
 Gaussian 16, Revision A.03,
 M. J. Frisch, G. W. Trucks, H. B. Schlegel, G. E. Scuseria, 
 M. A. Robb, J. R. Cheeseman, G. Scalmani, V. Barone, 
 G. A. Petersson, H. Nakatsuji, X. Li, M. Caricato, A. V. Marenich, 
 J. Bloino, B. G. Janesko, R. Gomperts, B. Mennucci, H. P. Hratchian, 
 J. V. Ortiz, A. F. Izmaylov, J. L. Sonnenberg, D. Williams-Young, 
 F. Ding, F. Lipparini, F. Egidi, J. Goings, B. Peng, A. Petrone, 
 T. Henderson, D. Ranasinghe, V. G. Zakrzewski, J. Gao, N. Rega, 
 G. Zheng, W. Liang, M. Hada, M. Ehara, K. Toyota, R. Fukuda, 
 J. Hasegawa, M. Ishida, T. Nakajima, Y. Honda, O. Kitao, H. Nakai, 
 T. Vreven, K. Throssell, J. A. Montgomery, Jr., J. E. Peralta, 
 F. Ogliaro, M. J. Bearpark, J. J. Heyd, E. N. Brothers, K. N. Kudin, 
 V. N. Staroverov, T. A. Keith, R. Kobayashi, J. Normand, 
 K. Raghavachari, A. P. Rendell, J. C. Burant, S. S. Iyengar, 
 J. Tomasi, M. Cossi, J. M. Millam, M. Klene, C. Adamo, R. Cammi, 
 J. W. Ochterski, R. L. Martin, K. Morokuma, O. Farkas, 
 J. B. Foresman, and D. J. Fox, Gaussian, Inc., Wallingford CT, 2016.
 
 ******************************************
 Gaussian 16:  ES64L-G16RevA.03 25-Dec-2016
                 7-Oct-2020 
 ******************************************
 %NoSave
 %nproc=12
 Will use up to   12 processors via shared memory.
 %mem=20GB
 %chk=MN_49_hcnts_BH76_M062X_631Gs
 ----------------------------------------------------------------------
 #P Opt(TS,MaxCyc=50,NoEigenTest,MaxStep=10,AddRedundant) M062X/6-31G* 
 5D 7F Integral=UltraFineGrid SCF=(NoSymm,XQC,MaxCyc=120) IOp(1/33=1)
 ----------------------------------------------------------------------
 1/5=1,6=50,8=10,11=1,18=120,26=4,33=1,38=1/1,3;
 2/9=110,12=2,17=6,18=5,40=1/2;
 3/5=1,6=6,7=1,8=11,11=2,25=1,30=1,71=1,74=-55,75=-5/1,2,3;
 4/9=2/1;
 5/5=2,7=120,8=3,13=1,38=5/2,8;
 6/7=2,8=2,9=2,10=2,28=1/1;
 7//1,2,3,16;
 1/5=1,6=50,8=10,11=1,18=20,26=4,33=1/3(2);
 2/9=110/2;
 99//99;
 2/9=110/2;
 3/5=1,6=6,7=1,8=11,11=2,25=1,30=1,71=1,74=-55,75=-5/1,2,3;
 4/5=5,9=2,16=3,69=1/1;
 5/5=2,7=120,8=3,13=1,38=5/2,8;
 7//1,2,3,16;
 1/5=1,6=50,8=10,11=1,18=20,26=4,33=1/3(-5);
 2/9=110/2;
 6/7=2,8=2,9=2,10=2,19=2,28=1/1;
 99/9=1/99;
 Leave Link    1 at Wed Oct  7 13:29:09 2020, MaxMem=  2684354560 cpu:               5.9 elap:               0.6
 (Enter /udrive/faculty/rpeverati/g16/g16/l101.exe)
 ONIOM data not found on unit 2.
 ------------------
 TS search on BH76.
 ------------------
 TstMul:  ICh=     0
 TstMul:  Mul=     1
 TstMul:  ICh=     0
 TstMul:  Mul=     1
 Symbolic Z-matrix:
 Charge =  0 Multiplicity = 1
 C                     0.08032   0.62026   0. 
 N                     0.08032  -0.56809   0. 
 H                    -1.04415   0.25512   0. 
 
 RdStrC is calling ZToCFu for IStruc=1 NZ=     3.
 PrtBox:  NBox=     1 Levels=  1 BoxLen=    8.00 SMaxX=        2.25
          Shift=            1.973150            1.073540            0.000000
 Box      1 Number                   0 centers from      1 to      3:
 After GenITR:
 ITRead=  0  0  0
 MicOpt= -1 -1 -1
 The following ModRedundant input section has been read:
 
 ITRead=  0  0  0
 MicOpt= -1 -1 -1
 NAtoms=      3 NQM=        3 NQMF=       0 NMMI=      0 NMMIF=      0
                NMic=       0 NMicF=      0.
                    Isotopes and Nuclear Properties:
 (Nuclear quadrupole moments (NQMom) in fm**2, nuclear magnetic moments (NMagM)
  in nuclear magnetons)

  Atom         1           2           3
 IAtWgt=          12          14           1
 AtmWgt=  12.0000000  14.0030740   1.0078250
 NucSpn=           0           2           1
 AtZEff=   0.0000000   0.0000000   0.0000000
 NQMom=    0.0000000   2.0440000   0.0000000
 NMagM=    0.0000000   0.4037610   2.7928460
 AtZNuc=   6.0000000   7.0000000   1.0000000
 No MM parameters found.
 Leave Link  101 at Wed Oct  7 13:29:11 2020, MaxMem=  2684354560 cpu:               9.3 elap:               1.2
 (Enter /udrive/faculty/rpeverati/g16/g16/l103.exe)

 GradGradGradGradGradGradGradGradGradGradGradGradGradGradGradGradGradGrad
 Berny optimization.
 Optmz: redundant internal coordinate code flag= 1
 Initialization pass.
                           ----------------------------
                           !    Initial Parameters    !
                           ! (Angstroms and Degrees)  !
 --------------------------                            --------------------------
 ! Name  Definition              Value          Derivative Info.                !
 --------------------------------------------------------------------------------
 ! R1    R(1,2)                  1.1884         estimate D2E/DX2                !
 ! R2    R(1,3)                  1.1823         estimate D2E/DX2                !
 ! A1    A(2,1,3)               72.0103         estimate D2E/DX2                !
 --------------------------------------------------------------------------------
 Maximum allowed force set to 1.00D+20.
 Trust Radius=1.00D-01 FncErr=1.00D-07 GrdErr=1.00D-06 EigMax=2.50D+02 EigMin=1.00D-04
 Number of steps in this run=     50 maximum allowed number of steps=    100.
 Search for a saddle point of order  1.
 GradGradGradGradGradGradGradGradGradGradGradGradGradGradGradGradGradGrad

 Leave Link  103 at Wed Oct  7 13:29:12 2020, MaxMem=  2684354560 cpu:               1.1 elap:               0.6
 (Enter /udrive/faculty/rpeverati/g16/g16/l202.exe)
                          Input orientation:                          
 ---------------------------------------------------------------------
 Center     Atomic      Atomic             Coordinates (Angstroms)
 Number     Number       Type             X           Y           Z
 ---------------------------------------------------------------------
      1          6           0        0.080319    0.620259    0.000000
      2          7           0        0.080319   -0.568093    0.000000
      3          1           0       -1.044146    0.255121    0.000000
 ---------------------------------------------------------------------
                    Distance matrix (angstroms):
                    1          2          3
     1  C    0.000000
     2  N    1.188352   0.000000
     3  H    1.182264   1.393594   0.000000
 Stoichiometry    CHN
 Framework group  CS[SG(CHN)]
 Deg. of freedom     3
 Full point group                 CS      NOp   2
 Largest Abelian subgroup         CS      NOp   2
 Largest concise Abelian subgroup C1      NOp   1
                         Standard orientation:                         
 ---------------------------------------------------------------------
 Center     Atomic      Atomic             Coordinates (Angstroms)
 Number     Number       Type             X           Y           Z
 ---------------------------------------------------------------------
      1          6           0        0.080319    0.620257    0.000000
      2          7           0        0.080319   -0.568095    0.000000
      3          1           0       -1.044146    0.255119    0.000000
 ---------------------------------------------------------------------
 Rotational constants (GHZ):         415.7753317          54.8709834          48.4737702
 Leave Link  202 at Wed Oct  7 13:29:12 2020, MaxMem=  2684354560 cpu:               1.4 elap:               0.5
 (Enter /udrive/faculty/rpeverati/g16/g16/l301.exe)
 Standard basis: 6-31G(d) (5D, 7F)
 Ernie: Thresh=  0.10000D-02 Tol=  0.10000D-05 Strict=F.
 There are    24 symmetry adapted cartesian basis functions of A'  symmetry.
 There are     8 symmetry adapted cartesian basis functions of A"  symmetry.
 There are    22 symmetry adapted basis functions of A'  symmetry.
 There are     8 symmetry adapted basis functions of A"  symmetry.
    30 basis functions,    60 primitive gaussians,    32 cartesian basis functions
     7 alpha electrons        7 beta electrons
       nuclear repulsion energy        24.0463711332 Hartrees.
 IExCor= 4336 DFT=T Ex+Corr=M062X ExCW=0 ScaHFX=  0.540000
 ScaDFX=  1.000000  1.000000  1.000000  1.000000 ScalE2=  1.000000  1.000000
 IRadAn=      5 IRanWt=     -1 IRanGd=            0 ICorTp=0 IEmpDi=  4
 NAtoms=    3 NActive=    3 NUniq=    3 SFac= 1.00D+00 NAtFMM=   60 NAOKFM=F Big=F
 Integral buffers will be    131072 words long.
 Raffenetti 2 integral format.
 Two-electron integral symmetry is turned on.
 Leave Link  301 at Wed Oct  7 13:29:13 2020, MaxMem=  2684354560 cpu:               2.0 elap:               0.5
 (Enter /udrive/faculty/rpeverati/g16/g16/l302.exe)
 NPDir=0 NMtPBC=     1 NCelOv=     1 NCel=       1 NClECP=     1 NCelD=      1
         NCelK=      1 NCelE2=     1 NClLst=     1 CellRange=     0.0.
 One-electron integrals computed using PRISM.
 One-electron integral symmetry used in STVInt
 NBasis=    30 RedAO= T EigKep=  7.88D-03  NBF=    22     8
 NBsUse=    30 1.00D-06 EigRej= -1.00D+00 NBFU=    22     8
 Precomputing XC quadrature grid using
 IXCGrd= 4 IRadAn=           5 IRanWt=          -1 IRanGd=           0 AccXCQ= 0.00D+00.
 Generated NRdTot=       0 NPtTot=           0 NUsed=           0 NTot=          32
 NSgBfM=    32    32    32    32    32 MxSgAt=     3 MxSgA2=     3.
 Leave Link  302 at Wed Oct  7 13:29:14 2020, MaxMem=  2684354560 cpu:               3.9 elap:               0.7
 (Enter /udrive/faculty/rpeverati/g16/g16/l303.exe)
 DipDrv:  MaxL=1.
 Leave Link  303 at Wed Oct  7 13:29:15 2020, MaxMem=  2684354560 cpu:               1.2 elap:               0.5
 (Enter /udrive/faculty/rpeverati/g16/g16/l401.exe)
 SCF N**3 symmetry information disabled.
 ExpMin= 1.61D-01 ExpMax= 4.17D+03 ExpMxC= 6.27D+02 IAcc=3 IRadAn=         5 AccDes= 0.00D+00
 Harris functional with IExCor= 1009 and IRadAn=       5 diagonalized for initial guess.
 HarFok:  IExCor= 1009 AccDes= 0.00D+00 IRadAn=         5 IDoV= 1 UseB2=F ITyADJ=14
 ICtDFT=  3500011 ScaDFX=  1.000000  1.000000  1.000000  1.000000
 FoFCou: FMM=F IPFlag=           0 FMFlag=      100000 FMFlg1=           0
         NFxFlg=           0 DoJE=T BraDBF=F KetDBF=T FulRan=T
         wScrn=  0.000000 ICntrl=       500 IOpCl=  0 I1Cent=   200000004 NGrid=           0
         NMat0=    1 NMatS0=      1 NMatT0=    0 NMatD0=    1 NMtDS0=    0 NMtDT0=    0
 Petite list used in FoFCou.
 Harris En= -93.2360446577951    
 JPrj=0 DoOrth=F DoCkMO=F.
 Initial guess orbital symmetries:
       Occupied  (A') (A') (A') (A') (A') (A") (A')
       Virtual   (A') (A") (A') (A') (A") (A') (A') (A') (A') (A")
                 (A') (A') (A') (A") (A') (A") (A') (A") (A') (A')
                 (A') (A") (A')
 The electronic state of the initial guess is 1-A'.
 Leave Link  401 at Wed Oct  7 13:29:16 2020, MaxMem=  2684354560 cpu:               4.8 elap:               0.7
 (Enter /udrive/faculty/rpeverati/g16/g16/l502.exe)
 Keep R1 ints in memory in symmetry-blocked form, NReq=10468376.
 FoFCou: FMM=F IPFlag=           0 FMFlag=           0 FMFlg1=           0
         NFxFlg=           0 DoJE=F BraDBF=F KetDBF=F FulRan=T
         wScrn=  0.000000 ICntrl=       600 IOpCl=  0 I1Cent=           0 NGrid=           0
         NMat0=    1 NMatS0=    465 NMatT0=    0 NMatD0=    1 NMtDS0=    0 NMtDT0=    0
 Petite list used in FoFCou.
 Closed shell SCF:
 Using DIIS extrapolation, IDIIS=  1040.
 NGot=  2684354560 LenX=  2684292770 LenY=  2684291305
 Requested convergence on RMS density matrix=1.00D-08 within 120 cycles.
 Requested convergence on MAX density matrix=1.00D-06.
 Requested convergence on             energy=1.00D-06.
 No special actions if energy rises.
 Integral accuracy reduced to 1.0D-05 until final iterations.

 Cycle   1  Pass 0  IDiag  1:
 E= -93.2812184893619    
 DIIS: error= 2.64D-02 at cycle   1 NSaved=   1.
 NSaved= 1 IEnMin= 1 EnMin= -93.2812184893619     IErMin= 1 ErrMin= 2.64D-02
 ErrMax= 2.64D-02  0.00D+00 EMaxC= 1.00D-01 BMatC= 2.13D-02 BMatP= 2.13D-02
 IDIUse=3 WtCom= 7.36D-01 WtEn= 2.64D-01
 Coeff-Com:  0.100D+01
 Coeff-En:   0.100D+01
 Coeff:      0.100D+01
 Gap=     0.387 Goal=   None    Shift=    0.000
 GapD=    0.387 DampG=1.000 DampE=0.500 DampFc=0.5000 IDamp=-1.
 Damping current iteration by 5.00D-01
 RMSDP=7.70D-03 MaxDP=8.03D-02              OVMax= 7.74D-02

 Cycle   2  Pass 0  IDiag  1:
 E= -93.2931470260028     Delta-E=       -0.011928536641 Rises=F Damp=T
 DIIS: error= 7.53D-03 at cycle   2 NSaved=   2.
 NSaved= 2 IEnMin= 2 EnMin= -93.2931470260028     IErMin= 2 ErrMin= 7.53D-03
 ErrMax= 7.53D-03  0.00D+00 EMaxC= 1.00D-01 BMatC= 2.37D-03 BMatP= 2.13D-02
 IDIUse=3 WtCom= 9.25D-01 WtEn= 7.53D-02
 Coeff-Com: -0.339D+00 0.134D+01
 Coeff-En:   0.000D+00 0.100D+01
 Coeff:     -0.314D+00 0.131D+01
 Gap=     0.398 Goal=   None    Shift=    0.000
 RMSDP=1.38D-03 MaxDP=1.29D-02 DE=-1.19D-02 OVMax= 2.85D-02

 Cycle   3  Pass 0  IDiag  1:
 E= -93.3027150439433     Delta-E=       -0.009568017941 Rises=F Damp=F
 DIIS: error= 5.36D-03 at cycle   3 NSaved=   3.
 NSaved= 3 IEnMin= 3 EnMin= -93.3027150439433     IErMin= 3 ErrMin= 5.36D-03
 ErrMax= 5.36D-03  0.00D+00 EMaxC= 1.00D-01 BMatC= 5.18D-04 BMatP= 2.37D-03
 IDIUse=3 WtCom= 9.46D-01 WtEn= 5.36D-02
 Coeff-Com: -0.163D+00 0.520D+00 0.643D+00
 Coeff-En:   0.000D+00 0.000D+00 0.100D+01
 Coeff:     -0.154D+00 0.492D+00 0.662D+00
 Gap=     0.391 Goal=   None    Shift=    0.000
 RMSDP=8.02D-04 MaxDP=8.17D-03 DE=-9.57D-03 OVMax= 1.34D-02

 Cycle   4  Pass 0  IDiag  1:
 E= -93.3029419315385     Delta-E=       -0.000226887595 Rises=F Damp=F
 DIIS: error= 3.34D-03 at cycle   4 NSaved=   4.
 NSaved= 4 IEnMin= 4 EnMin= -93.3029419315385     IErMin= 4 ErrMin= 3.34D-03
 ErrMax= 3.34D-03  0.00D+00 EMaxC= 1.00D-01 BMatC= 2.65D-04 BMatP= 5.18D-04
 IDIUse=3 WtCom= 9.67D-01 WtEn= 3.34D-02
 Coeff-Com: -0.312D-01 0.526D-01 0.425D+00 0.553D+00
 Coeff-En:   0.000D+00 0.000D+00 0.359D+00 0.641D+00
 Coeff:     -0.302D-01 0.508D-01 0.423D+00 0.556D+00
 Gap=     0.393 Goal=   None    Shift=    0.000
 RMSDP=3.57D-04 MaxDP=3.56D-03 DE=-2.27D-04 OVMax= 4.92D-03

 Cycle   5  Pass 0  IDiag  1:
 E= -93.3031768222430     Delta-E=       -0.000234890705 Rises=F Damp=F
 DIIS: error= 2.15D-04 at cycle   5 NSaved=   5.
 NSaved= 5 IEnMin= 5 EnMin= -93.3031768222430     IErMin= 5 ErrMin= 2.15D-04
 ErrMax= 2.15D-04  0.00D+00 EMaxC= 1.00D-01 BMatC= 7.22D-07 BMatP= 2.65D-04
 IDIUse=3 WtCom= 9.98D-01 WtEn= 2.15D-03
 Coeff-Com:  0.214D-02-0.751D-02-0.209D-04 0.384D-01 0.967D+00
 Coeff-En:   0.000D+00 0.000D+00 0.000D+00 0.000D+00 0.100D+01
 Coeff:      0.213D-02-0.750D-02-0.209D-04 0.383D-01 0.967D+00
 Gap=     0.393 Goal=   None    Shift=    0.000
 RMSDP=4.43D-05 MaxDP=3.57D-04 DE=-2.35D-04 OVMax= 5.83D-04

 Cycle   6  Pass 0  IDiag  1:
 E= -93.3031782212449     Delta-E=       -0.000001399002 Rises=F Damp=F
 DIIS: error= 5.10D-05 at cycle   6 NSaved=   6.
 NSaved= 6 IEnMin= 6 EnMin= -93.3031782212449     IErMin= 6 ErrMin= 5.10D-05
 ErrMax= 5.10D-05  0.00D+00 EMaxC= 1.00D-01 BMatC= 7.07D-08 BMatP= 7.22D-07
 IDIUse=1 WtCom= 1.00D+00 WtEn= 0.00D+00
 Coeff-Com:  0.354D-02-0.618D-02-0.453D-01-0.515D-01 0.969D-01 0.100D+01
 Coeff:      0.354D-02-0.618D-02-0.453D-01-0.515D-01 0.969D-01 0.100D+01
 Gap=     0.393 Goal=   None    Shift=    0.000
 RMSDP=2.04D-05 MaxDP=1.96D-04 DE=-1.40D-06 OVMax= 2.91D-04

 Cycle   7  Pass 0  IDiag  1:
 E= -93.3031783984320     Delta-E=       -0.000000177187 Rises=F Damp=F
 DIIS: error= 1.18D-05 at cycle   7 NSaved=   7.
 NSaved= 7 IEnMin= 7 EnMin= -93.3031783984320     IErMin= 7 ErrMin= 1.18D-05
 ErrMax= 1.18D-05  0.00D+00 EMaxC= 1.00D-01 BMatC= 1.95D-09 BMatP= 7.07D-08
 IDIUse=1 WtCom= 1.00D+00 WtEn= 0.00D+00
 Coeff-Com: -0.151D-03 0.352D-03 0.884D-03-0.621D-04-0.385D-01-0.110D-01
 Coeff-Com:  0.105D+01
 Coeff:     -0.151D-03 0.352D-03 0.884D-03-0.621D-04-0.385D-01-0.110D-01
 Coeff:      0.105D+01
 Gap=     0.393 Goal=   None    Shift=    0.000
 RMSDP=4.29D-06 MaxDP=3.43D-05 DE=-1.77D-07 OVMax= 7.64D-05

 Initial convergence to 1.0D-05 achieved.  Increase integral accuracy.
 Cycle   8  Pass 1  IDiag  1:
 E= -93.3031750698196     Delta-E=        0.000003328612 Rises=F Damp=F
 DIIS: error= 1.36D-05 at cycle   1 NSaved=   1.
 NSaved= 1 IEnMin= 1 EnMin= -93.3031750698196     IErMin= 1 ErrMin= 1.36D-05
 ErrMax= 1.36D-05  0.00D+00 EMaxC= 1.00D-01 BMatC= 5.05D-09 BMatP= 5.05D-09
 IDIUse=1 WtCom= 1.00D+00 WtEn= 0.00D+00
 Coeff-Com:  0.100D+01
 Coeff:      0.100D+01
 Gap=     0.393 Goal=   None    Shift=    0.000
 RMSDP=4.29D-06 MaxDP=3.43D-05 DE= 3.33D-06 OVMax= 3.01D-05

 Cycle   9  Pass 1  IDiag  1:
 E= -93.3031750760334     Delta-E=       -0.000000006214 Rises=F Damp=F
 DIIS: error= 3.77D-06 at cycle   2 NSaved=   2.
 NSaved= 2 IEnMin= 2 EnMin= -93.3031750760334     IErMin= 2 ErrMin= 3.77D-06
 ErrMax= 3.77D-06  0.00D+00 EMaxC= 1.00D-01 BMatC= 3.39D-10 BMatP= 5.05D-09
 IDIUse=1 WtCom= 1.00D+00 WtEn= 0.00D+00
 Coeff-Com: -0.147D-01 0.101D+01
 Coeff:     -0.147D-01 0.101D+01
 Gap=     0.393 Goal=   None    Shift=    0.000
 RMSDP=1.13D-06 MaxDP=1.09D-05 DE=-6.21D-09 OVMax= 1.61D-05

 Cycle  10  Pass 1  IDiag  1:
 E= -93.3031750758152     Delta-E=        0.000000000218 Rises=F Damp=F
 DIIS: error= 5.91D-06 at cycle   3 NSaved=   3.
 NSaved= 3 IEnMin= 2 EnMin= -93.3031750760334     IErMin= 2 ErrMin= 3.77D-06
 ErrMax= 5.91D-06  0.00D+00 EMaxC= 1.00D-01 BMatC= 7.33D-10 BMatP= 3.39D-10
 IDIUse=1 WtCom= 1.00D+00 WtEn= 0.00D+00
 Coeff-Com: -0.685D-01 0.652D+00 0.416D+00
 Coeff:     -0.685D-01 0.652D+00 0.416D+00
 Gap=     0.393 Goal=   None    Shift=    0.000
 RMSDP=6.16D-07 MaxDP=5.23D-06 DE= 2.18D-10 OVMax= 8.84D-06

 Cycle  11  Pass 1  IDiag  1:
 E= -93.3031750764695     Delta-E=       -0.000000000654 Rises=F Damp=F
 DIIS: error= 3.71D-07 at cycle   4 NSaved=   4.
 NSaved= 4 IEnMin= 4 EnMin= -93.3031750764695     IErMin= 4 ErrMin= 3.71D-07
 ErrMax= 3.71D-07  0.00D+00 EMaxC= 1.00D-01 BMatC= 4.24D-12 BMatP= 3.39D-10
 IDIUse=1 WtCom= 1.00D+00 WtEn= 0.00D+00
 Coeff-Com: -0.280D-02-0.362D-01 0.217D-01 0.102D+01
 Coeff:     -0.280D-02-0.362D-01 0.217D-01 0.102D+01
 Gap=     0.393 Goal=   None    Shift=    0.000
 RMSDP=1.25D-07 MaxDP=8.44D-07 DE=-6.54D-10 OVMax= 2.21D-06

 Cycle  12  Pass 1  IDiag  1:
 E= -93.3031750764794     Delta-E=       -0.000000000010 Rises=F Damp=F
 DIIS: error= 1.38D-07 at cycle   5 NSaved=   5.
 NSaved= 5 IEnMin= 5 EnMin= -93.3031750764794     IErMin= 5 ErrMin= 1.38D-07
 ErrMax= 1.38D-07  0.00D+00 EMaxC= 1.00D-01 BMatC= 6.67D-13 BMatP= 4.24D-12
 IDIUse=1 WtCom= 1.00D+00 WtEn= 0.00D+00
 Coeff-Com:  0.767D-02-0.862D-01-0.411D-01 0.246D+00 0.873D+00
 Coeff:      0.767D-02-0.862D-01-0.411D-01 0.246D+00 0.873D+00
 Gap=     0.393 Goal=   None    Shift=    0.000
 RMSDP=4.67D-08 MaxDP=3.58D-07 DE=-9.89D-12 OVMax= 8.62D-07

 Cycle  13  Pass 1  IDiag  1:
 E= -93.3031750764811     Delta-E=       -0.000000000002 Rises=F Damp=F
 DIIS: error= 3.54D-08 at cycle   6 NSaved=   6.
 NSaved= 6 IEnMin= 6 EnMin= -93.3031750764811     IErMin= 6 ErrMin= 3.54D-08
 ErrMax= 3.54D-08  0.00D+00 EMaxC= 1.00D-01 BMatC= 2.49D-14 BMatP= 6.67D-13
 IDIUse=1 WtCom= 1.00D+00 WtEn= 0.00D+00
 Coeff-Com: -0.794D-03 0.129D-01 0.430D-02-0.119D+00-0.130D+00 0.123D+01
 Coeff:     -0.794D-03 0.129D-01 0.430D-02-0.119D+00-0.130D+00 0.123D+01
 Gap=     0.393 Goal=   None    Shift=    0.000
 RMSDP=1.81D-08 MaxDP=1.31D-07 DE=-1.73D-12 OVMax= 3.65D-07

 Cycle  14  Pass 1  IDiag  1:
 E= -93.3031750764810     Delta-E=        0.000000000000 Rises=F Damp=F
 DIIS: error= 2.78D-09 at cycle   7 NSaved=   7.
 NSaved= 7 IEnMin= 6 EnMin= -93.3031750764811     IErMin= 7 ErrMin= 2.78D-09
 ErrMax= 2.78D-09  0.00D+00 EMaxC= 1.00D-01 BMatC= 3.27D-16 BMatP= 2.49D-14
 IDIUse=1 WtCom= 1.00D+00 WtEn= 0.00D+00
 Coeff-Com: -0.218D-03 0.249D-02 0.146D-02-0.403D-02-0.213D-01-0.564D-02
 Coeff-Com:  0.103D+01
 Coeff:     -0.218D-03 0.249D-02 0.146D-02-0.403D-02-0.213D-01-0.564D-02
 Coeff:      0.103D+01
 Gap=     0.393 Goal=   None    Shift=    0.000
 RMSDP=2.00D-09 MaxDP=3.01D-08 DE= 1.42D-13 OVMax= 2.42D-08

 SCF Done:  E(RM062X) =  -93.3031750765     A.U. after   14 cycles
            NFock= 14  Conv=0.20D-08     -V/T= 2.0058
 KE= 9.276222388328D+01 PE=-2.654920509858D+02 EE= 5.538028089284D+01
 Leave Link  502 at Wed Oct  7 13:29:18 2020, MaxMem=  2684354560 cpu:              16.9 elap:               1.9
 (Enter /udrive/faculty/rpeverati/g16/g16/l508.exe)
 QCSCF skips out because SCF is already converged.
 Leave Link  508 at Wed Oct  7 13:29:19 2020, MaxMem=  2684354560 cpu:               0.3 elap:               0.5
 (Enter /udrive/faculty/rpeverati/g16/g16/l601.exe)
 Copying SCF densities to generalized density rwf, IOpCl= 0 IROHF=0.

 **********************************************************************

            Population analysis using the SCF density.

 **********************************************************************

 Orbital symmetries:
       Occupied  (A') (A') (A') (A') (A') (A") (A')
       Virtual   (A') (A") (A') (A') (A') (A") (A') (A') (A') (A")
                 (A') (A') (A') (A") (A') (A") (A') (A") (A') (A')
                 (A') (A") (A')
 The electronic state is 1-A'.
 Alpha  occ. eigenvalues --  -14.83365 -10.60204  -1.09088  -0.59469  -0.52143
 Alpha  occ. eigenvalues --   -0.44821  -0.39641
 Alpha virt. eigenvalues --   -0.00352   0.06599   0.11707   0.36104   0.57733
 Alpha virt. eigenvalues --    0.58259   0.62668   0.72459   0.77459   0.80918
 Alpha virt. eigenvalues --    0.83076   0.90455   1.30411   1.51590   1.54903
 Alpha virt. eigenvalues --    1.57551   1.82943   1.94106   2.01821   2.36712
 Alpha virt. eigenvalues --    2.54763   2.57032   2.86503
          Condensed to atoms (all electrons):
               1          2          3
     1  C    5.394788   0.440716   0.218859
     2  N    0.440716   6.738572   0.051678
     3  H    0.218859   0.051678   0.444134
 Mulliken charges:
               1
     1  C   -0.054363
     2  N   -0.230966
     3  H    0.285329
 Sum of Mulliken charges =   0.00000
 Mulliken charges with hydrogens summed into heavy atoms:
               1
     1  C    0.230966
     2  N   -0.230966
 Electronic spatial extent (au):  <R**2>=             47.0402
 Charge=              0.0000 electrons
 Dipole moment (field-independent basis, Debye):
    X=             -1.3218    Y=              0.1734    Z=              0.0000  Tot=              1.3332
 Quadrupole moment (field-independent basis, Debye-Ang):
   XX=             -9.4631   YY=            -14.0614   ZZ=            -11.8558
   XY=             -0.3406   XZ=              0.0000   YZ=              0.0000
 Traceless Quadrupole moment (field-independent basis, Debye-Ang):
   XX=              2.3303   YY=             -2.2680   ZZ=             -0.0624
   XY=             -0.3406   XZ=              0.0000   YZ=              0.0000
 Octapole moment (field-independent basis, Debye-Ang**2):
  XXX=             -2.2494  YYY=             -2.6473  ZZZ=              0.0000  XYY=             -0.1821
  XXY=             -0.3878  XXZ=              0.0000  XZZ=             -0.2299  YZZ=             -0.5026
  YYZ=              0.0000  XYZ=              0.0000
 Hexadecapole moment (field-independent basis, Debye-Ang**3):
 XXXX=            -11.9749 YYYY=            -40.8421 ZZZZ=            -10.9536 XXXY=             -0.0972
 XXXZ=              0.0000 YYYX=              0.4280 YYYZ=              0.0000 ZZZX=              0.0000
 ZZZY=              0.0000 XXYY=             -8.5409 XXZZ=             -4.2113 YYZZ=             -8.1433
 XXYZ=              0.0000 YYXZ=              0.0000 ZZXY=              0.1405
 N-N= 2.404637113320D+01 E-N=-2.654920509566D+02  KE= 9.276222388328D+01
 No NMR shielding tensors so no spin-rotation constants.
 Leave Link  601 at Wed Oct  7 13:29:20 2020, MaxMem=  2684354560 cpu:               3.4 elap:               0.6
 (Enter /udrive/faculty/rpeverati/g16/g16/l701.exe)
 ... and contract with generalized density number  0.
 Compute integral first derivatives.
 Leave Link  701 at Wed Oct  7 13:29:20 2020, MaxMem=  2684354560 cpu:               3.4 elap:               0.6
 (Enter /udrive/faculty/rpeverati/g16/g16/l702.exe)
 L702 exits ... SP integral derivatives will be done elsewhere.
 Leave Link  702 at Wed Oct  7 13:29:21 2020, MaxMem=  2684354560 cpu:               1.4 elap:               0.6
 (Enter /udrive/faculty/rpeverati/g16/g16/l703.exe)
 Integral derivatives from FoFJK, PRISM(SPDF).
 Compute integral first derivatives, UseDBF=F ICtDFT=           0.
 Calling FoFJK, ICntrl=      2127 FMM=F ISym2X=1 I1Cent= 0 IOpClX= 0 NMat=1 NMatS=1 NMatT=0.
 FoFJK:  IHMeth= 1 ICntrl=    2127 DoSepK=F KAlg= 0 I1Cent=           0 FoldK=F
 IRaf=         0 NMat=       1 IRICut=       1 DoRegI=T DoRafI=F ISym2E= 1 IDoP0=0 IntGTp=1.
 FoFCou: FMM=F IPFlag=           0 FMFlag=      100000 FMFlg1=         800
         NFxFlg=           0 DoJE=F BraDBF=F KetDBF=F FulRan=T
         wScrn=  0.000000 ICntrl=      2127 IOpCl=  0 I1Cent=           0 NGrid=           0
         NMat0=    1 NMatS0=      1 NMatT0=    0 NMatD0=    1 NMtDS0=    0 NMtDT0=    0
 Petite list used in FoFCou.
 Leave Link  703 at Wed Oct  7 13:29:22 2020, MaxMem=  2684354560 cpu:               6.2 elap:               0.9
 (Enter /udrive/faculty/rpeverati/g16/g16/l716.exe)
 Dipole        =-5.20055743D-01 6.82178435D-02 0.00000000D+00
 ***** Axes restored to original set *****
 -------------------------------------------------------------------
 Center     Atomic                   Forces (Hartrees/Bohr)
 Number     Number              X              Y              Z
 -------------------------------------------------------------------
      1        6           0.004690456   -0.004012961   -0.000000000
      2        7          -0.004367242    0.008731830   -0.000000000
      3        1          -0.000323214   -0.004718869   -0.000000000
 -------------------------------------------------------------------
 Cartesian Forces:  Max     0.008731830 RMS     0.004160583
 Leave Link  716 at Wed Oct  7 13:29:23 2020, MaxMem=  2684354560 cpu:               2.2 elap:               0.6
 (Enter /udrive/faculty/rpeverati/g16/g16/l103.exe)

 GradGradGradGradGradGradGradGradGradGradGradGradGradGradGradGradGradGrad
 Berny optimization.
 Optmz: redundant internal coordinate code flag= 1
 FormGI is forming the generalized inverse of G from B-inverse, IUseBI=4.
 Internal  Forces:  Max     0.009805785 RMS     0.007648987
 Search for a saddle point.
 Step number   1 out of a maximum of   50
 All quantities printed in internal units (Hartrees-Bohrs-Radians)
 Swapping is turned off.
 Second derivative matrix not updated -- first step.
 The second derivative matrix:
                          R1        R2        A1
           R1           1.10901
           R2           0.00000   0.26007
           A1           0.00000   0.00000   0.16000
 ITU=  0
 Eigenvectors of the second derivative matrix:
                           1         2         3
     Eigenvalues --     0.16000   0.26007   1.10901
   1         R1         0.00000   0.00000   1.00000
   2         R2         0.00000  -1.00000  -0.00000
   3         A1        -1.00000  -0.00000   0.00000
 Eigenvalue     1 is   1.60D-01 should be less than     0.000000 Eigenvector:
                          A1        R2        R1
   1                   -1.00000   0.00000   0.00000
 RLam0= 1.61D-01.
 Iter=   1 RLamda= 0.00000000D+00 Sum=-8.07381341D-05.
 Iter=   2 RLamda=-8.07381341D-05 Sum=-8.07294103D-05.
 RFO step:  Lambda0=1.605987185D-01 Lambda=-8.07381341D-05.
 Linear search not attempted -- option 19 set.
 Iteration  1 RMS(Cart)=  0.00937352 RMS(Int)=  0.00003262
 Iteration  2 RMS(Cart)=  0.00002141 RMS(Int)=  0.00000000
 Iteration  3 RMS(Cart)=  0.00000000 RMS(Int)=  0.00000000
 ITry= 1 IFail=0 DXMaxC= 1.00D-02 DCOld= 1.00D+10 DXMaxT= 1.00D-01 DXLimC= 3.00D+00 Rises=F
 ClnCor:  largest displacement from symmetrization is 1.37D-15 for atom     3.
 Variable       Old X    -DE/DX   Delta X   Delta X   Delta X     New X
                                 (Linear)    (Quad)   (Total)
    R1        2.24566  -0.00873   0.00000  -0.00787  -0.00787   2.23779
    R2        2.23415   0.00177   0.00000   0.00679   0.00679   2.24094
    A1        1.25682  -0.00981   0.00000   0.01039   0.01039   1.26721
         Item               Value     Threshold  Converged?
 Maximum Force            0.009806     0.000450     NO 
 RMS     Force            0.007649     0.000300     NO 
 Maximum Displacement     0.010015     0.001800     NO 
 RMS     Displacement     0.009373     0.001200     NO 
 Predicted change in Energy= 7.019310D-05
 Lowest energy point so far.  Saving SCF results.
 Largest change from initial coordinates is atom    3       0.006 Angstoms.
 GradGradGradGradGradGradGradGradGradGradGradGradGradGradGradGradGradGrad

 Leave Link  103 at Wed Oct  7 13:29:24 2020, MaxMem=  2684354560 cpu:               2.6 elap:               0.6
 (Enter /udrive/faculty/rpeverati/g16/g16/l202.exe)
                          Input orientation:                          
 ---------------------------------------------------------------------
 Center     Atomic      Atomic             Coordinates (Angstroms)
 Number     Number       Type             X           Y           Z
 ---------------------------------------------------------------------
      1          6           0        0.080987    0.616586    0.000000
      2          7           0        0.084951   -0.567593    0.000000
      3          1           0       -1.049446    0.258295    0.000000
 ---------------------------------------------------------------------
                    Distance matrix (angstroms):
                    1          2          3
     1  C    0.000000
     2  N    1.184186   0.000000
     3  H    1.185854   1.403192   0.000000
 Stoichiometry    CHN
 Framework group  CS[SG(CHN)]
 Deg. of freedom     3
 Full point group                 CS      NOp   2
 RotChk:  IX=0 Diff= 4.73D-03
 Largest Abelian subgroup         CS      NOp   2
 Largest concise Abelian subgroup C1      NOp   1
                         Standard orientation:                         
 ---------------------------------------------------------------------
 Center     Atomic      Atomic             Coordinates (Angstroms)
 Number     Number       Type             X           Y           Z
 ---------------------------------------------------------------------
      1          6           0        0.080830    0.617415    0.000000
      2          7           0        0.080830   -0.566771    0.000000
      3          1           0       -1.050796    0.262910    0.000000
 ---------------------------------------------------------------------
 Rotational constants (GHZ):         410.8036902          55.2209556          48.6776237
 Leave Link  202 at Wed Oct  7 13:29:25 2020, MaxMem=  2684354560 cpu:               1.2 elap:               0.4
 (Enter /udrive/faculty/rpeverati/g16/g16/l301.exe)
 Standard basis: 6-31G(d) (5D, 7F)
 Ernie: Thresh=  0.10000D-02 Tol=  0.10000D-05 Strict=F.
 There are    24 symmetry adapted cartesian basis functions of A'  symmetry.
 There are     8 symmetry adapted cartesian basis functions of A"  symmetry.
 There are    22 symmetry adapted basis functions of A'  symmetry.
 There are     8 symmetry adapted basis functions of A"  symmetry.
    30 basis functions,    60 primitive gaussians,    32 cartesian basis functions
     7 alpha electrons        7 beta electrons
       nuclear repulsion energy        24.0858598401 Hartrees.
 IExCor= 4336 DFT=T Ex+Corr=M062X ExCW=0 ScaHFX=  0.540000
 ScaDFX=  1.000000  1.000000  1.000000  1.000000 ScalE2=  1.000000  1.000000
 IRadAn=      5 IRanWt=     -1 IRanGd=            0 ICorTp=0 IEmpDi=  4
 NAtoms=    3 NActive=    3 NUniq=    3 SFac= 1.00D+00 NAtFMM=   60 NAOKFM=F Big=F
 Integral buffers will be    131072 words long.
 Raffenetti 2 integral format.
 Two-electron integral symmetry is turned on.
 Leave Link  301 at Wed Oct  7 13:29:26 2020, MaxMem=  2684354560 cpu:               1.8 elap:               0.6
 (Enter /udrive/faculty/rpeverati/g16/g16/l302.exe)
 NPDir=0 NMtPBC=     1 NCelOv=     1 NCel=       1 NClECP=     1 NCelD=      1
         NCelK=      1 NCelE2=     1 NClLst=     1 CellRange=     0.0.
 One-electron integrals computed using PRISM.
 One-electron integral symmetry used in STVInt
 NBasis=    30 RedAO= T EigKep=  7.77D-03  NBF=    22     8
 NBsUse=    30 1.00D-06 EigRej= -1.00D+00 NBFU=    22     8
 Precomputing XC quadrature grid using
 IXCGrd= 4 IRadAn=           5 IRanWt=          -1 IRanGd=           0 AccXCQ= 0.00D+00.
 Generated NRdTot=       0 NPtTot=           0 NUsed=           0 NTot=          32
 NSgBfM=    32    32    32    32    32 MxSgAt=     3 MxSgA2=     3.
 Leave Link  302 at Wed Oct  7 13:29:27 2020, MaxMem=  2684354560 cpu:               3.8 elap:               0.8
 (Enter /udrive/faculty/rpeverati/g16/g16/l303.exe)
 DipDrv:  MaxL=1.
 Leave Link  303 at Wed Oct  7 13:29:28 2020, MaxMem=  2684354560 cpu:               1.5 elap:               0.6
 (Enter /udrive/faculty/rpeverati/g16/g16/l401.exe)
 Initial guess from the checkpoint file:  "MN_49_hcnts_BH76_M062X_631Gs.chk"
 SCF N**3 symmetry information disabled.
 B after Tr=     0.000000    0.000000    0.000000
         Rot=    1.000000    0.000000    0.000000    0.000598 Ang=   0.07 deg.
 Guess basis will be translated and rotated to current coordinates.
 JPrj=2 DoOrth=T DoCkMO=T.
 Initial guess orbital symmetries:
       Occupied  (A') (A') (A') (A') (A') (A") (A')
       Virtual   (A') (A") (A') (A') (A') (A") (A') (A') (A') (A")
                 (A') (A') (A') (A") (A') (A") (A') (A") (A') (A')
                 (A') (A") (A')
 The electronic state of the initial guess is 1-A'.
 Leave Link  401 at Wed Oct  7 13:29:29 2020, MaxMem=  2684354560 cpu:               2.9 elap:               0.7
 (Enter /udrive/faculty/rpeverati/g16/g16/l502.exe)
 Keep R1 ints in memory in symmetry-blocked form, NReq=10468376.
 FoFCou: FMM=F IPFlag=           0 FMFlag=           0 FMFlg1=           0
         NFxFlg=           0 DoJE=F BraDBF=F KetDBF=F FulRan=T
         wScrn=  0.000000 ICntrl=       600 IOpCl=  0 I1Cent=           0 NGrid=           0
         NMat0=    1 NMatS0=    465 NMatT0=    0 NMatD0=    1 NMtDS0=    0 NMtDT0=    0
 Petite list used in FoFCou.
 Closed shell SCF:
 Using DIIS extrapolation, IDIIS=  1040.
 NGot=  2684354560 LenX=  2684292770 LenY=  2684291305
 Requested convergence on RMS density matrix=1.00D-08 within 120 cycles.
 Requested convergence on MAX density matrix=1.00D-06.
 Requested convergence on             energy=1.00D-06.
 No special actions if energy rises.

 Cycle   1  Pass 1  IDiag  1:
 E= -93.3030850894404    
 DIIS: error= 5.57D-04 at cycle   1 NSaved=   1.
 NSaved= 1 IEnMin= 1 EnMin= -93.3030850894404     IErMin= 1 ErrMin= 5.57D-04
 ErrMax= 5.57D-04  0.00D+00 EMaxC= 1.00D-01 BMatC= 1.49D-05 BMatP= 1.49D-05
 IDIUse=3 WtCom= 9.94D-01 WtEn= 5.57D-03
 Coeff-Com:  0.100D+01
 Coeff-En:   0.100D+01
 Coeff:      0.100D+01
 Gap=     0.393 Goal=   None    Shift=    0.000
 RMSDP=2.26D-04 MaxDP=2.14D-03              OVMax= 2.75D-03

 Cycle   2  Pass 1  IDiag  1:
 E= -93.3031119432127     Delta-E=       -0.000026853772 Rises=F Damp=F
 DIIS: error= 1.44D-04 at cycle   2 NSaved=   2.
 NSaved= 2 IEnMin= 2 EnMin= -93.3031119432127     IErMin= 2 ErrMin= 1.44D-04
 ErrMax= 1.44D-04  0.00D+00 EMaxC= 1.00D-01 BMatC= 1.04D-06 BMatP= 1.49D-05
 IDIUse=3 WtCom= 9.99D-01 WtEn= 1.44D-03
 Coeff-Com: -0.133D-01 0.101D+01
 Coeff-En:   0.000D+00 0.100D+01
 Coeff:     -0.133D-01 0.101D+01
 Gap=     0.392 Goal=   None    Shift=    0.000
 RMSDP=7.13D-05 MaxDP=4.30D-04 DE=-2.69D-05 OVMax= 1.17D-03

 Cycle   3  Pass 1  IDiag  1:
 E= -93.3031140794354     Delta-E=       -0.000002136223 Rises=F Damp=F
 DIIS: error= 9.72D-05 at cycle   3 NSaved=   3.
 NSaved= 3 IEnMin= 3 EnMin= -93.3031140794354     IErMin= 3 ErrMin= 9.72D-05
 ErrMax= 9.72D-05  0.00D+00 EMaxC= 1.00D-01 BMatC= 3.09D-07 BMatP= 1.04D-06
 IDIUse=1 WtCom= 1.00D+00 WtEn= 0.00D+00
 Coeff-Com: -0.761D-01 0.310D+00 0.766D+00
 Coeff:     -0.761D-01 0.310D+00 0.766D+00
 Gap=     0.392 Goal=   None    Shift=    0.000
 RMSDP=2.93D-05 MaxDP=4.64D-04 DE=-2.14D-06 OVMax= 3.04D-04

 Cycle   4  Pass 1  IDiag  1:
 E= -93.3031145019355     Delta-E=       -0.000000422500 Rises=F Damp=F
 DIIS: error= 5.06D-05 at cycle   4 NSaved=   4.
 NSaved= 4 IEnMin= 4 EnMin= -93.3031145019355     IErMin= 4 ErrMin= 5.06D-05
 ErrMax= 5.06D-05  0.00D+00 EMaxC= 1.00D-01 BMatC= 8.23D-08 BMatP= 3.09D-07
 IDIUse=1 WtCom= 1.00D+00 WtEn= 0.00D+00
 Coeff-Com: -0.350D-01 0.838D-01 0.381D+00 0.570D+00
 Coeff:     -0.350D-01 0.838D-01 0.381D+00 0.570D+00
 Gap=     0.392 Goal=   None    Shift=    0.000
 RMSDP=1.09D-05 MaxDP=7.52D-05 DE=-4.23D-07 OVMax= 1.94D-04

 Cycle   5  Pass 1  IDiag  1:
 E= -93.3031145882538     Delta-E=       -0.000000086318 Rises=F Damp=F
 DIIS: error= 3.14D-05 at cycle   5 NSaved=   5.
 NSaved= 5 IEnMin= 5 EnMin= -93.3031145882538     IErMin= 5 ErrMin= 3.14D-05
 ErrMax= 3.14D-05  0.00D+00 EMaxC= 1.00D-01 BMatC= 1.73D-08 BMatP= 8.23D-08
 IDIUse=1 WtCom= 1.00D+00 WtEn= 0.00D+00
 Coeff-Com:  0.135D-01-0.886D-01-0.117D+00 0.304D+00 0.888D+00
 Coeff:      0.135D-01-0.886D-01-0.117D+00 0.304D+00 0.888D+00
 Gap=     0.392 Goal=   None    Shift=    0.000
 RMSDP=7.14D-06 MaxDP=6.37D-05 DE=-8.63D-08 OVMax= 1.14D-04

 Cycle   6  Pass 1  IDiag  1:
 E= -93.3031146165874     Delta-E=       -0.000000028334 Rises=F Damp=F
 DIIS: error= 2.67D-06 at cycle   6 NSaved=   6.
 NSaved= 6 IEnMin= 6 EnMin= -93.3031146165874     IErMin= 6 ErrMin= 2.67D-06
 ErrMax= 2.67D-06  0.00D+00 EMaxC= 1.00D-01 BMatC= 1.44D-10 BMatP= 1.73D-08
 IDIUse=1 WtCom= 1.00D+00 WtEn= 0.00D+00
 Coeff-Com:  0.536D-03 0.348D-02-0.117D-01-0.529D-01-0.116D+00 0.118D+01
 Coeff:      0.536D-03 0.348D-02-0.117D-01-0.529D-01-0.116D+00 0.118D+01
 Gap=     0.392 Goal=   None    Shift=    0.000
 RMSDP=1.35D-06 MaxDP=9.92D-06 DE=-2.83D-08 OVMax= 2.61D-05

 Cycle   7  Pass 1  IDiag  1:
 E= -93.3031146171862     Delta-E=       -0.000000000599 Rises=F Damp=F
 DIIS: error= 2.75D-07 at cycle   7 NSaved=   7.
 NSaved= 7 IEnMin= 7 EnMin= -93.3031146171862     IErMin= 7 ErrMin= 2.75D-07
 ErrMax= 2.75D-07  0.00D+00 EMaxC= 1.00D-01 BMatC= 4.74D-12 BMatP= 1.44D-10
 IDIUse=1 WtCom= 1.00D+00 WtEn= 0.00D+00
 Coeff-Com: -0.521D-03 0.373D-02 0.526D-02-0.984D-02-0.340D-01 0.426D-01
 Coeff-Com:  0.993D+00
 Coeff:     -0.521D-03 0.373D-02 0.526D-02-0.984D-02-0.340D-01 0.426D-01
 Coeff:      0.993D+00
 Gap=     0.392 Goal=   None    Shift=    0.000
 RMSDP=2.01D-07 MaxDP=2.34D-06 DE=-5.99D-10 OVMax= 2.08D-06

 Cycle   8  Pass 1  IDiag  1:
 E= -93.3031146171954     Delta-E=       -0.000000000009 Rises=F Damp=F
 DIIS: error= 8.70D-08 at cycle   8 NSaved=   8.
 NSaved= 8 IEnMin= 8 EnMin= -93.3031146171954     IErMin= 8 ErrMin= 8.70D-08
 ErrMax= 8.70D-08  0.00D+00 EMaxC= 1.00D-01 BMatC= 2.86D-13 BMatP= 4.74D-12
 IDIUse=1 WtCom= 1.00D+00 WtEn= 0.00D+00
 Coeff-Com: -0.527D-04-0.239D-04 0.981D-03 0.249D-02 0.414D-02-0.665D-01
 Coeff-Com:  0.115D+00 0.944D+00
 Coeff:     -0.527D-04-0.239D-04 0.981D-03 0.249D-02 0.414D-02-0.665D-01
 Coeff:      0.115D+00 0.944D+00
 Gap=     0.392 Goal=   None    Shift=    0.000
 RMSDP=3.56D-08 MaxDP=2.97D-07 DE=-9.24D-12 OVMax= 4.33D-07

 Cycle   9  Pass 1  IDiag  1:
 E= -93.3031146171958     Delta-E=       -0.000000000000 Rises=F Damp=F
 DIIS: error= 1.49D-08 at cycle   9 NSaved=   9.
 NSaved= 9 IEnMin= 9 EnMin= -93.3031146171958     IErMin= 9 ErrMin= 1.49D-08
 ErrMax= 1.49D-08  0.00D+00 EMaxC= 1.00D-01 BMatC= 9.83D-15 BMatP= 2.86D-13
 IDIUse=1 WtCom= 1.00D+00 WtEn= 0.00D+00
 Coeff-Com:  0.133D-04-0.142D-03-0.809D-04 0.621D-03 0.149D-02-0.104D-01
 Coeff-Com: -0.248D-01 0.121D+00 0.912D+00
 Coeff:      0.133D-04-0.142D-03-0.809D-04 0.621D-03 0.149D-02-0.104D-01
 Coeff:     -0.248D-01 0.121D+00 0.912D+00
 Gap=     0.392 Goal=   None    Shift=    0.000
 RMSDP=5.83D-09 MaxDP=4.05D-08 DE=-3.98D-13 OVMax= 8.77D-08

 SCF Done:  E(RM062X) =  -93.3031146172     A.U. after    9 cycles
            NFock=  9  Conv=0.58D-08     -V/T= 2.0057
 KE= 9.277283457391D+01 PE=-2.655875294377D+02 EE= 5.542572040649D+01
 Leave Link  502 at Wed Oct  7 13:29:30 2020, MaxMem=  2684354560 cpu:              12.5 elap:               1.4
 (Enter /udrive/faculty/rpeverati/g16/g16/l508.exe)
 QCSCF skips out because SCF is already converged.
 Leave Link  508 at Wed Oct  7 13:29:31 2020, MaxMem=  2684354560 cpu:               0.3 elap:               0.4
 (Enter /udrive/faculty/rpeverati/g16/g16/l701.exe)
 ... and contract with generalized density number  0.
 Compute integral first derivatives.
 Leave Link  701 at Wed Oct  7 13:29:32 2020, MaxMem=  2684354560 cpu:               3.4 elap:               0.6
 (Enter /udrive/faculty/rpeverati/g16/g16/l702.exe)
 L702 exits ... SP integral derivatives will be done elsewhere.
 Leave Link  702 at Wed Oct  7 13:29:32 2020, MaxMem=  2684354560 cpu:               1.5 elap:               0.5
 (Enter /udrive/faculty/rpeverati/g16/g16/l703.exe)
 Integral derivatives from FoFJK, PRISM(SPDF).
 Compute integral first derivatives, UseDBF=F ICtDFT=           0.
 Calling FoFJK, ICntrl=      2127 FMM=F ISym2X=1 I1Cent= 0 IOpClX= 0 NMat=1 NMatS=1 NMatT=0.
 FoFJK:  IHMeth= 1 ICntrl=    2127 DoSepK=F KAlg= 0 I1Cent=           0 FoldK=F
 IRaf=         0 NMat=       1 IRICut=       1 DoRegI=T DoRafI=F ISym2E= 1 IDoP0=0 IntGTp=1.
 FoFCou: FMM=F IPFlag=           0 FMFlag=      100000 FMFlg1=         800
         NFxFlg=           0 DoJE=F BraDBF=F KetDBF=F FulRan=T
         wScrn=  0.000000 ICntrl=      2127 IOpCl=  0 I1Cent=           0 NGrid=           0
         NMat0=    1 NMatS0=      1 NMatT0=    0 NMatD0=    1 NMtDS0=    0 NMtDT0=    0
 Petite list used in FoFCou.
 Leave Link  703 at Wed Oct  7 13:29:33 2020, MaxMem=  2684354560 cpu:               5.3 elap:               0.8
 (Enter /udrive/faculty/rpeverati/g16/g16/l716.exe)
 Dipole        =-5.26498635D-01 7.37687422D-02 0.00000000D+00
 ***** Axes restored to original set *****
 -------------------------------------------------------------------
 Center     Atomic                   Forces (Hartrees/Bohr)
 Number     Number              X              Y              Z
 -------------------------------------------------------------------
      1        6           0.001430918    0.003170490   -0.000000000
      2        7          -0.003938644    0.000169810   -0.000000000
      3        1           0.002507726   -0.003340301   -0.000000000
 -------------------------------------------------------------------
 Cartesian Forces:  Max     0.003938644 RMS     0.002238243
 Leave Link  716 at Wed Oct  7 13:29:34 2020, MaxMem=  2684354560 cpu:               1.1 elap:               0.5
 (Enter /udrive/faculty/rpeverati/g16/g16/l103.exe)

 GradGradGradGradGradGradGradGradGradGradGradGradGradGradGradGradGradGrad
 Berny optimization.
 Optmz: redundant internal coordinate code flag= 1
 Red2BG:  D1=  4.79D-01 OD1=  5.92D-03 B2RMS=  0.00D+00 IAprox=0
 FormGI is forming the generalized inverse of G from B-inverse, IUseBI=4.
 Internal  Forces:  Max     0.008822989 RMS     0.005157289
 Search for a saddle point.
 Step number   2 out of a maximum of   50
 All quantities printed in internal units (Hartrees-Bohrs-Radians)
 Swapping is turned off.
 Update second derivatives using D2CorX and points    1    2
 The second derivative matrix:
                          R1        R2        A1
           R1           1.11898
           R2          -0.05642   0.32599
           A1           0.06168   0.04742  -0.07879
 ITU=  0  0
 Eigenvectors of the second derivative matrix:
                           1         2         3
     Eigenvalues --    -0.08809   0.32848   1.12579
   1         R1         0.05630   0.06097  -0.99655
   2         R2         0.12116   0.99034   0.06744
   3         A1        -0.99103   0.12454  -0.04837
 RLam0= 8.25D-04.
 Iter=   1 RLamda= 0.00000000D+00 Sum=-1.89628654D-05.
 Iter=   2 RLamda=-1.89628654D-05 Sum=-1.89617804D-05.
 RFO step:  Lambda0=8.252401401D-04 Lambda=-1.89628654D-05.
 Linear search not attempted -- option 19 set.
 Iteration  1 RMS(Cart)=  0.07229668 RMS(Int)=  0.00207583
 Iteration  2 RMS(Cart)=  0.00179491 RMS(Int)=  0.00000031
 Iteration  3 RMS(Cart)=  0.00000039 RMS(Int)=  0.00000000
 ITry= 1 IFail=0 DXMaxC= 7.59D-02 DCOld= 1.00D+10 DXMaxT= 1.00D-01 DXLimC= 3.00D+00 Rises=F
 ClnCor:  largest displacement from symmetrization is 1.40D-15 for atom     3.
 Variable       Old X    -DE/DX   Delta X   Delta X   Delta X     New X
                                 (Linear)    (Quad)   (Total)
    R1        2.23779  -0.00018   0.00000  -0.00634  -0.00634   2.23145
    R2        2.24094  -0.00138   0.00000  -0.01912  -0.01912   2.22182
    A1        1.26721  -0.00882   0.00000   0.09451   0.09451   1.36172
         Item               Value     Threshold  Converged?
 Maximum Force            0.008823     0.000450     NO 
 RMS     Force            0.005157     0.000300     NO 
 Maximum Displacement     0.075913     0.001800     NO 
 RMS     Displacement     0.071251     0.001200     NO 
 Predicted change in Energy= 4.069682D-04
 Largest change from initial coordinates is atom    3       0.052 Angstoms.
 GradGradGradGradGradGradGradGradGradGradGradGradGradGradGradGradGradGrad

 Leave Link  103 at Wed Oct  7 13:29:35 2020, MaxMem=  2684354560 cpu:               1.5 elap:               0.4
 (Enter /udrive/faculty/rpeverati/g16/g16/l202.exe)
                          Input orientation:                          
 ---------------------------------------------------------------------
 Center     Atomic      Atomic             Coordinates (Angstroms)
 Number     Number       Type             X           Y           Z
 ---------------------------------------------------------------------
      1          6           0        0.063616    0.596707    0.000000
      2          7           0        0.125122   -0.582521    0.000000
      3          1           0       -1.072246    0.293102    0.000000
 ---------------------------------------------------------------------
                    Distance matrix (angstroms):
                    1          2          3
     1  C    0.000000
     2  N    1.180831   0.000000
     3  H    1.175737   1.483376   0.000000
 Stoichiometry    CHN
 Framework group  CS[SG(CHN)]
 Deg. of freedom     3
 Full point group                 CS      NOp   2
 RotChk:  IX=0 Diff= 6.90D-02
 Largest Abelian subgroup         CS      NOp   2
 Largest concise Abelian subgroup C1      NOp   1
                         Standard orientation:                         
 ---------------------------------------------------------------------
 Center     Atomic      Atomic             Coordinates (Angstroms)
 Number     Number       Type             X           Y           Z
 ---------------------------------------------------------------------
      1          6           0        0.082152    0.607846    0.000000
      2          7           0        0.082152   -0.572985    0.000000
      3          1           0       -1.067981    0.363817    0.000000
 ---------------------------------------------------------------------
 Rotational constants (GHZ):         401.3451352          55.0292194          48.3938444
 Leave Link  202 at Wed Oct  7 13:29:35 2020, MaxMem=  2684354560 cpu:               1.1 elap:               0.4
 (Enter /udrive/faculty/rpeverati/g16/g16/l301.exe)
 Standard basis: 6-31G(d) (5D, 7F)
 Ernie: Thresh=  0.10000D-02 Tol=  0.10000D-05 Strict=F.
 There are    24 symmetry adapted cartesian basis functions of A'  symmetry.
 There are     8 symmetry adapted cartesian basis functions of A"  symmetry.
 There are    22 symmetry adapted basis functions of A'  symmetry.
 There are     8 symmetry adapted basis functions of A"  symmetry.
    30 basis functions,    60 primitive gaussians,    32 cartesian basis functions
     7 alpha electrons        7 beta electrons
       nuclear repulsion energy        24.0195172424 Hartrees.
 IExCor= 4336 DFT=T Ex+Corr=M062X ExCW=0 ScaHFX=  0.540000
 ScaDFX=  1.000000  1.000000  1.000000  1.000000 ScalE2=  1.000000  1.000000
 IRadAn=      5 IRanWt=     -1 IRanGd=            0 ICorTp=0 IEmpDi=  4
 NAtoms=    3 NActive=    3 NUniq=    3 SFac= 1.00D+00 NAtFMM=   60 NAOKFM=F Big=F
 Integral buffers will be    131072 words long.
 Raffenetti 2 integral format.
 Two-electron integral symmetry is turned on.
 Leave Link  301 at Wed Oct  7 13:29:36 2020, MaxMem=  2684354560 cpu:               1.7 elap:               0.5
 (Enter /udrive/faculty/rpeverati/g16/g16/l302.exe)
 NPDir=0 NMtPBC=     1 NCelOv=     1 NCel=       1 NClECP=     1 NCelD=      1
         NCelK=      1 NCelE2=     1 NClLst=     1 CellRange=     0.0.
 One-electron integrals computed using PRISM.
 One-electron integral symmetry used in STVInt
 NBasis=    30 RedAO= T EigKep=  7.54D-03  NBF=    22     8
 NBsUse=    30 1.00D-06 EigRej= -1.00D+00 NBFU=    22     8
 Precomputing XC quadrature grid using
 IXCGrd= 4 IRadAn=           5 IRanWt=          -1 IRanGd=           0 AccXCQ= 0.00D+00.
 Generated NRdTot=       0 NPtTot=           0 NUsed=           0 NTot=          32
 NSgBfM=    32    32    32    32    32 MxSgAt=     3 MxSgA2=     3.
 Leave Link  302 at Wed Oct  7 13:29:37 2020, MaxMem=  2684354560 cpu:               3.5 elap:               0.6
 (Enter /udrive/faculty/rpeverati/g16/g16/l303.exe)
 DipDrv:  MaxL=1.
 Leave Link  303 at Wed Oct  7 13:29:38 2020, MaxMem=  2684354560 cpu:               1.3 elap:               0.6
 (Enter /udrive/faculty/rpeverati/g16/g16/l401.exe)
 Initial guess from the checkpoint file:  "MN_49_hcnts_BH76_M062X_631Gs.chk"
 SCF N**3 symmetry information disabled.
 B after Tr=     0.000000    0.000000   -0.000000
         Rot=    0.999956    0.000000   -0.000000    0.009376 Ang=   1.07 deg.
 Guess basis will be translated and rotated to current coordinates.
 JPrj=2 DoOrth=T DoCkMO=T.
 Initial guess orbital symmetries:
       Occupied  (A') (A') (A') (A') (A') (A") (A')
       Virtual   (A') (A") (A') (A') (A') (A") (A') (A') (A') (A")
                 (A') (A') (A') (A") (A') (A") (A') (A") (A') (A')
                 (A') (A") (A')
 The electronic state of the initial guess is 1-A'.
 Generating alternative initial guess.
 ExpMin= 1.61D-01 ExpMax= 4.17D+03 ExpMxC= 6.27D+02 IAcc=2 IRadAn=         4 AccDes= 0.00D+00
 Harris functional with IExCor= 1009 and IRadAn=       4 diagonalized for initial guess.
 HarFok:  IExCor= 1009 AccDes= 0.00D+00 IRadAn=         4 IDoV= 1 UseB2=F ITyADJ=14
 ICtDFT=  3500011 ScaDFX=  1.000000  1.000000  1.000000  1.000000
 FoFCou: FMM=F IPFlag=           0 FMFlag=      100000 FMFlg1=           0
         NFxFlg=           0 DoJE=T BraDBF=F KetDBF=T FulRan=T
         wScrn=  0.000000 ICntrl=       500 IOpCl=  0 I1Cent=   200000004 NGrid=           0
         NMat0=    1 NMatS0=      1 NMatT0=    0 NMatD0=    1 NMtDS0=    0 NMtDT0=    0
 Petite list used in FoFCou.
 Harris En= -93.2390925128909    
 Leave Link  401 at Wed Oct  7 13:29:39 2020, MaxMem=  2684354560 cpu:               6.4 elap:               1.0
 (Enter /udrive/faculty/rpeverati/g16/g16/l502.exe)
 Keep R1 ints in memory in symmetry-blocked form, NReq=10468376.
 FoFCou: FMM=F IPFlag=           0 FMFlag=           0 FMFlg1=           0
         NFxFlg=           0 DoJE=F BraDBF=F KetDBF=F FulRan=T
         wScrn=  0.000000 ICntrl=       600 IOpCl=  0 I1Cent=           0 NGrid=           0
         NMat0=    1 NMatS0=    465 NMatT0=    0 NMatD0=    1 NMtDS0=    0 NMtDT0=    0
 Petite list used in FoFCou.
 Closed shell SCF:
 Using DIIS extrapolation, IDIIS=  1040.
 NGot=  2684354560 LenX=  2684292770 LenY=  2684291305
 Requested convergence on RMS density matrix=1.00D-08 within 120 cycles.
 Requested convergence on MAX density matrix=1.00D-06.
 Requested convergence on             energy=1.00D-06.
 No special actions if energy rises.
 Integral accuracy reduced to 1.0D-05 until final iterations.

 Cycle   1  Pass 0  IDiag  1:
 E= -93.3012644849059    
 DIIS: error= 4.27D-03 at cycle   1 NSaved=   1.
 NSaved= 1 IEnMin= 1 EnMin= -93.3012644849059     IErMin= 1 ErrMin= 4.27D-03
 ErrMax= 4.27D-03  0.00D+00 EMaxC= 1.00D-01 BMatC= 8.08D-04 BMatP= 8.08D-04
 IDIUse=3 WtCom= 9.57D-01 WtEn= 4.27D-02
 Coeff-Com:  0.100D+01
 Coeff-En:   0.100D+01
 Coeff:      0.100D+01
 Gap=     0.385 Goal=   None    Shift=    0.000
 GapD=    0.385 DampG=1.000 DampE=1.000 DampFc=1.0000 IDamp=-1.
 RMSDP=1.99D-03 MaxDP=2.67D-02              OVMax= 2.07D-02

 Cycle   2  Pass 0  IDiag  1:
 E= -93.3029219959404     Delta-E=       -0.001657511035 Rises=F Damp=F
 DIIS: error= 2.80D-03 at cycle   2 NSaved=   2.
 NSaved= 2 IEnMin= 2 EnMin= -93.3029219959404     IErMin= 2 ErrMin= 2.80D-03
 ErrMax= 2.80D-03  0.00D+00 EMaxC= 1.00D-01 BMatC= 2.26D-04 BMatP= 8.08D-04
 IDIUse=3 WtCom= 9.72D-01 WtEn= 2.80D-02
 Coeff-Com:  0.210D+00 0.790D+00
 Coeff-En:   0.000D+00 0.100D+01
 Coeff:      0.204D+00 0.796D+00
 Gap=     0.379 Goal=   None    Shift=    0.000
 RMSDP=7.85D-04 MaxDP=5.77D-03 DE=-1.66D-03 OVMax= 1.38D-02

 Cycle   3  Pass 0  IDiag  1:
 E= -93.3029812036604     Delta-E=       -0.000059207720 Rises=F Damp=F
 DIIS: error= 3.88D-03 at cycle   3 NSaved=   3.
 NSaved= 3 IEnMin= 3 EnMin= -93.3029812036604     IErMin= 2 ErrMin= 2.80D-03
 ErrMax= 3.88D-03  0.00D+00 EMaxC= 1.00D-01 BMatC= 2.85D-04 BMatP= 2.26D-04
 IDIUse=3 WtCom= 1.38D-01 WtEn= 8.62D-01
 Coeff-Com: -0.137D+00 0.576D+00 0.560D+00
 Coeff-En:   0.000D+00 0.439D+00 0.561D+00
 Coeff:     -0.189D-01 0.458D+00 0.561D+00
 Gap=     0.382 Goal=   None    Shift=    0.000
 RMSDP=4.74D-04 MaxDP=4.51D-03 DE=-5.92D-05 OVMax= 7.48D-03

 Cycle   4  Pass 0  IDiag  1:
 E= -93.3032281671806     Delta-E=       -0.000246963520 Rises=F Damp=F
 DIIS: error= 1.03D-03 at cycle   4 NSaved=   4.
 NSaved= 4 IEnMin= 4 EnMin= -93.3032281671806     IErMin= 4 ErrMin= 1.03D-03
 ErrMax= 1.03D-03  0.00D+00 EMaxC= 1.00D-01 BMatC= 2.73D-05 BMatP= 2.26D-04
 IDIUse=3 WtCom= 9.90D-01 WtEn= 1.03D-02
 Coeff-Com:  0.382D-02-0.276D+00 0.121D+00 0.115D+01
 Coeff-En:   0.000D+00 0.000D+00 0.153D-01 0.985D+00
 Coeff:      0.378D-02-0.273D+00 0.120D+00 0.115D+01
 Gap=     0.382 Goal=   None    Shift=    0.000
 RMSDP=2.23D-04 MaxDP=1.70D-03 DE=-2.47D-04 OVMax= 4.59D-03

 Cycle   5  Pass 0  IDiag  1:
 E= -93.3032626599571     Delta-E=       -0.000034492777 Rises=F Damp=F
 DIIS: error= 7.82D-05 at cycle   5 NSaved=   5.
 NSaved= 5 IEnMin= 5 EnMin= -93.3032626599571     IErMin= 5 ErrMin= 7.82D-05
 ErrMax= 7.82D-05  0.00D+00 EMaxC= 1.00D-01 BMatC= 1.91D-07 BMatP= 2.73D-05
 IDIUse=1 WtCom= 1.00D+00 WtEn= 0.00D+00
 Coeff-Com:  0.118D-01-0.591D-01-0.494D-01 0.642D-01 0.103D+01
 Coeff:      0.118D-01-0.591D-01-0.494D-01 0.642D-01 0.103D+01
 Gap=     0.382 Goal=   None    Shift=    0.000
 RMSDP=3.40D-05 MaxDP=2.37D-04 DE=-3.45D-05 OVMax= 6.40D-04

 Cycle   6  Pass 0  IDiag  1:
 E= -93.3032631789028     Delta-E=       -0.000000518946 Rises=F Damp=F
 DIIS: error= 2.07D-05 at cycle   6 NSaved=   6.
 NSaved= 6 IEnMin= 6 EnMin= -93.3032631789028     IErMin= 6 ErrMin= 2.07D-05
 ErrMax= 2.07D-05  0.00D+00 EMaxC= 1.00D-01 BMatC= 1.04D-08 BMatP= 1.91D-07
 IDIUse=1 WtCom= 1.00D+00 WtEn= 0.00D+00
 Coeff-Com:  0.223D-02 0.132D-02-0.172D-01-0.415D-01 0.139D+00 0.916D+00
 Coeff:      0.223D-02 0.132D-02-0.172D-01-0.415D-01 0.139D+00 0.916D+00
 Gap=     0.382 Goal=   None    Shift=    0.000
 RMSDP=6.68D-06 MaxDP=5.68D-05 DE=-5.19D-07 OVMax= 1.06D-04

 Initial convergence to 1.0D-05 achieved.  Increase integral accuracy.
 Cycle   7  Pass 1  IDiag  1:
 E= -93.3032662624736     Delta-E=       -0.000003083571 Rises=F Damp=F
 DIIS: error= 1.10D-05 at cycle   1 NSaved=   1.
 NSaved= 1 IEnMin= 1 EnMin= -93.3032662624736     IErMin= 1 ErrMin= 1.10D-05
 ErrMax= 1.10D-05  0.00D+00 EMaxC= 1.00D-01 BMatC= 5.54D-09 BMatP= 5.54D-09
 IDIUse=1 WtCom= 1.00D+00 WtEn= 0.00D+00
 Coeff-Com:  0.100D+01
 Coeff:      0.100D+01
 Gap=     0.382 Goal=   None    Shift=    0.000
 RMSDP=6.68D-06 MaxDP=5.68D-05 DE=-3.08D-06 OVMax= 3.67D-05

 Cycle   8  Pass 1  IDiag  1:
 E= -93.3032662700452     Delta-E=       -0.000000007572 Rises=F Damp=F
 DIIS: error= 2.98D-06 at cycle   2 NSaved=   2.
 NSaved= 2 IEnMin= 2 EnMin= -93.3032662700452     IErMin= 2 ErrMin= 2.98D-06
 ErrMax= 2.98D-06  0.00D+00 EMaxC= 1.00D-01 BMatC= 1.98D-10 BMatP= 5.54D-09
 IDIUse=1 WtCom= 1.00D+00 WtEn= 0.00D+00
 Coeff-Com: -0.434D-01 0.104D+01
 Coeff:     -0.434D-01 0.104D+01
 Gap=     0.382 Goal=   None    Shift=    0.000
 RMSDP=7.74D-07 MaxDP=8.60D-06 DE=-7.57D-09 OVMax= 8.97D-06

 Cycle   9  Pass 1  IDiag  1:
 E= -93.3032662703724     Delta-E=       -0.000000000327 Rises=F Damp=F
 DIIS: error= 9.37D-07 at cycle   3 NSaved=   3.
 NSaved= 3 IEnMin= 3 EnMin= -93.3032662703724     IErMin= 3 ErrMin= 9.37D-07
 ErrMax= 9.37D-07  0.00D+00 EMaxC= 1.00D-01 BMatC= 3.74D-11 BMatP= 1.98D-10
 IDIUse=1 WtCom= 1.00D+00 WtEn= 0.00D+00
 Coeff-Com: -0.400D-01 0.270D+00 0.770D+00
 Coeff:     -0.400D-01 0.270D+00 0.770D+00
 Gap=     0.382 Goal=   None    Shift=    0.000
 RMSDP=2.64D-07 MaxDP=1.61D-06 DE=-3.27D-10 OVMax= 3.45D-06

 Cycle  10  Pass 1  IDiag  1:
 E= -93.3032662704252     Delta-E=       -0.000000000053 Rises=F Damp=F
 DIIS: error= 2.88D-07 at cycle   4 NSaved=   4.
 NSaved= 4 IEnMin= 4 EnMin= -93.3032662704252     IErMin= 4 ErrMin= 2.88D-07
 ErrMax= 2.88D-07  0.00D+00 EMaxC= 1.00D-01 BMatC= 3.84D-12 BMatP= 3.74D-11
 IDIUse=1 WtCom= 1.00D+00 WtEn= 0.00D+00
 Coeff-Com: -0.513D-02-0.174D-01 0.150D+00 0.873D+00
 Coeff:     -0.513D-02-0.174D-01 0.150D+00 0.873D+00
 Gap=     0.382 Goal=   None    Shift=    0.000
 RMSDP=1.11D-07 MaxDP=9.38D-07 DE=-5.27D-11 OVMax= 2.40D-06

 Cycle  11  Pass 1  IDiag  1:
 E= -93.3032662704301     Delta-E=       -0.000000000005 Rises=F Damp=F
 DIIS: error= 4.85D-07 at cycle   5 NSaved=   5.
 NSaved= 5 IEnMin= 5 EnMin= -93.3032662704301     IErMin= 4 ErrMin= 2.88D-07
 ErrMax= 4.85D-07  0.00D+00 EMaxC= 1.00D-01 BMatC= 3.60D-12 BMatP= 3.84D-12
 IDIUse=1 WtCom= 1.00D+00 WtEn= 0.00D+00
 Coeff-Com:  0.501D-02-0.611D-01-0.525D-01 0.573D+00 0.536D+00
 Coeff:      0.501D-02-0.611D-01-0.525D-01 0.573D+00 0.536D+00
 Gap=     0.382 Goal=   None    Shift=    0.000
 RMSDP=5.31D-08 MaxDP=5.20D-07 DE=-4.99D-12 OVMax= 9.59D-07

 Cycle  12  Pass 1  IDiag  1:
 E= -93.3032662704338     Delta-E=       -0.000000000004 Rises=F Damp=F
 DIIS: error= 4.93D-08 at cycle   6 NSaved=   6.
 NSaved= 6 IEnMin= 6 EnMin= -93.3032662704338     IErMin= 6 ErrMin= 4.93D-08
 ErrMax= 4.93D-08  0.00D+00 EMaxC= 1.00D-01 BMatC= 1.20D-13 BMatP= 3.60D-12
 IDIUse=1 WtCom= 1.00D+00 WtEn= 0.00D+00
 Coeff-Com:  0.139D-02-0.592D-02-0.456D-01-0.852D-01 0.106D+00 0.103D+01
 Coeff:      0.139D-02-0.592D-02-0.456D-01-0.852D-01 0.106D+00 0.103D+01
 Gap=     0.382 Goal=   None    Shift=    0.000
 RMSDP=2.71D-08 MaxDP=1.86D-07 DE=-3.67D-12 OVMax= 6.15D-07

 Cycle  13  Pass 1  IDiag  1:
 E= -93.3032662704343     Delta-E=       -0.000000000000 Rises=F Damp=F
 DIIS: error= 9.48D-09 at cycle   7 NSaved=   7.
 NSaved= 7 IEnMin= 7 EnMin= -93.3032662704343     IErMin= 7 ErrMin= 9.48D-09
 ErrMax= 9.48D-09  0.00D+00 EMaxC= 1.00D-01 BMatC= 2.93D-15 BMatP= 1.20D-13
 IDIUse=1 WtCom= 1.00D+00 WtEn= 0.00D+00
 Coeff-Com: -0.370D-03 0.452D-02 0.420D-02-0.327D-01-0.416D-01 0.975D-02
 Coeff-Com:  0.106D+01
 Coeff:     -0.370D-03 0.452D-02 0.420D-02-0.327D-01-0.416D-01 0.975D-02
 Coeff:      0.106D+01
 Gap=     0.382 Goal=   None    Shift=    0.000
 RMSDP=4.51D-09 MaxDP=5.29D-08 DE=-4.97D-13 OVMax= 7.39D-08

 SCF Done:  E(RM062X) =  -93.3032662704     A.U. after   13 cycles
            NFock= 13  Conv=0.45D-08     -V/T= 2.0059
 KE= 9.275835630948D+01 PE=-2.654843736828D+02 EE= 5.540323386048D+01
 Leave Link  502 at Wed Oct  7 13:29:41 2020, MaxMem=  2684354560 cpu:              17.0 elap:               2.0
 (Enter /udrive/faculty/rpeverati/g16/g16/l508.exe)
 QCSCF skips out because SCF is already converged.
 Leave Link  508 at Wed Oct  7 13:29:42 2020, MaxMem=  2684354560 cpu:               0.5 elap:               0.4
 (Enter /udrive/faculty/rpeverati/g16/g16/l701.exe)
 ... and contract with generalized density number  0.
 Compute integral first derivatives.
 Leave Link  701 at Wed Oct  7 13:29:43 2020, MaxMem=  2684354560 cpu:               4.4 elap:               0.8
 (Enter /udrive/faculty/rpeverati/g16/g16/l702.exe)
 L702 exits ... SP integral derivatives will be done elsewhere.
 Leave Link  702 at Wed Oct  7 13:29:44 2020, MaxMem=  2684354560 cpu:               1.4 elap:               0.6
 (Enter /udrive/faculty/rpeverati/g16/g16/l703.exe)
 Integral derivatives from FoFJK, PRISM(SPDF).
 Compute integral first derivatives, UseDBF=F ICtDFT=           0.
 Calling FoFJK, ICntrl=      2127 FMM=F ISym2X=1 I1Cent= 0 IOpClX= 0 NMat=1 NMatS=1 NMatT=0.
 FoFJK:  IHMeth= 1 ICntrl=    2127 DoSepK=F KAlg= 0 I1Cent=           0 FoldK=F
 IRaf=         0 NMat=       1 IRICut=       1 DoRegI=T DoRafI=F ISym2E= 1 IDoP0=0 IntGTp=1.
 FoFCou: FMM=F IPFlag=           0 FMFlag=      100000 FMFlg1=         800
         NFxFlg=           0 DoJE=F BraDBF=F KetDBF=F FulRan=T
         wScrn=  0.000000 ICntrl=      2127 IOpCl=  0 I1Cent=           0 NGrid=           0
         NMat0=    1 NMatS0=      1 NMatT0=    0 NMatD0=    1 NMtDS0=    0 NMtDT0=    0
 Petite list used in FoFCou.
 Leave Link  703 at Wed Oct  7 13:29:45 2020, MaxMem=  2684354560 cpu:               5.7 elap:               0.9
 (Enter /udrive/faculty/rpeverati/g16/g16/l716.exe)
 Dipole        =-5.40321391D-01 1.42049668D-01 0.00000000D+00
 ***** Axes restored to original set *****
 -------------------------------------------------------------------
 Center     Atomic                   Forces (Hartrees/Bohr)
 Number     Number              X              Y              Z
 -------------------------------------------------------------------
      1        6          -0.011377164   -0.003454659   -0.000000000
      2        7           0.004956190   -0.003258838   -0.000000000
      3        1           0.006420974    0.006713497   -0.000000000
 -------------------------------------------------------------------
 Cartesian Forces:  Max     0.011377164 RMS     0.005404302
 Leave Link  716 at Wed Oct  7 13:29:45 2020, MaxMem=  2684354560 cpu:               1.2 elap:               0.6
 (Enter /udrive/faculty/rpeverati/g16/g16/l103.exe)

 GradGradGradGradGradGradGradGradGradGradGradGradGradGradGradGradGradGrad
 Berny optimization.
 Optmz: redundant internal coordinate code flag= 1
 Red2BG:  D1=  4.99D-01 OD1=  5.56D-02 B2RMS=  0.00D+00 IAprox=0
 FormGI is forming the generalized inverse of G from B-inverse, IUseBI=4.
 Internal  Forces:  Max     0.010696182 RMS     0.007949191
 Search for a saddle point.
 Step number   3 out of a maximum of   50
 All quantities printed in internal units (Hartrees-Bohrs-Radians)
 Swapping is turned off.
 Update second derivatives using D2CorX and points    1    2    3
 The second derivative matrix:
                          R1        R2        A1
           R1           1.11573
           R2          -0.04179   0.28342
           A1           0.02738   0.12379  -0.17965
 ITU=  0  0  0
 Eigenvectors of the second derivative matrix:
                           1         2         3
     Eigenvalues --    -0.21168   0.31301   1.11817
   1         R1         0.02770   0.04203  -0.99873
   2         R2         0.24466   0.96844   0.04754
   3         A1        -0.96921   0.24567  -0.01654
 RLam0= 7.02D-04.
 Iter=   1 RLamda= 0.00000000D+00 Sum=-9.15359827D-05.
 Iter=   2 RLamda=-9.15359827D-05 Sum=-9.15123168D-05.
 Iter=   3 RLamda=-9.15123168D-05 Sum=-9.15123230D-05.
 RFO step:  Lambda0=7.019469649D-04 Lambda=-9.15123168D-05.
 Linear search not attempted -- option 19 set.
 Iteration  1 RMS(Cart)=  0.04591703 RMS(Int)=  0.00080622
 Iteration  2 RMS(Cart)=  0.00064571 RMS(Int)=  0.00000002
 Iteration  3 RMS(Cart)=  0.00000003 RMS(Int)=  0.00000000
 ITry= 1 IFail=0 DXMaxC= 4.94D-02 DCOld= 1.00D+10 DXMaxT= 1.00D-01 DXLimC= 3.00D+00 Rises=F
 ClnCor:  largest displacement from symmetrization is 1.37D-15 for atom     3.
 Variable       Old X    -DE/DX   Delta X   Delta X   Delta X     New X
                                 (Linear)    (Quad)   (Total)
    R1        2.23145   0.00351   0.00000   0.00456   0.00456   2.23600
    R2        2.22182  -0.00793   0.00000  -0.00128  -0.00128   2.22055
    A1        1.36172   0.01070   0.00000  -0.05951  -0.05951   1.30221
         Item               Value     Threshold  Converged?
 Maximum Force            0.010696     0.000450     NO 
 RMS     Force            0.007949     0.000300     NO 
 Maximum Displacement     0.049414     0.001800     NO 
 RMS     Displacement     0.046260     0.001200     NO 
 Predicted change in Energy= 3.063655D-04
 Lowest energy point so far.  Saving SCF results.
 Largest change from initial coordinates is atom    3       0.086 Angstoms.
 GradGradGradGradGradGradGradGradGradGradGradGradGradGradGradGradGradGrad

 Leave Link  103 at Wed Oct  7 13:29:46 2020, MaxMem=  2684354560 cpu:               1.6 elap:               0.5
 (Enter /udrive/faculty/rpeverati/g16/g16/l202.exe)
                          Input orientation:                          
 ---------------------------------------------------------------------
 Center     Atomic      Atomic             Coordinates (Angstroms)
 Number     Number       Type             X           Y           Z
 ---------------------------------------------------------------------
      1          6           0        0.071446    0.609434    0.000000
      2          7           0        0.098973   -0.573488    0.000000
      3          1           0       -1.053927    0.271341    0.000000
 ---------------------------------------------------------------------
                    Distance matrix (angstroms):
                    1          2          3
     1  C    0.000000
     2  N    1.183242   0.000000
     3  H    1.175062   1.429306   0.000000
 Stoichiometry    CHN
 Framework group  CS[SG(CHN)]
 Deg. of freedom     3
 Full point group                 CS      NOp   2
 RotChk:  IX=0 Diff= 4.08D-02
 Largest Abelian subgroup         CS      NOp   2
 Largest concise Abelian subgroup C1      NOp   1
                         Standard orientation:                         
 ---------------------------------------------------------------------
 Center     Atomic      Atomic             Coordinates (Angstroms)
 Number     Number       Type             X           Y           Z
 ---------------------------------------------------------------------
      1          6           0        0.080924    0.613894    0.000000
      2          7           0        0.080924   -0.569348    0.000000
      3          1           0       -1.052010    0.302074    0.000000
 ---------------------------------------------------------------------
 Rotational constants (GHZ):         411.1551398          55.1342828          48.6151790
 Leave Link  202 at Wed Oct  7 13:29:47 2020, MaxMem=  2684354560 cpu:               1.1 elap:               0.5
 (Enter /udrive/faculty/rpeverati/g16/g16/l301.exe)
 Standard basis: 6-31G(d) (5D, 7F)
 Ernie: Thresh=  0.10000D-02 Tol=  0.10000D-05 Strict=F.
 There are    24 symmetry adapted cartesian basis functions of A'  symmetry.
 There are     8 symmetry adapted cartesian basis functions of A"  symmetry.
 There are    22 symmetry adapted basis functions of A'  symmetry.
 There are     8 symmetry adapted basis functions of A"  symmetry.
    30 basis functions,    60 primitive gaussians,    32 cartesian basis functions
     7 alpha electrons        7 beta electrons
       nuclear repulsion energy        24.0771924916 Hartrees.
 IExCor= 4336 DFT=T Ex+Corr=M062X ExCW=0 ScaHFX=  0.540000
 ScaDFX=  1.000000  1.000000  1.000000  1.000000 ScalE2=  1.000000  1.000000
 IRadAn=      5 IRanWt=     -1 IRanGd=            0 ICorTp=0 IEmpDi=  4
 NAtoms=    3 NActive=    3 NUniq=    3 SFac= 1.00D+00 NAtFMM=   60 NAOKFM=F Big=F
 Integral buffers will be    131072 words long.
 Raffenetti 2 integral format.
 Two-electron integral symmetry is turned on.
 Leave Link  301 at Wed Oct  7 13:29:48 2020, MaxMem=  2684354560 cpu:               1.8 elap:               0.5
 (Enter /udrive/faculty/rpeverati/g16/g16/l302.exe)
 NPDir=0 NMtPBC=     1 NCelOv=     1 NCel=       1 NClECP=     1 NCelD=      1
         NCelK=      1 NCelE2=     1 NClLst=     1 CellRange=     0.0.
 One-electron integrals computed using PRISM.
 One-electron integral symmetry used in STVInt
 NBasis=    30 RedAO= T EigKep=  7.68D-03  NBF=    22     8
 NBsUse=    30 1.00D-06 EigRej= -1.00D+00 NBFU=    22     8
 Precomputing XC quadrature grid using
 IXCGrd= 4 IRadAn=           5 IRanWt=          -1 IRanGd=           0 AccXCQ= 0.00D+00.
 Generated NRdTot=       0 NPtTot=           0 NUsed=           0 NTot=          32
 NSgBfM=    32    32    32    32    32 MxSgAt=     3 MxSgA2=     3.
 Leave Link  302 at Wed Oct  7 13:29:48 2020, MaxMem=  2684354560 cpu:               3.5 elap:               0.6
 (Enter /udrive/faculty/rpeverati/g16/g16/l303.exe)
 DipDrv:  MaxL=1.
 Leave Link  303 at Wed Oct  7 13:29:49 2020, MaxMem=  2684354560 cpu:               1.2 elap:               0.5
 (Enter /udrive/faculty/rpeverati/g16/g16/l401.exe)
 Initial guess from the checkpoint file:  "MN_49_hcnts_BH76_M062X_631Gs.chk"
 SCF N**3 symmetry information disabled.
 B after Tr=     0.000000   -0.000000    0.000000
         Rot=    0.999985    0.000000    0.000000   -0.005542 Ang=  -0.64 deg.
 Guess basis will be translated and rotated to current coordinates.
 JPrj=2 DoOrth=T DoCkMO=T.
 Initial guess orbital symmetries:
       Occupied  (A') (A') (A') (A') (A') (A") (A')
       Virtual   (A') (A") (A') (A') (A") (A') (A') (A') (A') (A")
                 (A') (A') (A') (A") (A') (A") (A') (A") (A') (A')
                 (A') (A") (A')
 The electronic state of the initial guess is 1-A'.
 Generating alternative initial guess.
 ExpMin= 1.61D-01 ExpMax= 4.17D+03 ExpMxC= 6.27D+02 IAcc=2 IRadAn=         4 AccDes= 0.00D+00
 Harris functional with IExCor= 1009 and IRadAn=       4 diagonalized for initial guess.
 HarFok:  IExCor= 1009 AccDes= 0.00D+00 IRadAn=         4 IDoV= 1 UseB2=F ITyADJ=14
 ICtDFT=  3500011 ScaDFX=  1.000000  1.000000  1.000000  1.000000
 FoFCou: FMM=F IPFlag=           0 FMFlag=      100000 FMFlg1=           0
         NFxFlg=           0 DoJE=T BraDBF=F KetDBF=T FulRan=T
         wScrn=  0.000000 ICntrl=       500 IOpCl=  0 I1Cent=   200000004 NGrid=           0
         NMat0=    1 NMatS0=      1 NMatT0=    0 NMatD0=    1 NMtDS0=    0 NMtDT0=    0
 Petite list used in FoFCou.
 Harris En= -93.2371933698680    
 Leave Link  401 at Wed Oct  7 13:29:50 2020, MaxMem=  2684354560 cpu:               6.4 elap:               0.9
 (Enter /udrive/faculty/rpeverati/g16/g16/l502.exe)
 Keep R1 ints in memory in symmetry-blocked form, NReq=10468376.
 FoFCou: FMM=F IPFlag=           0 FMFlag=           0 FMFlg1=           0
         NFxFlg=           0 DoJE=F BraDBF=F KetDBF=F FulRan=T
         wScrn=  0.000000 ICntrl=       600 IOpCl=  0 I1Cent=           0 NGrid=           0
         NMat0=    1 NMatS0=    465 NMatT0=    0 NMatD0=    1 NMtDS0=    0 NMtDT0=    0
 Petite list used in FoFCou.
 Closed shell SCF:
 Using DIIS extrapolation, IDIIS=  1040.
 NGot=  2684354560 LenX=  2684292770 LenY=  2684291305
 Requested convergence on RMS density matrix=1.00D-08 within 120 cycles.
 Requested convergence on MAX density matrix=1.00D-06.
 Requested convergence on             energy=1.00D-06.
 No special actions if energy rises.
 Integral accuracy reduced to 1.0D-05 until final iterations.

 Cycle   1  Pass 0  IDiag  1:
 E= -93.3022219899314    
 DIIS: error= 2.50D-03 at cycle   1 NSaved=   1.
 NSaved= 1 IEnMin= 1 EnMin= -93.3022219899314     IErMin= 1 ErrMin= 2.50D-03
 ErrMax= 2.50D-03  0.00D+00 EMaxC= 1.00D-01 BMatC= 3.11D-04 BMatP= 3.11D-04
 IDIUse=3 WtCom= 9.75D-01 WtEn= 2.50D-02
 Coeff-Com:  0.100D+01
 Coeff-En:   0.100D+01
 Coeff:      0.100D+01
 Gap=     0.388 Goal=   None    Shift=    0.000
 GapD=    0.388 DampG=1.000 DampE=1.000 DampFc=1.0000 IDamp=-1.
 RMSDP=1.27D-03 MaxDP=1.70D-02              OVMax= 1.31D-02

 Cycle   2  Pass 0  IDiag  1:
 E= -93.3028589257746     Delta-E=       -0.000636935843 Rises=F Damp=F
 DIIS: error= 1.51D-03 at cycle   2 NSaved=   2.
 NSaved= 2 IEnMin= 2 EnMin= -93.3028589257746     IErMin= 2 ErrMin= 1.51D-03
 ErrMax= 1.51D-03  0.00D+00 EMaxC= 1.00D-01 BMatC= 7.32D-05 BMatP= 3.11D-04
 IDIUse=3 WtCom= 9.85D-01 WtEn= 1.51D-02
 Coeff-Com:  0.166D+00 0.834D+00
 Coeff-En:   0.000D+00 0.100D+01
 Coeff:      0.163D+00 0.837D+00
 Gap=     0.390 Goal=   None    Shift=    0.000
 RMSDP=4.76D-04 MaxDP=3.30D-03 DE=-6.37D-04 OVMax= 8.34D-03

 Cycle   3  Pass 0  IDiag  1:
 E= -93.3028774056911     Delta-E=       -0.000018479917 Rises=F Damp=F
 DIIS: error= 2.33D-03 at cycle   3 NSaved=   3.
 NSaved= 3 IEnMin= 3 EnMin= -93.3028774056911     IErMin= 2 ErrMin= 1.51D-03
 ErrMax= 2.33D-03  0.00D+00 EMaxC= 1.00D-01 BMatC= 1.02D-04 BMatP= 7.32D-05
 IDIUse=3 WtCom= 1.71D-01 WtEn= 8.29D-01
 Coeff-Com: -0.138D+00 0.596D+00 0.542D+00
 Coeff-En:   0.000D+00 0.442D+00 0.558D+00
 Coeff:     -0.237D-01 0.469D+00 0.555D+00
 Gap=     0.388 Goal=   None    Shift=    0.000
 RMSDP=2.89D-04 MaxDP=2.75D-03 DE=-1.85D-05 OVMax= 4.59D-03

 Cycle   4  Pass 0  IDiag  1:
 E= -93.3029649684445     Delta-E=       -0.000087562753 Rises=F Damp=F
 DIIS: error= 6.44D-04 at cycle   4 NSaved=   4.
 NSaved= 4 IEnMin= 4 EnMin= -93.3029649684445     IErMin= 4 ErrMin= 6.44D-04
 ErrMax= 6.44D-04  0.00D+00 EMaxC= 1.00D-01 BMatC= 1.08D-05 BMatP= 7.32D-05
 IDIUse=3 WtCom= 9.94D-01 WtEn= 6.44D-03
 Coeff-Com: -0.586D-02-0.232D+00 0.166D+00 0.107D+01
 Coeff-En:   0.000D+00 0.000D+00 0.290D-01 0.971D+00
 Coeff:     -0.582D-02-0.230D+00 0.165D+00 0.107D+01
 Gap=     0.388 Goal=   None    Shift=    0.000
 RMSDP=1.36D-04 MaxDP=1.02D-03 DE=-8.76D-05 OVMax= 2.68D-03

 Cycle   5  Pass 0  IDiag  1:
 E= -93.3029781001816     Delta-E=       -0.000013131737 Rises=F Damp=F
 DIIS: error= 4.99D-05 at cycle   5 NSaved=   5.
 NSaved= 5 IEnMin= 5 EnMin= -93.3029781001816     IErMin= 5 ErrMin= 4.99D-05
 ErrMax= 4.99D-05  0.00D+00 EMaxC= 1.00D-01 BMatC= 1.04D-07 BMatP= 1.08D-05
 IDIUse=1 WtCom= 1.00D+00 WtEn= 0.00D+00
 Coeff-Com:  0.151D-01-0.112D+00-0.268D-01 0.235D+00 0.889D+00
 Coeff:      0.151D-01-0.112D+00-0.268D-01 0.235D+00 0.889D+00
 Gap=     0.388 Goal=   None    Shift=    0.000
 RMSDP=2.27D-05 MaxDP=1.53D-04 DE=-1.31D-05 OVMax= 4.36D-04

 Cycle   6  Pass 0  IDiag  1:
 E= -93.3029783486498     Delta-E=       -0.000000248468 Rises=F Damp=F
 DIIS: error= 1.49D-05 at cycle   6 NSaved=   6.
 NSaved= 6 IEnMin= 6 EnMin= -93.3029783486498     IErMin= 6 ErrMin= 1.49D-05
 ErrMax= 1.49D-05  0.00D+00 EMaxC= 1.00D-01 BMatC= 5.55D-09 BMatP= 1.04D-07
 IDIUse=1 WtCom= 1.00D+00 WtEn= 0.00D+00
 Coeff-Com:  0.284D-02-0.420D-02-0.181D-01-0.293D-01 0.647D-01 0.984D+00
 Coeff:      0.284D-02-0.420D-02-0.181D-01-0.293D-01 0.647D-01 0.984D+00
 Gap=     0.388 Goal=   None    Shift=    0.000
 RMSDP=5.56D-06 MaxDP=4.24D-05 DE=-2.48D-07 OVMax= 9.72D-05

 Initial convergence to 1.0D-05 achieved.  Increase integral accuracy.
 Cycle   7  Pass 1  IDiag  1:
 E= -93.3029750213756     Delta-E=        0.000003327274 Rises=F Damp=F
 DIIS: error= 1.06D-05 at cycle   1 NSaved=   1.
 NSaved= 1 IEnMin= 1 EnMin= -93.3029750213756     IErMin= 1 ErrMin= 1.06D-05
 ErrMax= 1.06D-05  0.00D+00 EMaxC= 1.00D-01 BMatC= 4.82D-09 BMatP= 4.82D-09
 IDIUse=1 WtCom= 1.00D+00 WtEn= 0.00D+00
 Coeff-Com:  0.100D+01
 Coeff:      0.100D+01
 Gap=     0.388 Goal=   None    Shift=    0.000
 RMSDP=5.56D-06 MaxDP=4.24D-05 DE= 3.33D-06 OVMax= 2.95D-05

 Cycle   8  Pass 1  IDiag  1:
 E= -93.3029750275453     Delta-E=       -0.000000006170 Rises=F Damp=F
 DIIS: error= 2.27D-06 at cycle   2 NSaved=   2.
 NSaved= 2 IEnMin= 2 EnMin= -93.3029750275453     IErMin= 2 ErrMin= 2.27D-06
 ErrMax= 2.27D-06  0.00D+00 EMaxC= 1.00D-01 BMatC= 1.83D-10 BMatP= 4.82D-09
 IDIUse=1 WtCom= 1.00D+00 WtEn= 0.00D+00
 Coeff-Com: -0.224D-01 0.102D+01
 Coeff:     -0.224D-01 0.102D+01
 Gap=     0.388 Goal=   None    Shift=    0.000
 RMSDP=8.91D-07 MaxDP=6.49D-06 DE=-6.17D-09 OVMax= 1.05D-05

 Cycle   9  Pass 1  IDiag  1:
 E= -93.3029750277988     Delta-E=       -0.000000000254 Rises=F Damp=F
 DIIS: error= 1.39D-06 at cycle   3 NSaved=   3.
 NSaved= 3 IEnMin= 3 EnMin= -93.3029750277988     IErMin= 3 ErrMin= 1.39D-06
 ErrMax= 1.39D-06  0.00D+00 EMaxC= 1.00D-01 BMatC= 5.49D-11 BMatP= 1.83D-10
 IDIUse=1 WtCom= 1.00D+00 WtEn= 0.00D+00
 Coeff-Com: -0.504D-01 0.338D+00 0.713D+00
 Coeff:     -0.504D-01 0.338D+00 0.713D+00
 Gap=     0.388 Goal=   None    Shift=    0.000
 RMSDP=2.74D-07 MaxDP=3.17D-06 DE=-2.54D-10 OVMax= 2.83D-06

 Cycle  10  Pass 1  IDiag  1:
 E= -93.3029750278575     Delta-E=       -0.000000000059 Rises=F Damp=F
 DIIS: error= 3.49D-07 at cycle   4 NSaved=   4.
 NSaved= 4 IEnMin= 4 EnMin= -93.3029750278575     IErMin= 4 ErrMin= 3.49D-07
 ErrMax= 3.49D-07  0.00D+00 EMaxC= 1.00D-01 BMatC= 4.39D-12 BMatP= 5.49D-11
 IDIUse=1 WtCom= 1.00D+00 WtEn= 0.00D+00
 Coeff-Com: -0.148D-01 0.754D-01 0.235D+00 0.704D+00
 Coeff:     -0.148D-01 0.754D-01 0.235D+00 0.704D+00
 Gap=     0.388 Goal=   None    Shift=    0.000
 RMSDP=8.98D-08 MaxDP=7.11D-07 DE=-5.87D-11 OVMax= 1.39D-06

 Cycle  11  Pass 1  IDiag  1:
 E= -93.3029750278601     Delta-E=       -0.000000000003 Rises=F Damp=F
 DIIS: error= 4.38D-07 at cycle   5 NSaved=   5.
 NSaved= 5 IEnMin= 5 EnMin= -93.3029750278601     IErMin= 4 ErrMin= 3.49D-07
 ErrMax= 4.38D-07  0.00D+00 EMaxC= 1.00D-01 BMatC= 3.08D-12 BMatP= 4.39D-12
 IDIUse=1 WtCom= 1.00D+00 WtEn= 0.00D+00
 Coeff-Com:  0.532D-02-0.554D-01-0.743D-01 0.491D+00 0.633D+00
 Coeff:      0.532D-02-0.554D-01-0.743D-01 0.491D+00 0.633D+00
[...]
   XY=             -0.4048   XZ=              0.0000   YZ=              0.0000
 Octapole moment (field-independent basis, Debye-Ang**2):
  XXX=             -2.3239  YYY=             -2.4787  ZZZ=              0.0000  XYY=             -0.2398
  XXY=             -0.3087  XXZ=              0.0000  XZZ=             -0.2359  YZZ=             -0.4863
  YYZ=              0.0000  XYZ=              0.0000
 Hexadecapole moment (field-independent basis, Debye-Ang**3):
 XXXX=            -12.0093 YYYY=            -40.5496 ZZZZ=            -10.9206 XXXY=             -0.0993
 XXXZ=              0.0000 YYYX=              0.5399 YYYZ=              0.0000 ZZZX=              0.0000
 ZZZY=              0.0000 XXYY=             -8.4904 XXZZ=             -4.2228 YYZZ=             -8.0959
 XXYZ=              0.0000 YYXZ=              0.0000 ZZXY=              0.1747
 N-N= 2.408054963921D+01 E-N=-2.655864621530D+02  KE= 9.277305273951D+01
  Exact polarizability:  12.782   0.191  17.703  -0.000   0.000   8.429
 Approx polarizability:  15.730   0.805  28.046   0.000   0.000   9.902
 No NMR shielding tensors so no spin-rotation constants.
 Leave Link  601 at Wed Oct  7 13:30:26 2020, MaxMem=  2684354560 cpu:               4.0 elap:               0.8
 (Enter /udrive/faculty/rpeverati/g16/g16/l701.exe)
 ... and contract with generalized density number  0.
 Compute integral second derivatives.
 Leave Link  701 at Wed Oct  7 13:30:27 2020, MaxMem=  2684354560 cpu:               4.5 elap:               0.8
 (Enter /udrive/faculty/rpeverati/g16/g16/l702.exe)
 L702 exits ... SP integral derivatives will be done elsewhere.
 Leave Link  702 at Wed Oct  7 13:30:28 2020, MaxMem=  2684354560 cpu:               1.2 elap:               0.5
 (Enter /udrive/faculty/rpeverati/g16/g16/l703.exe)
 Integral derivatives from FoFJK, PRISM(SPDF).
 Compute integral second derivatives, UseDBF=F ICtDFT=           0.
 Calling FoFJK, ICntrl=    100127 FMM=F ISym2X=1 I1Cent= 0 IOpClX= 0 NMat=1 NMatS=1 NMatT=0.
 FoFJK:  IHMeth= 1 ICntrl=  100127 DoSepK=F KAlg= 0 I1Cent=           0 FoldK=F
 IRaf=         0 NMat=       1 IRICut=       1 DoRegI=T DoRafI=F ISym2E= 1 IDoP0=0 IntGTp=1.
 FoFCou: FMM=F IPFlag=           0 FMFlag=      100000 FMFlg1=         800
         NFxFlg=           0 DoJE=F BraDBF=F KetDBF=F FulRan=T
         wScrn=  0.000000 ICntrl=    100127 IOpCl=  0 I1Cent=           0 NGrid=           0
         NMat0=    1 NMatS0=      1 NMatT0=    0 NMatD0=    1 NMtDS0=    0 NMtDT0=    0
 Petite list used in FoFCou.
 Leave Link  703 at Wed Oct  7 13:30:29 2020, MaxMem=  2684354560 cpu:              15.1 elap:               1.6
 (Enter /udrive/faculty/rpeverati/g16/g16/l716.exe)
 Dipole        =-5.26215300D-01 9.72203695D-02 0.00000000D+00
 Polarizability= 1.27821975D+01 1.91146758D-01 1.77030318D+01
                -1.04712691D-12 3.22620684D-12 8.42912064D+00
 Full mass-weighted force constant matrix:
 Low frequencies ----1202.4811  -68.9569  -39.8473  -28.1218   -0.0012   -0.0009
 Low frequencies ---   -0.0007 2136.7665 2711.2533
 ******    1 imaginary frequencies (negative Signs) ****** 
 Diagonal vibrational polarizability:
        0.5394297       1.7378441       0.0000000
 Harmonic frequencies (cm**-1), IR intensities (KM/Mole), Raman scattering
 activities (A**4/AMU), depolarization ratios for plane and unpolarized
 incident light, reduced masses (AMU), force constants (mDyne/A),
 and normal coordinates:
                      1                      2                      3
                     A'                     A'                     A'
 Frequencies --  -1202.4796              2136.7665              2711.2532
 Red. masses --      1.1690                12.1152                 1.0612
 Frc consts  --      0.9959                32.5908                 4.5960
 IR Inten    --     93.6088                 6.4702               135.7441
  Atom  AN      X      Y      Z        X      Y      Z        X      Y      Z
     1   6    -0.07  -0.06  -0.00    -0.02   0.73   0.00    -0.07  -0.00  -0.00
     2   7     0.07  -0.02  -0.00     0.02  -0.64   0.00    -0.01  -0.00  -0.00
     3   1    -0.13   0.98   0.00    -0.03   0.25   0.00     0.99   0.08   0.00

 -------------------
 - Thermochemistry -
 -------------------
 Temperature   298.150 Kelvin.  Pressure   1.00000 Atm.
 Atom     1 has atomic number  6 and mass  12.00000
 Atom     2 has atomic number  7 and mass  14.00307
 Atom     3 has atomic number  1 and mass   1.00783
 Molecular mass:    27.01090 amu.
 Principal axes and moments of inertia in atomic units:
                           1         2         3
     Eigenvalues --     4.37774  32.74073  37.11846
           X           -0.04508   0.99898   0.00000
           Y            0.99898   0.04508   0.00000
           Z            0.00000   0.00000   1.00000
 This molecule is an asymmetric top.
 Rotational symmetry number  1.
 Rotational temperatures (Kelvin)     19.78510     2.64545     2.33345
 Rotational constants (GHZ):         412.25455    55.12221    48.62112
    1 imaginary frequencies ignored.
 Zero-point vibrational energy      28997.6 (Joules/Mol)
                                    6.93059 (Kcal/Mol)
 Vibrational temperatures:   3074.33  3900.89
          (Kelvin)
 
 Zero-point correction=                           0.011045 (Hartree/Particle)
 Thermal correction to Energy=                    0.013878
 Thermal correction to Enthalpy=                  0.014822
 Thermal correction to Gibbs Free Energy=        -0.009954
 Sum of electronic and zero-point Energies=            -93.291932
 Sum of electronic and thermal Energies=               -93.289099
 Sum of electronic and thermal Enthalpies=             -93.288155
 Sum of electronic and thermal Free Energies=          -93.312930
 
                     E (Thermal)             CV                S
                      KCal/Mol        Cal/Mol-Kelvin    Cal/Mol-Kelvin
 Total                    8.708              5.969             52.144
 Electronic               0.000              0.000              0.000
 Translational            0.889              2.981             35.816
 Rotational               0.889              2.981             16.327
 Vibrational              6.931              0.008              0.001
                       Q            Log10(Q)             Ln(Q)
 Total Bot       0.378815D+05          4.578428         10.542219
 Total V=0       0.455604D+10          9.658587         22.239719
 Vib (Bot)       0.831488D-05         -5.080144        -11.697464
 Vib (V=0)       0.100004D+01          0.000015          0.000035
 Electronic      0.100000D+01          0.000000          0.000000
 Translational   0.551776D+07          6.741762         15.523482
 Rotational      0.825676D+03          2.916809          6.716202
 
                                                          TS search on BH76.
                                                             IR Spectrum
 
     2                          2                                                                                                    
     7                          1                                                                                                    
     1                          3                                                                                                    
     1                          7                                                                                                    
 
     X                          X                                                                                                    
     X                                                                                                                               
     X                                                                                                                               
     X                                                                                                                               
     X                                                                                                                               
     X                                                                                                                               
     X                                                                                                                               
     X                                                                                                                               
     X                                                                                                                               
     X                                                                                                                               
     X                                                                                                                               
     X                                                                                                                               
     X                                                                                                                               
     X                                                                                                                               
     X                                                                                                                               
     X                                                                                                                               
     X                                                                                                                               
     X                                                                                                                               
     X                                                                                                                               
     X                                                                                                                               
 
 ***** Axes restored to original set *****
 -------------------------------------------------------------------
 Center     Atomic                   Forces (Hartrees/Bohr)
 Number     Number              X              Y              Z
 -------------------------------------------------------------------
      1        6          -0.000030768    0.000033892   -0.000000000
      2        7           0.000022076   -0.000039925   -0.000000000
      3        1           0.000008692    0.000006033   -0.000000000
 -------------------------------------------------------------------
 Cartesian Forces:  Max     0.000039925 RMS     0.000021829
 Force constants in Cartesian coordinates: 
                1             2             3             4             5 
      1  0.143377D+00
      2 -0.672325D-01  0.105674D+01
      3  0.000000D+00  0.000000D+00 -0.297868D-03
      4  0.757174D-01  0.922418D-01  0.000000D+00 -0.337543D-01
      5  0.525511D-01 -0.111868D+01  0.000000D+00 -0.431556D-01  0.113855D+01
      6  0.000000D+00  0.000000D+00  0.166064D-03  0.000000D+00  0.000000D+00
      7 -0.219094D+00 -0.250093D-01  0.000000D+00 -0.419631D-01 -0.939550D-02
      8  0.146814D-01  0.619412D-01  0.000000D+00 -0.490863D-01 -0.198659D-01
      9  0.000000D+00  0.000000D+00  0.131804D-03  0.000000D+00  0.000000D+00
                6             7             8             9 
      6 -0.205940D-03
      7  0.000000D+00  0.261057D+00
      8  0.000000D+00  0.344048D-01 -0.420753D-01
      9  0.398760D-04  0.000000D+00  0.000000D+00 -0.171680D-03
 FormGI is forming the generalized inverse of G from B-inverse, IUseBI=4.
 Force constants in internal coordinates: 
                1             2             3 
      1  0.113991D+01
      2 -0.133538D-01  0.254743D+00
      3  0.344310D-01  0.121961D+00 -0.175559D+00
 Leave Link  716 at Wed Oct  7 13:30:30 2020, MaxMem=  2684354560 cpu:               1.4 elap:               0.4
 (Enter /udrive/faculty/rpeverati/g16/g16/l103.exe)

 GradGradGradGradGradGradGradGradGradGradGradGradGradGradGradGradGradGrad
 Berny optimization.
 Optmz: redundant internal coordinate code flag= 1
 Red2BG:  D1=  4.89D-01 OD1=  3.61D-16 B2RMS=  0.00D+00 IAprox=1
 Red2BG is reusing G-inverse.
 Internal  Forces:  Max     0.000045405 RMS     0.000031732
 Search for a local minimum.
 Step number   1 out of a maximum of    2
 All quantities printed in internal units (Hartrees-Bohrs-Radians)
 Second derivative matrix not updated -- analytic derivatives used.
 The second derivative matrix:
                          R1        R2        A1
           R1           1.13991
           R2          -0.01335   0.25474
           A1           0.03443   0.12196  -0.17556
 ITU=  0
 Eigenvectors of the second derivative matrix:
                           1         2         3
     Eigenvalues --    -0.20872   0.28689   1.14093
   1         R1         0.02720   0.00483  -0.99962
   2         R2         0.25513   0.96684   0.01161
   3         A1        -0.96653   0.25534  -0.02507
 Eigenvalue     1 is  -2.09D-01 should be greater than     0.000000 Eigenvector:
                          A1        R2        R1
   1                   -0.96653   0.25513   0.02720
 Angle between quadratic step and forces=  41.26 degrees.
 Linear search not attempted -- first point.
 Iteration  1 RMS(Cart)=  0.00010201 RMS(Int)=  0.00000000
 Iteration  2 RMS(Cart)=  0.00000000 RMS(Int)=  0.00000000
 ITry= 1 IFail=0 DXMaxC= 1.05D-04 DCOld= 1.00D+10 DXMaxT= 3.00D-01 DXLimC= 3.00D+00 Rises=F
 ClnCor:  largest displacement from symmetrization is 1.13D-15 for atom     3.
 Variable       Old X    -DE/DX   Delta X   Delta X   Delta X     New X
                                 (Linear)    (Quad)   (Total)
    R1        2.23622   0.00005   0.00000   0.00004   0.00004   2.23625
    R2        2.21762  -0.00002   0.00000  -0.00006  -0.00006   2.21756
    A1        1.30220   0.00003   0.00000   0.00013   0.00013   1.30233
         Item               Value     Threshold  Converged?
 Maximum Force            0.000045     0.000450     YES
 RMS     Force            0.000032     0.000300     YES
 Maximum Displacement     0.000105     0.001800     YES
 RMS     Displacement     0.000102     0.001200     YES
 Predicted change in Energy=-6.978468D-09
 Optimization completed.
    -- Stationary point found.
                           ----------------------------
                           !   Optimized Parameters   !
                           ! (Angstroms and Degrees)  !
 --------------------------                            --------------------------
 ! Name  Definition              Value          Derivative Info.                !
 --------------------------------------------------------------------------------
 ! R1    R(1,2)                  1.1834         -DE/DX =    0.0                 !
 ! R2    R(1,3)                  1.1735         -DE/DX =    0.0                 !
 ! A1    A(2,1,3)               74.6107         -DE/DX =    0.0                 !
 --------------------------------------------------------------------------------
 GradGradGradGradGradGradGradGradGradGradGradGradGradGradGradGradGradGrad

 Leave Link  103 at Wed Oct  7 13:30:31 2020, MaxMem=  2684354560 cpu:               1.4 elap:               0.4
 (Enter /udrive/faculty/rpeverati/g16/g16/l9999.exe)

 ----------------------------------------------------------------------

 Electric dipole moment (input orientation):
 (Debye = 10**-18 statcoulomb cm , SI units = C m)
                  (au)            (Debye)         (10**-30 SI)
   Tot        0.535121D+00      0.136014D+01      0.453694D+01
   x         -0.528368D+00     -0.134298D+01     -0.447969D+01
   y          0.847472D-01      0.215406D+00      0.718517D+00
   z          0.000000D+00      0.000000D+00      0.000000D+00

 Dipole polarizability, Alpha (input orientation).
 (esu units = cm**3 , SI units = C**2 m**2 J**-1)
 Alpha(0;0):
               (au)            (10**-24 esu)      (10**-40 SI)
   iso        0.129714D+02      0.192217D+01      0.213870D+01
   aniso      0.804327D+01      0.119189D+01      0.132616D+01
   xx         0.127759D+02      0.189319D+01      0.210646D+01
   yx         0.745787D-01      0.110514D-01      0.122964D-01
   yy         0.177093D+02      0.262425D+01      0.291987D+01
   zx         0.000000D+00      0.000000D+00      0.000000D+00
   zy         0.000000D+00      0.000000D+00      0.000000D+00
   zz         0.842912D+01      0.124907D+01      0.138977D+01

 ----------------------------------------------------------------------

 Dipole orientation:
     6          0.18345113          1.14374996          0.05038273
     7         -0.16480509         -1.02749882         -0.35589138
     1          0.03028206          0.18879744          2.04598996

 Electric dipole moment (dipole orientation):
 (Debye = 10**-18 statcoulomb cm , SI units = C m)
                  (au)            (Debye)         (10**-30 SI)
   Tot        0.535121D+00      0.136014D+01      0.453694D+01
   x          0.000000D+00      0.000000D+00      0.000000D+00
   y          0.000000D+00      0.000000D+00      0.000000D+00
   z          0.535121D+00      0.136014D+01      0.453694D+01

 Dipole polarizability, Alpha (dipole orientation).
 (esu units = cm**3 , SI units = C**2 m**2 J**-1)
 Alpha(0;0):
               (au)            (10**-24 esu)      (10**-40 SI)
   iso        0.129714D+02      0.192217D+01      0.213870D+01
   aniso      0.804327D+01      0.119189D+01      0.132616D+01
   xx         0.865936D+01      0.128318D+01      0.142774D+01
   yx         0.143546D+01      0.212713D+00      0.236675D+00
   yy         0.173787D+02      0.257525D+01      0.286536D+01
   zx         0.110955D+00      0.164419D-01      0.182941D-01
   zy         0.691765D+00      0.102509D+00      0.114057D+00
   zz         0.128763D+02      0.190807D+01      0.212302D+01

 ----------------------------------------------------------------------

 Test job not archived.
 1\1\GINC-NODE27\Freq\RM062X\6-31G(d)\C1H1N1\RPEVERATI\07-Oct-2020\0\\#
 P Freq M062X/6-31G* 5D 7F Integral=UltraFineGrid SCF=(NoSymm,XQC,MaxCy
 c=120) IOp(1/33=1) Geom=Check Guess=Read\\TS search on BH76.\\0,1\C,0.
 0707532356,0.6094687856,0.\N,0.0987417486,-0.5735547646,0.\H,-1.053002
 9053,0.2713733643,0.\\Version=ES64L-G16RevA.03\State=1-A'\HF=-93.30297
 62\RMSD=3.507e-09\RMSF=2.183e-05\ZeroPoint=0.0110446\Thermal=0.0138775
 \Dipole=-0.5283675,0.0847472,0.\DipoleDeriv=-0.2288965,0.0217036,0.,0.
 2064019,-0.1545213,0.,0.,0.,-0.1377837,-0.1332576,0.0863758,0.,-0.2097
 571,-0.1489865,0.,0.,0.,-0.1082246,0.3621541,-0.1080794,0.,0.0033553,0
 .3035078,0.,0.,0.,0.2460083\Polar=12.7759108,0.0745787,17.7093184,0.,0
 .,8.4291206\Quadrupole=1.7158792,-1.655293,-0.0605862,-0.2214576,0.,0.
 \PG=CS [SG(C1H1N1)]\NImag=1\\0.14337669,-0.06723252,1.05674234,0.,0.,-
 0.00029787,0.07571736,0.09224185,0.,-0.03375429,0.05255108,-1.11868351
 ,0.,-0.04315558,1.13854943,0.,0.,0.00016606,0.,0.,-0.00020594,-0.21909
 406,-0.02500933,0.,-0.04196308,-0.00939550,0.,0.26105713,0.01468144,0.
 06194117,0.,-0.04908627,-0.01986592,0.,0.03440483,-0.04207525,0.,0.,0.
 00013180,0.,0.,0.00003988,0.,0.,-0.00017168\\0.00003077,-0.00003389,0.
 ,-0.00002208,0.00003993,0.,-0.00000869,-0.00000603,0.\\\@


 MATERIAL COPIED FROM ONE SCHOLARLY BOOK WITHOUT CREDIT COMPRISES PLAGIARISM.
 MATERIAL COPIED FROM TWO SCHOLARLY BOOKS COMPRISES AN ESSAY.
 MATERIAL COPIED FROM THREE SCHOLARLY BOOKS COMPRISES A DISSERTATION.
 MATERIAL COPIED FROM FOUR SCHOLARLY BOOKS COMPRISES A FIFTH SCHOLARLY BOOK.

                               -- C&EN, 25 FEB 1980
 Job cpu time:       0 days  0 hours  1 minutes 38.5 seconds.
 Elapsed time:       0 days  0 hours  0 minutes 15.8 seconds.
 File lengths (MBytes):  RWF=      5 Int=      0 D2E=      0 Chk=      1 Scr=      1
 Normal termination of Gaussian 16 at Wed Oct  7 13:30:32 2020.
