 Entering Gaussian System, Link 0=g16
 Input=MN_52_hf2ts_BH76_M062X_631Gs.in
 Output=MN_52_hf2ts_BH76_M062X_631Gs.log
 Initial command:
 /udrive/faculty/rpeverati/g16/g16/l1.exe "/udrive/scratch-directories/gaussian09/rpeverati/Gau-8719.inp" -scrdir="/udrive/scratch-directories/gaussian09/rpeverati/"
 Entering Link 1 = /udrive/faculty/rpeverati/g16/g16/l1.exe PID=      8720.
  
 Copyright (c) 1988,1990,1992,1993,1995,1998,2003,2009,2016,
            Gaussian, Inc.  All Rights Reserved.
  
 This is part of the Gaussian(R) 16 program.  It is based on
 the Gaussian(R) 09 system (copyright 2009, Gaussian, Inc.),
 the Gaussian(R) 03 system (copyright 2003, Gaussian, Inc.),
 the Gaussian(R) 98 system (copyright 1998, Gaussian, Inc.),
 the Gaussian(R) 94 system (copyright 1995, Gaussian, Inc.),
 the Gaussian 92(TM) system (copyright 1992, Gaussian, Inc.),
 the Gaussian 90(TM) system (copyright 1990, Gaussian, Inc.),
 the Gaussian 88(TM) system (copyright 1988, Gaussian, Inc.),
 the Gaussian 86(TM) system (copyright 1986, Carnegie Mellon
 University), and the Gaussian 82(TM) system (copyright 1983,
 Carnegie Mellon University). Gaussian is a federally registered
 trademark of Gaussian, Inc.
  
 This software contains proprietary and confidential information,
 including trade secrets, belonging to Gaussian, Inc.
  
 This software is provided under written license and may be
 used, copied, transmitted, or stored only in accord with that
 written license.
  
 The following legend is applicable only to US Government
 contracts under FAR:
  
                    RESTRICTED RIGHTS LEGEND
  
 Use, reproduction and disclosure by the US Government is
 subject to restrictions as set forth in subparagraphs (a)
 and (c) of the Commercial Computer Software - Restricted
 Rights clause in FAR 52.227-19.
  
 Gaussian, Inc.
 340 Quinnipiac St., Bldg. 40, Wallingford CT 06492
  
  
 ---------------------------------------------------------------
 Warning -- This program may not be used in any manner that
 competes with the business of Gaussian, Inc. or will provide
 assistance to any competitor of Gaussian, Inc.  The licensee
 of this program is prohibited from giving any competitor of
 Gaussian, Inc. access to this program.  By using this program,
 the user acknowledges that Gaussian, Inc. is engaged in the
 business of creating and licensing software in the field of
 computational chemistry and represents and warrants to the
 licensee that it is not a competitor of Gaussian, Inc. and that
 it will not use this program in any manner prohibited above.
 ---------------------------------------------------------------
  

 Cite this work as:
 Gaussian 16, Revision A.03,
 M. J. Frisch, G. W. Trucks, H. B. Schlegel, G. E. Scuseria, 
 M. A. Robb, J. R. Cheeseman, G. Scalmani, V. Barone, 
 G. A. Petersson, H. Nakatsuji, X. Li, M. Caricato, A. V. Marenich, 
 J. Bloino, B. G. Janesko, R. Gomperts, B. Mennucci, H. P. Hratchian, 
 J. V. Ortiz, A. F. Izmaylov, J. L. Sonnenberg, D. Williams-Young, 
 F. Ding, F. Lipparini, F. Egidi, J. Goings, B. Peng, A. Petrone, 
 T. Henderson, D. Ranasinghe, V. G. Zakrzewski, J. Gao, N. Rega, 
 G. Zheng, W. Liang, M. Hada, M. Ehara, K. Toyota, R. Fukuda, 
 J. Hasegawa, M. Ishida, T. Nakajima, Y. Honda, O. Kitao, H. Nakai, 
 T. Vreven, K. Throssell, J. A. Montgomery, Jr., J. E. Peralta, 
 F. Ogliaro, M. J. Bearpark, J. J. Heyd, E. N. Brothers, K. N. Kudin, 
 V. N. Staroverov, T. A. Keith, R. Kobayashi, J. Normand, 
 K. Raghavachari, A. P. Rendell, J. C. Burant, S. S. Iyengar, 
 J. Tomasi, M. Cossi, J. M. Millam, M. Klene, C. Adamo, R. Cammi, 
 J. W. Ochterski, R. L. Martin, K. Morokuma, O. Farkas, 
 J. B. Foresman, and D. J. Fox, Gaussian, Inc., Wallingford CT, 2016.
 
 ******************************************
 Gaussian 16:  ES64L-G16RevA.03 25-Dec-2016
                 7-Oct-2020 
 ******************************************
 %NoSave
 %nproc=12
 Will use up to   12 processors via shared memory.
 %mem=20GB
 %chk=MN_52_hf2ts_BH76_M062X_631Gs
 ----------------------------------------------------------------------
 #P Opt(TS,MaxCyc=50,NoEigenTest,MaxStep=10,AddRedundant) M062X/6-31G* 
 5D 7F Integral=UltraFineGrid SCF=(NoSymm,XQC,MaxCyc=120) IOp(1/33=1)
 ----------------------------------------------------------------------
 1/5=1,6=50,8=10,11=1,18=120,26=4,33=1,38=1/1,3;
 2/9=110,12=2,17=6,18=5,40=1/2;
 3/5=1,6=6,7=1,8=11,11=2,25=1,30=1,71=1,74=-55,75=-5/1,2,3;
 4/9=2/1;
 5/5=2,7=120,8=3,13=1,38=5/2,8;
 6/7=2,8=2,9=2,10=2,28=1/1;
 7//1,2,3,16;
 1/5=1,6=50,8=10,11=1,18=20,26=4,33=1/3(2);
 2/9=110/2;
 99//99;
 2/9=110/2;
 3/5=1,6=6,7=1,8=11,11=2,25=1,30=1,71=1,74=-55,75=-5/1,2,3;
 4/5=5,9=2,16=3,69=1/1;
 5/5=2,7=120,8=3,13=1,38=5/2,8;
 7//1,2,3,16;
 1/5=1,6=50,8=10,11=1,18=20,26=4,33=1/3(-5);
 2/9=110/2;
 6/7=2,8=2,9=2,10=2,19=2,28=1/1;
 99/9=1/99;
 Leave Link    1 at Wed Oct  7 13:29:33 2020, MaxMem=  2684354560 cpu:               7.9 elap:               0.8
 (Enter /udrive/faculty/rpeverati/g16/g16/l101.exe)
 ONIOM data not found on unit 2.
 ------------------
 TS search on BH76.
 ------------------
 TstMul:  ICh=     0
 TstMul:  Mul=     2
 TstMul:  ICh=     0
 TstMul:  Mul=     2
 Symbolic Z-matrix:
 Charge =  0 Multiplicity = 2
 H                     0.        0.       -2.23128 
 F                     0.        0.       -0.61622 
 F                     0.        0.        0.86414 
 
 RdStrC is calling ZToCFu for IStruc=1 NZ=     3.
 PrtBox:  NBox=     1 Levels=  1 BoxLen=    8.00 SMaxX=        5.85
          Shift=            0.000000            0.000000            4.216500
 Box      1 Number                   0 centers from      1 to      3:
 After GenITR:
 ITRead=  0  0  0
 MicOpt= -1 -1 -1
 Add virtual bond connecting atoms F2         and H1         Dist= 3.05D+00.
 The following ModRedundant input section has been read:
 
 ITRead=  0  0  0
 MicOpt= -1 -1 -1
 NAtoms=      3 NQM=        3 NQMF=       0 NMMI=      0 NMMIF=      0
                NMic=       0 NMicF=      0.
                    Isotopes and Nuclear Properties:
 (Nuclear quadrupole moments (NQMom) in fm**2, nuclear magnetic moments (NMagM)
  in nuclear magnetons)

  Atom         1           2           3
 IAtWgt=           1          19          19
 AtmWgt=   1.0078250  18.9984033  18.9984033
 NucSpn=           1           1           1
 AtZEff=   0.0000000   0.0000000   0.0000000
 NQMom=    0.0000000   0.0000000   0.0000000
 NMagM=    2.7928460   2.6288670   2.6288670
 AtZNuc=   1.0000000   9.0000000   9.0000000
 No MM parameters found.
 Leave Link  101 at Wed Oct  7 13:29:35 2020, MaxMem=  2684354560 cpu:              19.2 elap:               1.8
 (Enter /udrive/faculty/rpeverati/g16/g16/l103.exe)

 GradGradGradGradGradGradGradGradGradGradGradGradGradGradGradGradGradGrad
 Berny optimization.
 Optmz: redundant internal coordinate code flag= 1
 Initialization pass.
                           ----------------------------
                           !    Initial Parameters    !
                           ! (Angstroms and Degrees)  !
 --------------------------                            --------------------------
 ! Name  Definition              Value          Derivative Info.                !
 --------------------------------------------------------------------------------
 ! R1    R(1,2)                  1.6151         estimate D2E/DX2                !
 ! R2    R(2,3)                  1.4804         estimate D2E/DX2                !
 ! A1    L(1,2,3,-1,-1)        180.0            estimate D2E/DX2                !
 ! A2    L(1,2,3,-2,-2)        180.0            estimate D2E/DX2                !
 --------------------------------------------------------------------------------
 Maximum allowed force set to 1.00D+20.
 Trust Radius=1.00D-01 FncErr=1.00D-07 GrdErr=1.00D-06 EigMax=2.50D+02 EigMin=1.00D-04
 Number of steps in this run=     50 maximum allowed number of steps=    100.
 Search for a saddle point of order  1.
 GradGradGradGradGradGradGradGradGradGradGradGradGradGradGradGradGradGrad

 Leave Link  103 at Wed Oct  7 13:29:36 2020, MaxMem=  2684354560 cpu:               1.1 elap:               0.5
 (Enter /udrive/faculty/rpeverati/g16/g16/l202.exe)
                          Input orientation:                          
 ---------------------------------------------------------------------
 Center     Atomic      Atomic             Coordinates (Angstroms)
 Number     Number       Type             X           Y           Z
 ---------------------------------------------------------------------
      1          1           0        0.000000    0.000000   -2.231276
      2          9           0        0.000000    0.000000   -0.616216
      3          9           0        0.000000    0.000000    0.864136
 ---------------------------------------------------------------------
                    Distance matrix (angstroms):
                    1          2          3
     1  H    0.000000
     2  F    1.615059   0.000000
     3  F    3.095412   1.480352   0.000000
 Stoichiometry    F2H(2)
 Framework group  C*V[C*(HFF)]
 Deg. of freedom     2
 Full point group                 C*V     NOp   4
 Largest Abelian subgroup         C2V     NOp   4
 Largest concise Abelian subgroup C1      NOp   1
                         Standard orientation:                         
 ---------------------------------------------------------------------
 Center     Atomic      Atomic             Coordinates (Angstroms)
 Number     Number       Type             X           Y           Z
 ---------------------------------------------------------------------
      1          1           0        0.000000    0.000000   -2.231276
      2          9           0        0.000000    0.000000   -0.616216
      3          9           0        0.000000    0.000000    0.864136
 ---------------------------------------------------------------------
 Rotational constants (GHZ):           0.0000000          19.2429738          19.2429738
 Leave Link  202 at Wed Oct  7 13:29:36 2020, MaxMem=  2684354560 cpu:               1.3 elap:               0.5
 (Enter /udrive/faculty/rpeverati/g16/g16/l301.exe)
 Standard basis: 6-31G(d) (5D, 7F)
 Ernie: Thresh=  0.10000D-02 Tol=  0.10000D-05 Strict=F.
 There are    18 symmetry adapted cartesian basis functions of A1  symmetry.
 There are     2 symmetry adapted cartesian basis functions of A2  symmetry.
 There are     6 symmetry adapted cartesian basis functions of B1  symmetry.
 There are     6 symmetry adapted cartesian basis functions of B2  symmetry.
 There are    16 symmetry adapted basis functions of A1  symmetry.
 There are     2 symmetry adapted basis functions of A2  symmetry.
 There are     6 symmetry adapted basis functions of B1  symmetry.
 There are     6 symmetry adapted basis functions of B2  symmetry.
    30 basis functions,    60 primitive gaussians,    32 cartesian basis functions
    10 alpha electrons        9 beta electrons
       nuclear repulsion energy        33.4423025658 Hartrees.
 IExCor= 4336 DFT=T Ex+Corr=M062X ExCW=0 ScaHFX=  0.540000
 ScaDFX=  1.000000  1.000000  1.000000  1.000000 ScalE2=  1.000000  1.000000
 IRadAn=      5 IRanWt=     -1 IRanGd=            0 ICorTp=0 IEmpDi=  4
 NAtoms=    3 NActive=    3 NUniq=    3 SFac= 1.00D+00 NAtFMM=   60 NAOKFM=F Big=F
 Integral buffers will be    131072 words long.
 Raffenetti 2 integral format.
 Two-electron integral symmetry is turned on.
 Leave Link  301 at Wed Oct  7 13:29:37 2020, MaxMem=  2684354560 cpu:               2.7 elap:               0.7
 (Enter /udrive/faculty/rpeverati/g16/g16/l302.exe)
 NPDir=0 NMtPBC=     1 NCelOv=     1 NCel=       1 NClECP=     1 NCelD=      1
         NCelK=      1 NCelE2=     1 NClLst=     1 CellRange=     0.0.
 One-electron integrals computed using PRISM.
 One-electron integral symmetry used in STVInt
 NBasis=    30 RedAO= T EigKep=  3.96D-02  NBF=    16     2     6     6
 NBsUse=    30 1.00D-06 EigRej= -1.00D+00 NBFU=    16     2     6     6
 Precomputing XC quadrature grid using
 IXCGrd= 4 IRadAn=           5 IRanWt=          -1 IRanGd=           0 AccXCQ= 0.00D+00.
 Generated NRdTot=       0 NPtTot=           0 NUsed=           0 NTot=          32
 NSgBfM=    32    32    32    32    32 MxSgAt=     3 MxSgA2=     3.
 Leave Link  302 at Wed Oct  7 13:29:38 2020, MaxMem=  2684354560 cpu:               4.0 elap:               0.7
 (Enter /udrive/faculty/rpeverati/g16/g16/l303.exe)
 DipDrv:  MaxL=1.
 Leave Link  303 at Wed Oct  7 13:29:39 2020, MaxMem=  2684354560 cpu:               1.4 elap:               0.5
 (Enter /udrive/faculty/rpeverati/g16/g16/l401.exe)
 SCF N**3 symmetry information disabled.
 ExpMin= 1.61D-01 ExpMax= 7.00D+03 ExpMxC= 1.05D+03 IAcc=3 IRadAn=         5 AccDes= 0.00D+00
 Harris functional with IExCor= 1009 and IRadAn=       5 diagonalized for initial guess.
 HarFok:  IExCor= 1009 AccDes= 0.00D+00 IRadAn=         5 IDoV= 1 UseB2=F ITyADJ=14
 ICtDFT=  3500011 ScaDFX=  1.000000  1.000000  1.000000  1.000000
 FoFCou: FMM=F IPFlag=           0 FMFlag=      100000 FMFlg1=           0
         NFxFlg=           0 DoJE=T BraDBF=F KetDBF=T FulRan=T
         wScrn=  0.000000 ICntrl=       500 IOpCl=  0 I1Cent=   200000004 NGrid=           0
         NMat0=    1 NMatS0=      1 NMatT0=    0 NMatD0=    1 NMtDS0=    0 NMtDT0=    0
 Petite list used in FoFCou.
 Harris En= -199.819292444336    
 JPrj=0 DoOrth=F DoCkMO=F.
 Initial guess orbital symmetries:
 Alpha Orbitals:
       Occupied  (SG) (SG) (SG) (SG) (SG) (PI) (PI) (PI) (PI) (SG)
       Virtual   (SG) (SG) (PI) (PI) (SG) (PI) (PI) (SG) (SG) (PI)
                 (PI) (DLTA) (DLTA) (SG) (DLTA) (DLTA) (SG) (PI)
                 (PI) (SG)
 Beta  Orbitals:
       Occupied  (SG) (SG) (SG) (SG) (SG) (PI) (PI) (PI) (PI)
       Virtual   (SG) (SG) (SG) (PI) (PI) (SG) (PI) (PI) (SG) (SG)
                 (PI) (PI) (DLTA) (DLTA) (SG) (DLTA) (DLTA) (SG)
                 (PI) (PI) (SG)
 The electronic state of the initial guess is 2-SG.
 Initial guess <Sx>= 0.0000 <Sy>= 0.0000 <Sz>= 0.5000 <S**2>= 0.7500 S= 0.5000
 Leave Link  401 at Wed Oct  7 13:29:40 2020, MaxMem=  2684354560 cpu:               3.9 elap:               0.7
 (Enter /udrive/faculty/rpeverati/g16/g16/l502.exe)
 Keep R1 and R2 ints in memory in symmetry-blocked form, NReq=10469180.
 FoFCou: FMM=F IPFlag=           0 FMFlag=           0 FMFlg1=           0
         NFxFlg=           0 DoJE=F BraDBF=F KetDBF=F FulRan=T
         wScrn=  0.000000 ICntrl=       600 IOpCl=  0 I1Cent=           0 NGrid=           0
         NMat0=    1 NMatS0=    465 NMatT0=    0 NMatD0=    1 NMtDS0=    0 NMtDT0=    0
 Petite list used in FoFCou.
 UHF open shell SCF:
 Using DIIS extrapolation, IDIIS=  1040.
 NGot=  2684354560 LenX=  2684288269 LenY=  2684286804
 Requested convergence on RMS density matrix=1.00D-08 within 120 cycles.
 Requested convergence on MAX density matrix=1.00D-06.
 Requested convergence on             energy=1.00D-06.
 No special actions if energy rises.
 Integral accuracy reduced to 1.0D-05 until final iterations.

 Cycle   1  Pass 0  IDiag  1:
 E= -199.858787687037    
 DIIS: error= 3.28D-02 at cycle   1 NSaved=   1.
 NSaved= 1 IEnMin= 1 EnMin= -199.858787687037     IErMin= 1 ErrMin= 3.28D-02
 ErrMax= 3.28D-02  0.00D+00 EMaxC= 1.00D-01 BMatC= 1.41D-01 BMatP= 1.41D-01
 IDIUse=3 WtCom= 6.72D-01 WtEn= 3.28D-01
 Coeff-Com:  0.100D+01
 Coeff-En:   0.100D+01
 Coeff:      0.100D+01
 Gap=     0.251 Goal=   None    Shift=    0.000
 Gap=     0.254 Goal=   None    Shift=    0.000
 GapD=    0.251 DampG=1.000 DampE=0.500 DampFc=0.5000 IDamp=-1.
 Damping current iteration by 5.00D-01
 RMSDP=1.22D-02 MaxDP=1.43D-01              OVMax= 3.55D-01

 Cycle   2  Pass 0  IDiag  1:
 E= -199.879345291024     Delta-E=       -0.020557603987 Rises=F Damp=T
 DIIS: error= 1.69D-02 at cycle   2 NSaved=   2.
 NSaved= 2 IEnMin= 2 EnMin= -199.879345291024     IErMin= 2 ErrMin= 1.69D-02
 ErrMax= 1.69D-02  0.00D+00 EMaxC= 1.00D-01 BMatC= 3.02D-02 BMatP= 1.41D-01
 IDIUse=3 WtCom= 8.31D-01 WtEn= 1.69D-01
 Coeff-Com:  0.158D+00 0.842D+00
 Coeff-En:   0.000D+00 0.100D+01
 Coeff:      0.131D+00 0.869D+00
 Gap=     0.384 Goal=   None    Shift=    0.000
 Gap=     0.305 Goal=   None    Shift=    0.000
 RMSDP=3.36D-03 MaxDP=5.53D-02 DE=-2.06D-02 OVMax= 1.07D-01

 Cycle   3  Pass 0  IDiag  1:
 E= -199.908033140159     Delta-E=       -0.028687849135 Rises=F Damp=F
 DIIS: error= 7.21D-03 at cycle   3 NSaved=   3.
 NSaved= 3 IEnMin= 3 EnMin= -199.908033140159     IErMin= 3 ErrMin= 7.21D-03
 ErrMax= 7.21D-03  0.00D+00 EMaxC= 1.00D-01 BMatC= 8.19D-03 BMatP= 3.02D-02
 IDIUse=3 WtCom= 9.28D-01 WtEn= 7.21D-02
 Coeff-Com:  0.550D-01 0.153D+00 0.792D+00
 Coeff-En:   0.000D+00 0.000D+00 0.100D+01
 Coeff:      0.510D-01 0.142D+00 0.807D+00
 Gap=     0.302 Goal=   None    Shift=    0.000
 Gap=     0.321 Goal=   None    Shift=    0.000
 RMSDP=1.55D-03 MaxDP=2.46D-02 DE=-2.87D-02 OVMax= 4.14D-02

 Cycle   4  Pass 0  IDiag  1:
 E= -199.909904369942     Delta-E=       -0.001871229783 Rises=F Damp=F
 DIIS: error= 6.57D-03 at cycle   4 NSaved=   4.
 NSaved= 4 IEnMin= 4 EnMin= -199.909904369942     IErMin= 4 ErrMin= 6.57D-03
 ErrMax= 6.57D-03  0.00D+00 EMaxC= 1.00D-01 BMatC= 5.82D-03 BMatP= 8.19D-03
 IDIUse=3 WtCom= 9.34D-01 WtEn= 6.57D-02
 Coeff-Com:  0.432D-01-0.152D+00 0.452D+00 0.657D+00
 Coeff-En:   0.000D+00 0.000D+00 0.000D+00 0.100D+01
 Coeff:      0.404D-01-0.142D+00 0.422D+00 0.680D+00
 Gap=     0.317 Goal=   None    Shift=    0.000
 Gap=     0.329 Goal=   None    Shift=    0.000
 RMSDP=9.87D-04 MaxDP=1.74D-02 DE=-1.87D-03 OVMax= 2.87D-02

 Cycle   5  Pass 0  IDiag  1:
 E= -199.911430823773     Delta-E=       -0.001526453831 Rises=F Damp=F
 DIIS: error= 2.03D-03 at cycle   5 NSaved=   5.
 NSaved= 5 IEnMin= 5 EnMin= -199.911430823773     IErMin= 5 ErrMin= 2.03D-03
 ErrMax= 2.03D-03  0.00D+00 EMaxC= 1.00D-01 BMatC= 5.12D-04 BMatP= 5.82D-03
 IDIUse=3 WtCom= 9.80D-01 WtEn= 2.03D-02
 Coeff-Com: -0.674D-02 0.630D-02-0.337D+00-0.402D-01 0.138D+01
 Coeff-En:   0.000D+00 0.000D+00 0.000D+00 0.000D+00 0.100D+01
 Coeff:     -0.660D-02 0.618D-02-0.330D+00-0.394D-01 0.137D+01
 Gap=     0.320 Goal=   None    Shift=    0.000
 Gap=     0.331 Goal=   None    Shift=    0.000
 RMSDP=7.31D-04 MaxDP=1.04D-02 DE=-1.53D-03 OVMax= 1.77D-02

 Cycle   6  Pass 0  IDiag  1:
 E= -199.911748867516     Delta-E=       -0.000318043743 Rises=F Damp=F
 DIIS: error= 4.81D-04 at cycle   6 NSaved=   6.
 NSaved= 6 IEnMin= 6 EnMin= -199.911748867516     IErMin= 6 ErrMin= 4.81D-04
 ErrMax= 4.81D-04  0.00D+00 EMaxC= 1.00D-01 BMatC= 1.71D-05 BMatP= 5.12D-04
 IDIUse=3 WtCom= 9.95D-01 WtEn= 4.81D-03
 Coeff-Com: -0.156D-02 0.930D-02-0.217D-01-0.491D-01 0.339D-01 0.103D+01
 Coeff-En:   0.000D+00 0.000D+00 0.000D+00 0.000D+00 0.000D+00 0.100D+01
 Coeff:     -0.156D-02 0.926D-02-0.216D-01-0.489D-01 0.337D-01 0.103D+01
 Gap=     0.321 Goal=   None    Shift=    0.000
 Gap=     0.331 Goal=   None    Shift=    0.000
 RMSDP=1.10D-04 MaxDP=1.61D-03 DE=-3.18D-04 OVMax= 3.23D-03

 Cycle   7  Pass 0  IDiag  1:
 E= -199.911763746736     Delta-E=       -0.000014879221 Rises=F Damp=F
 DIIS: error= 2.11D-04 at cycle   7 NSaved=   7.
 NSaved= 7 IEnMin= 7 EnMin= -199.911763746736     IErMin= 7 ErrMin= 2.11D-04
 ErrMax= 2.11D-04  0.00D+00 EMaxC= 1.00D-01 BMatC= 4.20D-06 BMatP= 1.71D-05
 IDIUse=3 WtCom= 9.98D-01 WtEn= 2.11D-03
 Coeff-Com: -0.911D-03-0.434D-03 0.204D-01 0.636D-02-0.815D-01-0.350D+00
 Coeff-Com:  0.141D+01
 Coeff-En:   0.000D+00 0.000D+00 0.000D+00 0.000D+00 0.000D+00 0.000D+00
 Coeff-En:   0.100D+01
 Coeff:     -0.910D-03-0.433D-03 0.203D-01 0.635D-02-0.813D-01-0.349D+00
 Coeff:      0.140D+01
 Gap=     0.321 Goal=   None    Shift=    0.000
 Gap=     0.332 Goal=   None    Shift=    0.000
 RMSDP=1.04D-04 MaxDP=1.56D-03 DE=-1.49D-05 OVMax= 2.63D-03

 Cycle   8  Pass 0  IDiag  1:
 E= -199.911771780328     Delta-E=       -0.000008033591 Rises=F Damp=F
 DIIS: error= 1.45D-04 at cycle   8 NSaved=   8.
 NSaved= 8 IEnMin= 8 EnMin= -199.911771780328     IErMin= 8 ErrMin= 1.45D-04
 ErrMax= 1.45D-04  0.00D+00 EMaxC= 1.00D-01 BMatC= 2.07D-06 BMatP= 4.20D-06
 IDIUse=3 WtCom= 9.99D-01 WtEn= 1.45D-03
 Coeff-Com: -0.294D-02 0.562D-02-0.204D-01-0.443D-02 0.938D-01-0.855D-01
 Coeff-Com: -0.103D+01 0.204D+01
 Coeff-En:   0.000D+00 0.000D+00 0.000D+00 0.000D+00 0.000D+00 0.000D+00
 Coeff-En:   0.000D+00 0.100D+01
 Coeff:     -0.293D-02 0.561D-02-0.204D-01-0.443D-02 0.937D-01-0.854D-01
 Coeff:     -0.103D+01 0.204D+01
 Gap=     0.322 Goal=   None    Shift=    0.000
 Gap=     0.331 Goal=   None    Shift=    0.000
 RMSDP=1.15D-04 MaxDP=1.70D-03 DE=-8.03D-06 OVMax= 2.88D-03

 Cycle   9  Pass 0  IDiag  1:
 E= -199.911776068244     Delta-E=       -0.000004287916 Rises=F Damp=F
 DIIS: error= 3.61D-05 at cycle   9 NSaved=   9.
 NSaved= 9 IEnMin= 9 EnMin= -199.911776068244     IErMin= 9 ErrMin= 3.61D-05
 ErrMax= 3.61D-05  0.00D+00 EMaxC= 1.00D-01 BMatC= 1.89D-07 BMatP= 2.07D-06
 IDIUse=1 WtCom= 1.00D+00 WtEn= 0.00D+00
 Coeff-Com: -0.472D-03 0.874D-03-0.531D-03-0.218D-02-0.614D-03 0.339D-01
 Coeff-Com: -0.121D+00-0.142D+00 0.123D+01
 Coeff:     -0.472D-03 0.874D-03-0.531D-03-0.218D-02-0.614D-03 0.339D-01
 Coeff:     -0.121D+00-0.142D+00 0.123D+01
 Gap=     0.322 Goal=   None    Shift=    0.000
 Gap=     0.331 Goal=   None    Shift=    0.000
 RMSDP=3.58D-05 MaxDP=5.32D-04 DE=-4.29D-06 OVMax= 8.80D-04

 Cycle  10  Pass 0  IDiag  1:
 E= -199.911776407865     Delta-E=       -0.000000339621 Rises=F Damp=F
 DIIS: error= 9.54D-06 at cycle  10 NSaved=  10.
 NSaved=10 IEnMin=10 EnMin= -199.911776407865     IErMin=10 ErrMin= 9.54D-06
 ErrMax= 9.54D-06  0.00D+00 EMaxC= 1.00D-01 BMatC= 1.32D-08 BMatP= 1.89D-07
 IDIUse=1 WtCom= 1.00D+00 WtEn= 0.00D+00
 Coeff-Com:  0.171D-03-0.330D-03 0.181D-02 0.579D-03-0.881D-02 0.795D-02
 Coeff-Com:  0.109D+00-0.224D+00-0.195D-01 0.113D+01
 Coeff:      0.171D-03-0.330D-03 0.181D-02 0.579D-03-0.881D-02 0.795D-02
 Coeff:      0.109D+00-0.224D+00-0.195D-01 0.113D+01
 Gap=     0.322 Goal=   None    Shift=    0.000
 Gap=     0.331 Goal=   None    Shift=    0.000
 RMSDP=7.02D-06 MaxDP=1.03D-04 DE=-3.40D-07 OVMax= 1.76D-04

 Initial convergence to 1.0D-05 achieved.  Increase integral accuracy.
 Cycle  11  Pass 1  IDiag  1:
 E= -199.911781235628     Delta-E=       -0.000004827763 Rises=F Damp=F
 DIIS: error= 5.04D-05 at cycle   1 NSaved=   1.
 NSaved= 1 IEnMin= 1 EnMin= -199.911781235628     IErMin= 1 ErrMin= 5.04D-05
 ErrMax= 5.04D-05  0.00D+00 EMaxC= 1.00D-01 BMatC= 2.00D-07 BMatP= 2.00D-07
 IDIUse=1 WtCom= 1.00D+00 WtEn= 0.00D+00
 Coeff-Com:  0.100D+01
 Coeff:      0.100D+01
 Gap=     0.322 Goal=   None    Shift=    0.000
 Gap=     0.331 Goal=   None    Shift=    0.000
 RMSDP=7.02D-06 MaxDP=1.03D-04 DE=-4.83D-06 OVMax= 1.03D-04

 Cycle  12  Pass 1  IDiag  1:
 E= -199.911781277082     Delta-E=       -0.000000041454 Rises=F Damp=F
 DIIS: error= 1.91D-05 at cycle   2 NSaved=   2.
 NSaved= 2 IEnMin= 2 EnMin= -199.911781277082     IErMin= 2 ErrMin= 1.91D-05
 ErrMax= 1.91D-05  0.00D+00 EMaxC= 1.00D-01 BMatC= 4.57D-08 BMatP= 2.00D-07
 IDIUse=1 WtCom= 1.00D+00 WtEn= 0.00D+00
 Coeff-Com:  0.275D+00 0.725D+00
 Coeff:      0.275D+00 0.725D+00
 Gap=     0.322 Goal=   None    Shift=    0.000
 Gap=     0.331 Goal=   None    Shift=    0.000
 RMSDP=2.68D-06 MaxDP=2.31D-05 DE=-4.15D-08 OVMax= 4.28D-05

 Cycle  13  Pass 1  IDiag  1:
 E= -199.911781283484     Delta-E=       -0.000000006402 Rises=F Damp=F
 DIIS: error= 6.65D-06 at cycle   3 NSaved=   3.
 NSaved= 3 IEnMin= 3 EnMin= -199.911781283484     IErMin= 3 ErrMin= 6.65D-06
 ErrMax= 6.65D-06  0.00D+00 EMaxC= 1.00D-01 BMatC= 4.69D-09 BMatP= 4.57D-08
 IDIUse=1 WtCom= 1.00D+00 WtEn= 0.00D+00
 Coeff-Com: -0.275D-01 0.211D+00 0.817D+00
 Coeff:     -0.275D-01 0.211D+00 0.817D+00
 Gap=     0.322 Goal=   None    Shift=    0.000
 Gap=     0.331 Goal=   None    Shift=    0.000
 RMSDP=9.58D-07 MaxDP=1.18D-05 DE=-6.40D-09 OVMax= 2.20D-05

 Cycle  14  Pass 1  IDiag  1:
 E= -199.911781284475     Delta-E=       -0.000000000991 Rises=F Damp=F
 DIIS: error= 2.01D-06 at cycle   4 NSaved=   4.
 NSaved= 4 IEnMin= 4 EnMin= -199.911781284475     IErMin= 4 ErrMin= 2.01D-06
 ErrMax= 2.01D-06  0.00D+00 EMaxC= 1.00D-01 BMatC= 2.93D-10 BMatP= 4.69D-09
 IDIUse=1 WtCom= 1.00D+00 WtEn= 0.00D+00
 Coeff-Com: -0.149D-01 0.393D-01 0.276D+00 0.700D+00
 Coeff:     -0.149D-01 0.393D-01 0.276D+00 0.700D+00
 Gap=     0.322 Goal=   None    Shift=    0.000
 Gap=     0.331 Goal=   None    Shift=    0.000
 RMSDP=2.47D-07 MaxDP=4.43D-06 DE=-9.91D-10 OVMax= 7.34D-06

 Cycle  15  Pass 1  IDiag  1:
 E= -199.911781284590     Delta-E=       -0.000000000116 Rises=F Damp=F
 DIIS: error= 9.87D-07 at cycle   5 NSaved=   5.
 NSaved= 5 IEnMin= 5 EnMin= -199.911781284590     IErMin= 5 ErrMin= 9.87D-07
 ErrMax= 9.87D-07  0.00D+00 EMaxC= 1.00D-01 BMatC= 9.96D-11 BMatP= 2.93D-10
 IDIUse=1 WtCom= 1.00D+00 WtEn= 0.00D+00
 Coeff-Com: -0.306D-02-0.119D-01 0.285D-01 0.244D+00 0.743D+00
 Coeff:     -0.306D-02-0.119D-01 0.285D-01 0.244D+00 0.743D+00
 Gap=     0.322 Goal=   None    Shift=    0.000
 Gap=     0.331 Goal=   None    Shift=    0.000
 RMSDP=2.08D-07 MaxDP=3.58D-06 DE=-1.16D-10 OVMax= 6.90D-06

 Cycle  16  Pass 1  IDiag  1:
 E= -199.911781284662     Delta-E=       -0.000000000071 Rises=F Damp=F
 DIIS: error= 8.26D-07 at cycle   6 NSaved=   6.
 NSaved= 6 IEnMin= 6 EnMin= -199.911781284662     IErMin= 6 ErrMin= 8.26D-07
 ErrMax= 8.26D-07  0.00D+00 EMaxC= 1.00D-01 BMatC= 5.39D-11 BMatP= 9.96D-11
 IDIUse=1 WtCom= 1.00D+00 WtEn= 0.00D+00
 Coeff-Com:  0.106D-01-0.388D-01-0.207D+00-0.630D+00 0.419D+00 0.145D+01
 Coeff:      0.106D-01-0.388D-01-0.207D+00-0.630D+00 0.419D+00 0.145D+01
 Gap=     0.322 Goal=   None    Shift=    0.000
 Gap=     0.331 Goal=   None    Shift=    0.000
 RMSDP=4.73D-07 MaxDP=7.44D-06 DE=-7.13D-11 OVMax= 1.11D-05

 Cycle  17  Pass 1  IDiag  1:
 E= -199.911781284758     Delta-E=       -0.000000000096 Rises=F Damp=F
 DIIS: error= 2.56D-07 at cycle   7 NSaved=   7.
 NSaved= 7 IEnMin= 7 EnMin= -199.911781284758     IErMin= 7 ErrMin= 2.56D-07
 ErrMax= 2.56D-07  0.00D+00 EMaxC= 1.00D-01 BMatC= 5.16D-12 BMatP= 5.39D-11
 IDIUse=1 WtCom= 1.00D+00 WtEn= 0.00D+00
 Coeff-Com: -0.125D-02 0.111D-01 0.308D-01 0.456D-01-0.220D+00-0.403D+00
 Coeff-Com:  0.154D+01
 Coeff:     -0.125D-02 0.111D-01 0.308D-01 0.456D-01-0.220D+00-0.403D+00
 Coeff:      0.154D+01
 Gap=     0.322 Goal=   None    Shift=    0.000
 Gap=     0.331 Goal=   None    Shift=    0.000
 RMSDP=2.54D-07 MaxDP=3.88D-06 DE=-9.61D-11 OVMax= 6.40D-06

 Cycle  18  Pass 1  IDiag  1:
 E= -199.911781284773     Delta-E=       -0.000000000015 Rises=F Damp=F
 DIIS: error= 4.43D-08 at cycle   8 NSaved=   8.
 NSaved= 8 IEnMin= 8 EnMin= -199.911781284773     IErMin= 8 ErrMin= 4.43D-08
 ErrMax= 4.43D-08  0.00D+00 EMaxC= 1.00D-01 BMatC= 1.22D-13 BMatP= 5.16D-12
 IDIUse=1 WtCom= 1.00D+00 WtEn= 0.00D+00
 Coeff-Com: -0.259D-03-0.321D-03 0.521D-02 0.940D-02 0.934D-02 0.286D-01
 Coeff-Com: -0.278D+00 0.123D+01
 Coeff:     -0.259D-03-0.321D-03 0.521D-02 0.940D-02 0.934D-02 0.286D-01
 Coeff:     -0.278D+00 0.123D+01
 Gap=     0.322 Goal=   None    Shift=    0.000
 Gap=     0.331 Goal=   None    Shift=    0.000
 RMSDP=2.56D-08 MaxDP=3.68D-07 DE=-1.53D-11 OVMax= 6.78D-07

 Cycle  19  Pass 1  IDiag  1:
 E= -199.911781284773     Delta-E=       -0.000000000000 Rises=F Damp=F
 DIIS: error= 6.66D-09 at cycle   9 NSaved=   9.
 NSaved= 9 IEnMin= 9 EnMin= -199.911781284773     IErMin= 9 ErrMin= 6.66D-09
 ErrMax= 6.66D-09  0.00D+00 EMaxC= 1.00D-01 BMatC= 6.29D-15 BMatP= 1.22D-13
 IDIUse=1 WtCom= 1.00D+00 WtEn= 0.00D+00
 Coeff-Com:  0.237D-04-0.371D-03-0.428D-03-0.394D-02 0.780D-02 0.161D-01
 Coeff-Com: -0.553D-01 0.462D-02 0.103D+01
 Coeff:      0.237D-04-0.371D-03-0.428D-03-0.394D-02 0.780D-02 0.161D-01
 Coeff:     -0.553D-01 0.462D-02 0.103D+01
 Gap=     0.322 Goal=   None    Shift=    0.000
 Gap=     0.331 Goal=   None    Shift=    0.000
 RMSDP=2.67D-09 MaxDP=3.55D-08 DE=-5.68D-14 OVMax= 6.96D-08

 SCF Done:  E(UM062X) =  -199.911781285     A.U. after   19 cycles
            NFock= 19  Conv=0.27D-08     -V/T= 2.0046
 <Sx>= 0.0000 <Sy>= 0.0000 <Sz>= 0.5000 <S**2>= 0.7918 S= 0.5207
 <L.S>= 0.000000000000E+00
 KE= 1.990017596417D+02 PE=-5.448653788705D+02 EE= 1.125095353782D+02
 Annihilation of the first spin contaminant:
 S**2 before annihilation     0.7918,   after     0.7500
 Leave Link  502 at Wed Oct  7 13:29:42 2020, MaxMem=  2684354560 cpu:              15.9 elap:               1.6
 (Enter /udrive/faculty/rpeverati/g16/g16/l508.exe)
 QCSCF skips out because SCF is already converged.
 Leave Link  508 at Wed Oct  7 13:29:43 2020, MaxMem=  2684354560 cpu:               0.3 elap:               0.4
 (Enter /udrive/faculty/rpeverati/g16/g16/l601.exe)
 Copying SCF densities to generalized density rwf, IOpCl= 1 IROHF=0.

 **********************************************************************

            Population analysis using the SCF density.

 **********************************************************************

 Orbital symmetries:
 Alpha Orbitals:
       Occupied  (SG) (SG) (SG) (SG) (SG) (PI) (PI) (PI) (PI) (SG)
       Virtual   (SG) (SG) (PI) (PI) (SG) (PI) (PI) (SG) (SG) (PI)
                 (PI) (DLTA) (DLTA) (SG) (SG) (DLTA) (DLTA) (PI)
                 (PI) (SG)
 Beta  Orbitals:
       Occupied  (SG) (SG) (SG) (SG) (SG) (PI) (PI) (PI) (PI)
       Virtual   (SG) (SG) (SG) (PI) (PI) (SG) (PI) (PI) (SG) (SG)
                 (PI) (PI) (DLTA) (DLTA) (SG) (DLTA) (DLTA) (SG)
                 (PI) (PI) (SG)
 The electronic state is 2-SG.
 Alpha  occ. eigenvalues --  -25.32968 -25.30901  -1.43197  -1.23215  -0.65486
 Alpha  occ. eigenvalues --   -0.59168  -0.59168  -0.48130  -0.48130  -0.38123
 Alpha virt. eigenvalues --   -0.05949   0.71363   1.16356   1.16356   1.25477
 Alpha virt. eigenvalues --    1.34273   1.34273   1.39360   1.46321   1.63170
 Alpha virt. eigenvalues --    1.63170   1.80708   1.80713   1.82691   1.98350
 Alpha virt. eigenvalues --    1.99780   1.99785   2.44020   2.44020   3.57201
  Beta  occ. eigenvalues --  -25.33135 -25.30039  -1.42150  -1.21830  -0.62357
  Beta  occ. eigenvalues --   -0.58899  -0.58899  -0.47299  -0.47299
  Beta virt. eigenvalues --   -0.14173  -0.02212   0.60642   1.16593   1.16593
  Beta virt. eigenvalues --    1.27648   1.34636   1.34636   1.39747   1.45041
  Beta virt. eigenvalues --    1.63298   1.63298   1.80749   1.80754   1.82963
  Beta virt. eigenvalues --    1.99893   1.99898   2.00013   2.44529   2.44529
  Beta virt. eigenvalues --    3.57387
          Condensed to atoms (all electrons):
               1          2          3
     1  H    0.844152   0.014102   0.005184
     2  F    0.014102   9.032192   0.029416
     3  F    0.005184   0.029416   9.026253
          Atomic-Atomic Spin Densities.
               1          2          3
     1  H    0.820762  -0.025949   0.006521
     2  F   -0.025949  -0.078710  -0.052343
     3  F    0.006521  -0.052343   0.401489
 Mulliken charges and spin densities:
               1          2
     1  H    0.136562   0.801334
     2  F   -0.075709  -0.157002
     3  F   -0.060853   0.355668
 Sum of Mulliken charges =  -0.00000   1.00000
 Mulliken charges and spin densities with hydrogens summed into heavy atoms:
               1          2
     2  F    0.060853   0.644332
     3  F   -0.060853   0.355668
 Electronic spatial extent (au):  <R**2>=             74.7469
 Charge=             -0.0000 electrons
 Dipole moment (field-independent basis, Debye):
    X=              0.0000    Y=              0.0000    Z=             -1.3571  Tot=              1.3571
 Quadrupole moment (field-independent basis, Debye-Ang):
   XX=            -10.5205   YY=            -10.5205   ZZ=             -6.8876
   XY=              0.0000   XZ=              0.0000   YZ=              0.0000
 Traceless Quadrupole moment (field-independent basis, Debye-Ang):
   XX=             -1.2110   YY=             -1.2110   ZZ=              2.4219
   XY=              0.0000   XZ=              0.0000   YZ=              0.0000
 Octapole moment (field-independent basis, Debye-Ang**2):
  XXX=              0.0000  YYY=              0.0000  ZZZ=             -3.1294  XYY=              0.0000
  XXY=              0.0000  XXZ=              1.2208  XZZ=              0.0000  YZZ=              0.0000
  YYZ=              1.2208  XYZ=             -0.0000
 Hexadecapole moment (field-independent basis, Debye-Ang**3):
 XXXX=             -6.0574 YYYY=             -6.0574 ZZZZ=            -48.5157 XXXY=              0.0000
 XXXZ=              0.0000 YYYX=              0.0000 YYYZ=              0.0000 ZZZX=              0.0000
 ZZZY=              0.0000 XXYY=             -2.0191 XXZZ=            -12.5645 YYZZ=            -12.5645
 XXYZ=             -0.0000 YYXZ=              0.0000 ZZXY=              0.0000
 N-N= 3.344230256578D+01 E-N=-5.448653788954D+02  KE= 1.990017596417D+02
                          Isotropic Fermi Contact Couplings
        Atom                 a.u.       MegaHertz       Gauss      10(-4) cm-1
     1  H(1)               0.26841    1199.77387     428.10915     400.20149
     2  F(19)              0.54174    2279.31700     813.31698     760.29831
     3  F(19)              0.01585      66.69236      23.79749      22.24618
 --------------------------------------------------------
       Center         ----  Spin Dipole Couplings  ----
                      3XX-RR        3YY-RR        3ZZ-RR
 --------------------------------------------------------
     1   Atom        0.006784      0.006784     -0.013568
     2   Atom        0.550027      0.550027     -1.100055
     3   Atom       -1.115662     -1.115662      2.231324
 --------------------------------------------------------
                        XY            XZ            YZ
 --------------------------------------------------------
     1   Atom        0.000000      0.000000      0.000000
     2   Atom        0.000000      0.000000      0.000000
     3   Atom        0.000000      0.000000      0.000000
 --------------------------------------------------------


 ---------------------------------------------------------------------------------
              Anisotropic Spin Dipole Couplings in Principal Axis System
 ---------------------------------------------------------------------------------

       Atom             a.u.   MegaHertz   Gauss  10(-4) cm-1        Axes

              Baa    -0.0136    -7.239    -2.583    -2.415  0.0000  0.0000  1.0000
     1 H(1)   Bbb     0.0068     3.620     1.292     1.207  1.0000  0.0000  0.0000
              Bcc     0.0068     3.620     1.292     1.207  0.0000  1.0000  0.0000
 
              Baa    -1.1001  -552.476  -197.137  -184.286  0.0000  0.0000  1.0000
     2 F(19)  Bbb     0.5500   276.238    98.569    92.143  1.0000  0.0000  0.0000
              Bcc     0.5500   276.238    98.569    92.143  0.0000  1.0000  0.0000
 
              Baa    -1.1157  -560.314  -199.934  -186.901  1.0000  0.0000  0.0000
     3 F(19)  Bbb    -1.1157  -560.314  -199.934  -186.901  0.0000  1.0000  0.0000
              Bcc     2.2313  1120.628   399.868   373.801  0.0000  0.0000  1.0000
 

 ---------------------------------------------------------------------------------

 No NMR shielding tensors so no spin-rotation constants.
 Leave Link  601 at Wed Oct  7 13:29:44 2020, MaxMem=  2684354560 cpu:               5.5 elap:               0.9
 (Enter /udrive/faculty/rpeverati/g16/g16/l701.exe)
 ... and contract with generalized density number  0.
 Compute integral first derivatives.
 Leave Link  701 at Wed Oct  7 13:29:45 2020, MaxMem=  2684354560 cpu:               4.4 elap:               0.9
 (Enter /udrive/faculty/rpeverati/g16/g16/l702.exe)
 L702 exits ... SP integral derivatives will be done elsewhere.
 Leave Link  702 at Wed Oct  7 13:29:46 2020, MaxMem=  2684354560 cpu:               1.5 elap:               0.5
 (Enter /udrive/faculty/rpeverati/g16/g16/l703.exe)
 Integral derivatives from FoFJK, PRISM(SPDF).
 Compute integral first derivatives, UseDBF=F ICtDFT=           0.
 Calling FoFJK, ICntrl=      2127 FMM=F ISym2X=1 I1Cent= 0 IOpClX= 1 NMat=1 NMatS=1 NMatT=0.
 FoFJK:  IHMeth= 1 ICntrl=    2127 DoSepK=F KAlg= 0 I1Cent=           0 FoldK=F
 IRaf=         0 NMat=       1 IRICut=       1 DoRegI=T DoRafI=F ISym2E= 1 IDoP0=0 IntGTp=1.
 FoFCou: FMM=F IPFlag=           0 FMFlag=      100000 FMFlg1=         800
         NFxFlg=           0 DoJE=F BraDBF=F KetDBF=F FulRan=T
         wScrn=  0.000000 ICntrl=      2127 IOpCl=  1 I1Cent=           0 NGrid=           0
         NMat0=    1 NMatS0=      1 NMatT0=    0 NMatD0=    1 NMtDS0=    0 NMtDT0=    0
 Petite list used in FoFCou.
 Leave Link  703 at Wed Oct  7 13:29:47 2020, MaxMem=  2684354560 cpu:               4.6 elap:               0.8
 (Enter /udrive/faculty/rpeverati/g16/g16/l716.exe)
 Dipole        = 0.00000000D+00 4.49157255D-32-5.33942909D-01
 ***** Axes restored to original set *****
 -------------------------------------------------------------------
 Center     Atomic                   Forces (Hartrees/Bohr)
 Number     Number              X              Y              Z
 -------------------------------------------------------------------
      1        1          -0.000000000   -0.000000000    0.012487559
      2        9          -0.000000000   -0.000000000   -0.012871888
      3        9           0.000000000    0.000000000    0.000384330
 -------------------------------------------------------------------
 Cartesian Forces:  Max     0.012871888 RMS     0.005979338
 Leave Link  716 at Wed Oct  7 13:29:47 2020, MaxMem=  2684354560 cpu:               1.9 elap:               0.5
 (Enter /udrive/faculty/rpeverati/g16/g16/l103.exe)

 GradGradGradGradGradGradGradGradGradGradGradGradGradGradGradGradGradGrad
 Berny optimization.
 Optmz: redundant internal coordinate code flag= 1
 FormGI is forming the generalized inverse of G from B-inverse, IUseBI=4.
 Internal  Forces:  Max     0.012487559 RMS     0.006246736
 Search for a saddle point.
 Step number   1 out of a maximum of   50
 All quantities printed in internal units (Hartrees-Bohrs-Radians)
 Swapping is turned off.
 Second derivative matrix not updated -- first step.
 The second derivative matrix:
                          R1        R2        A1        A2
           R1           0.08809
           R2           0.00000   0.34529
           A1           0.00000   0.00000   0.00230
           A2           0.00000   0.00000   0.00000   0.00230
 ITU=  0
 Eigenvectors of the second derivative matrix:
                           1         2         3         4
     Eigenvalues --     0.00230   0.00230   0.08809   0.34529
   1         R1         0.00000   0.00000  -1.00000  -0.00000
   2         R2         0.00000   0.00000  -0.00000   1.00000
   3         A1         0.00000   1.00000   0.00000   0.00000
   4         A2         1.00000   0.00000   0.00000   0.00000
 Eigenvalue     1 is   2.30D-03 should be less than     0.000000 Eigenvector:
                          A2        R2        A1        R1
   1                    1.00000   0.00000   0.00000   0.00000
 RLam0= 2.30D-03.
 Iter=   1 RLamda= 0.00000000D+00 Sum=-1.77056496D-03.
 Iter=   2 RLamda=-1.77056496D-03 Sum=-1.73568663D-03.
 Iter=   3 RLamda=-1.73568663D-03 Sum=-1.73636042D-03.
 Iter=   4 RLamda=-1.73636042D-03 Sum=-1.73634740D-03.
 Iter=   5 RLamda=-1.73634740D-03 Sum=-1.73634765D-03.
 RFO step:  Lambda0=2.300010000D-03 Lambda=-1.73634740D-03.
 Linear search not attempted -- option 19 set.
 Maximum step size (   0.100) exceeded in Quadratic search.
    -- Step size scaled by   0.509
 Iteration  1 RMS(Cart)=  0.05099937 RMS(Int)=  0.00135941
 Iteration  2 RMS(Cart)=  0.00136030 RMS(Int)=  0.00000028
 Iteration  3 RMS(Cart)=  0.00000032 RMS(Int)=  0.00000000
 ITry= 1 IFail=0 DXMaxC= 6.80D-02 DCOld= 1.00D+10 DXMaxT= 1.00D-01 DXLimC= 3.00D+00 Rises=F
 ClnCor:  largest displacement from symmetrization is 6.80D-02 for atom     2.
 Variable       Old X    -DE/DX   Delta X   Delta X   Delta X     New X
                                 (Linear)    (Quad)   (Total)
    R1        3.05202  -0.01249   0.00000  -0.07071  -0.07240   2.97962
    R2        2.79746   0.00038   0.00000   0.00056  -0.00135   2.79611
    A1        3.14159   0.00000   0.00000   0.00000   0.00000   3.14159
    A2        3.14159  -0.00000   0.00000  -0.07071   0.00000   3.14159
         Item               Value     Threshold  Converged?
 Maximum Force            0.012488     0.000450     NO 
 RMS     Force            0.006247     0.000300     NO 
 Maximum Displacement     0.048719     0.001800     NO 
 RMS     Displacement     0.029838     0.001200     NO 
 Predicted change in Energy=-6.724003D-04
 Lowest energy point so far.  Saving SCF results.
 Largest change from initial coordinates is atom    1       0.013 Angstoms.
 GradGradGradGradGradGradGradGradGradGradGradGradGradGradGradGradGradGrad

 Leave Link  103 at Wed Oct  7 13:29:48 2020, MaxMem=  2684354560 cpu:               1.8 elap:               0.5
 (Enter /udrive/faculty/rpeverati/g16/g16/l202.exe)
                          Input orientation:                          
 ---------------------------------------------------------------------
 Center     Atomic      Atomic             Coordinates (Angstroms)
 Number     Number       Type             X           Y           Z
 ---------------------------------------------------------------------
      1          1           0        0.000000    0.000000   -2.205495
      2          9           0        0.000000    0.000000   -0.628749
      3          9           0        0.000000    0.000000    0.850888
 ---------------------------------------------------------------------
                    Distance matrix (angstroms):
                    1          2          3
     1  H    0.000000
     2  F    1.576745   0.000000
     3  F    3.056383   1.479637   0.000000
 Stoichiometry    F2H(2)
 Framework group  C*V[C*(HFF)]
 Deg. of freedom     2
 Full point group                 C*V     NOp   4
 RotChk:  IX=0 Diff= 0.00D+00
 Largest Abelian subgroup         C2V     NOp   4
 Largest concise Abelian subgroup C1      NOp   1
                         Standard orientation:                         
 ---------------------------------------------------------------------
 Center     Atomic      Atomic             Coordinates (Angstroms)
 Number     Number       Type             X           Y           Z
 ---------------------------------------------------------------------
      1          1           0        0.000000    0.000000   -2.194640
      2          9           0        0.000000    0.000000   -0.617894
      3          9           0        0.000000    0.000000    0.861743
 ---------------------------------------------------------------------
 Rotational constants (GHZ):           0.0000000          19.3887579          19.3887579
 Leave Link  202 at Wed Oct  7 13:29:49 2020, MaxMem=  2684354560 cpu:               1.1 elap:               0.4
 (Enter /udrive/faculty/rpeverati/g16/g16/l301.exe)
 Standard basis: 6-31G(d) (5D, 7F)
 Ernie: Thresh=  0.10000D-02 Tol=  0.10000D-05 Strict=F.
 There are    18 symmetry adapted cartesian basis functions of A1  symmetry.
 There are     2 symmetry adapted cartesian basis functions of A2  symmetry.
 There are     6 symmetry adapted cartesian basis functions of B1  symmetry.
 There are     6 symmetry adapted cartesian basis functions of B2  symmetry.
 There are    16 symmetry adapted basis functions of A1  symmetry.
 There are     2 symmetry adapted basis functions of A2  symmetry.
 There are     6 symmetry adapted basis functions of B1  symmetry.
 There are     6 symmetry adapted basis functions of B2  symmetry.
    30 basis functions,    60 primitive gaussians,    32 cartesian basis functions
    10 alpha electrons        9 beta electrons
       nuclear repulsion energy        33.5475929270 Hartrees.
 IExCor= 4336 DFT=T Ex+Corr=M062X ExCW=0 ScaHFX=  0.540000
 ScaDFX=  1.000000  1.000000  1.000000  1.000000 ScalE2=  1.000000  1.000000
 IRadAn=      5 IRanWt=     -1 IRanGd=            0 ICorTp=0 IEmpDi=  4
 NAtoms=    3 NActive=    3 NUniq=    3 SFac= 1.00D+00 NAtFMM=   60 NAOKFM=F Big=F
 Integral buffers will be    131072 words long.
 Raffenetti 2 integral format.
 Two-electron integral symmetry is turned on.
 Leave Link  301 at Wed Oct  7 13:29:49 2020, MaxMem=  2684354560 cpu:               1.8 elap:               0.5
 (Enter /udrive/faculty/rpeverati/g16/g16/l302.exe)
 NPDir=0 NMtPBC=     1 NCelOv=     1 NCel=       1 NClECP=     1 NCelD=      1
         NCelK=      1 NCelE2=     1 NClLst=     1 CellRange=     0.0.
 One-electron integrals computed using PRISM.
 One-electron integral symmetry used in STVInt
 NBasis=    30 RedAO= T EigKep=  3.94D-02  NBF=    16     2     6     6
 NBsUse=    30 1.00D-06 EigRej= -1.00D+00 NBFU=    16     2     6     6
 Precomputing XC quadrature grid using
 IXCGrd= 4 IRadAn=           5 IRanWt=          -1 IRanGd=           0 AccXCQ= 0.00D+00.
 Generated NRdTot=       0 NPtTot=           0 NUsed=           0 NTot=          32
 NSgBfM=    32    32    32    32    32 MxSgAt=     3 MxSgA2=     3.
 Leave Link  302 at Wed Oct  7 13:29:50 2020, MaxMem=  2684354560 cpu:               3.9 elap:               0.7
 (Enter /udrive/faculty/rpeverati/g16/g16/l303.exe)
 DipDrv:  MaxL=1.
 Leave Link  303 at Wed Oct  7 13:29:51 2020, MaxMem=  2684354560 cpu:               1.5 elap:               0.5
 (Enter /udrive/faculty/rpeverati/g16/g16/l401.exe)
 Initial guess from the checkpoint file:  "MN_52_hf2ts_BH76_M062X_631Gs.chk"
 SCF N**3 symmetry information disabled.
 B after Tr=     0.000000    0.000000    0.000000
         Rot=    1.000000    0.000000    0.000000    0.000000 Ang=   0.00 deg.
 Guess basis will be translated and rotated to current coordinates.
 JPrj=2 DoOrth=T DoCkMO=T.
 Initial guess orbital symmetries:
 Alpha Orbitals:
       Occupied  (SG) (SG) (SG) (SG) (SG) (PI) (PI) (PI) (PI) (SG)
       Virtual   (SG) (SG) (PI) (PI) (SG) (PI) (PI) (SG) (SG) (PI)
                 (PI) (DLTA) (DLTA) (SG) (SG) (DLTA) (DLTA) (PI)
                 (PI) (SG)
 Beta  Orbitals:
       Occupied  (SG) (SG) (SG) (SG) (SG) (PI) (PI) (PI) (PI)
       Virtual   (SG) (SG) (SG) (PI) (PI) (SG) (PI) (PI) (SG) (SG)
                 (PI) (PI) (DLTA) (DLTA) (SG) (DLTA) (DLTA) (SG)
                 (PI) (PI) (SG)
 The electronic state of the initial guess is 2-SG.
 Initial guess <Sx>= 0.0000 <Sy>= 0.0000 <Sz>= 0.5000 <S**2>= 0.7914 S= 0.5205
 Generating alternative initial guess.
 ExpMin= 1.61D-01 ExpMax= 7.00D+03 ExpMxC= 1.05D+03 IAcc=2 IRadAn=         4 AccDes= 0.00D+00
 Harris functional with IExCor= 1009 and IRadAn=       4 diagonalized for initial guess.
 HarFok:  IExCor= 1009 AccDes= 0.00D+00 IRadAn=         4 IDoV= 1 UseB2=F ITyADJ=14
 ICtDFT=  3500011 ScaDFX=  1.000000  1.000000  1.000000  1.000000
 FoFCou: FMM=F IPFlag=           0 FMFlag=      100000 FMFlg1=           0
         NFxFlg=           0 DoJE=T BraDBF=F KetDBF=T FulRan=T
         wScrn=  0.000000 ICntrl=       500 IOpCl=  0 I1Cent=   200000004 NGrid=           0
         NMat0=    1 NMatS0=      1 NMatT0=    0 NMatD0=    1 NMtDS0=    0 NMtDT0=    0
 Petite list used in FoFCou.
 Harris En= -199.822456986425    
 Leave Link  401 at Wed Oct  7 13:29:52 2020, MaxMem=  2684354560 cpu:               5.1 elap:               0.8
 (Enter /udrive/faculty/rpeverati/g16/g16/l502.exe)
 Keep R1 and R2 ints in memory in symmetry-blocked form, NReq=10469180.
 FoFCou: FMM=F IPFlag=           0 FMFlag=           0 FMFlg1=           0
         NFxFlg=           0 DoJE=F BraDBF=F KetDBF=F FulRan=T
         wScrn=  0.000000 ICntrl=       600 IOpCl=  0 I1Cent=           0 NGrid=           0
         NMat0=    1 NMatS0=    465 NMatT0=    0 NMatD0=    1 NMtDS0=    0 NMtDT0=    0
 Petite list used in FoFCou.
 UHF open shell SCF:
 Using DIIS extrapolation, IDIIS=  1040.
 NGot=  2684354560 LenX=  2684288269 LenY=  2684286804
 Requested convergence on RMS density matrix=1.00D-08 within 120 cycles.
 Requested convergence on MAX density matrix=1.00D-06.
 Requested convergence on             energy=1.00D-06.
 No special actions if energy rises.
 Integral accuracy reduced to 1.0D-05 until final iterations.

 Cycle   1  Pass 0  IDiag  1:
 E= -199.912595779275    
 DIIS: error= 1.82D-03 at cycle   1 NSaved=   1.
 NSaved= 1 IEnMin= 1 EnMin= -199.912595779275     IErMin= 1 ErrMin= 1.82D-03
 ErrMax= 1.82D-03  0.00D+00 EMaxC= 1.00D-01 BMatC= 1.78D-04 BMatP= 1.78D-04
 IDIUse=3 WtCom= 9.82D-01 WtEn= 1.82D-02
 Coeff-Com:  0.100D+01
 Coeff-En:   0.100D+01
 Coeff:      0.100D+01
 Gap=     0.325 Goal=   None    Shift=    0.000
 Gap=     0.332 Goal=   None    Shift=    0.000
 GapD=    0.325 DampG=1.000 DampE=1.000 DampFc=1.0000 IDamp=-1.
 RMSDP=4.58D-04 MaxDP=6.53D-03              OVMax= 1.38D-02

 Cycle   2  Pass 0  IDiag  1:
 E= -199.912749008532     Delta-E=       -0.000153229257 Rises=F Damp=F
 DIIS: error= 8.94D-04 at cycle   2 NSaved=   2.
 NSaved= 2 IEnMin= 2 EnMin= -199.912749008532     IErMin= 2 ErrMin= 8.94D-04
 ErrMax= 8.94D-04  0.00D+00 EMaxC= 1.00D-01 BMatC= 5.77D-05 BMatP= 1.78D-04
 IDIUse=3 WtCom= 9.91D-01 WtEn= 8.94D-03
 Coeff-Com:  0.842D-01 0.916D+00
 Coeff-En:   0.000D+00 0.100D+01
 Coeff:      0.834D-01 0.917D+00
 Gap=     0.326 Goal=   None    Shift=    0.000
 Gap=     0.331 Goal=   None    Shift=    0.000
 RMSDP=2.06D-04 MaxDP=2.46D-03 DE=-1.53D-04 OVMax= 5.54D-03

 Cycle   3  Pass 0  IDiag  1:
 E= -199.912783729463     Delta-E=       -0.000034720931 Rises=F Damp=F
 DIIS: error= 4.30D-04 at cycle   3 NSaved=   3.
 NSaved= 3 IEnMin= 3 EnMin= -199.912783729463     IErMin= 3 ErrMin= 4.30D-04
 ErrMax= 4.30D-04  0.00D+00 EMaxC= 1.00D-01 BMatC= 2.91D-05 BMatP= 5.77D-05
 IDIUse=3 WtCom= 9.96D-01 WtEn= 4.30D-03
 Coeff-Com: -0.187D+00 0.426D+00 0.761D+00
 Coeff-En:   0.000D+00 0.000D+00 0.100D+01
 Coeff:     -0.186D+00 0.424D+00 0.762D+00
 Gap=     0.325 Goal=   None    Shift=    0.000
 Gap=     0.330 Goal=   None    Shift=    0.000
 RMSDP=1.53D-04 MaxDP=1.98D-03 DE=-3.47D-05 OVMax= 4.03D-03

 Cycle   4  Pass 0  IDiag  1:
 E= -199.912802318308     Delta-E=       -0.000018588846 Rises=F Damp=F
 DIIS: error= 3.66D-04 at cycle   4 NSaved=   4.
 NSaved= 4 IEnMin= 4 EnMin= -199.912802318308     IErMin= 4 ErrMin= 3.66D-04
 ErrMax= 3.66D-04  0.00D+00 EMaxC= 1.00D-01 BMatC= 9.74D-06 BMatP= 2.91D-05
 IDIUse=3 WtCom= 9.96D-01 WtEn= 3.66D-03
 Coeff-Com: -0.459D-01-0.126D+00 0.316D+00 0.856D+00
 Coeff-En:   0.000D+00 0.000D+00 0.000D+00 0.100D+01
 Coeff:     -0.457D-01-0.126D+00 0.315D+00 0.857D+00
 Gap=     0.325 Goal=   None    Shift=    0.000
 Gap=     0.330 Goal=   None    Shift=    0.000
 RMSDP=1.03D-04 MaxDP=1.65D-03 DE=-1.86D-05 OVMax= 2.83D-03

 Cycle   5  Pass 0  IDiag  1:
 E= -199.912809776035     Delta-E=       -0.000007457727 Rises=F Damp=F
 DIIS: error= 1.76D-04 at cycle   5 NSaved=   5.
 NSaved= 5 IEnMin= 5 EnMin= -199.912809776035     IErMin= 5 ErrMin= 1.76D-04
 ErrMax= 1.76D-04  0.00D+00 EMaxC= 1.00D-01 BMatC= 3.30D-06 BMatP= 9.74D-06
 IDIUse=3 WtCom= 9.98D-01 WtEn= 1.76D-03
 Coeff-Com:  0.469D-01-0.270D+00-0.157D+00 0.331D+00 0.105D+01
 Coeff-En:   0.000D+00 0.000D+00 0.000D+00 0.000D+00 0.100D+01
 Coeff:      0.468D-01-0.270D+00-0.157D+00 0.331D+00 0.105D+01
 Gap=     0.326 Goal=   None    Shift=    0.000
 Gap=     0.329 Goal=   None    Shift=    0.000
 RMSDP=9.45D-05 MaxDP=1.23D-03 DE=-7.46D-06 OVMax= 2.39D-03

 Cycle   6  Pass 0  IDiag  1:
 E= -199.912814044391     Delta-E=       -0.000004268355 Rises=F Damp=F
 DIIS: error= 7.74D-05 at cycle   6 NSaved=   6.
 NSaved= 6 IEnMin= 6 EnMin= -199.912814044391     IErMin= 6 ErrMin= 7.74D-05
 ErrMax= 7.74D-05  0.00D+00 EMaxC= 1.00D-01 BMatC= 6.40D-07 BMatP= 3.30D-06
 IDIUse=1 WtCom= 1.00D+00 WtEn= 0.00D+00
 Coeff-Com: -0.215D-02 0.189D+00-0.129D-01-0.445D+00-0.364D+00 0.163D+01
 Coeff:     -0.215D-02 0.189D+00-0.129D-01-0.445D+00-0.364D+00 0.163D+01
 Gap=     0.326 Goal=   None    Shift=    0.000
 Gap=     0.330 Goal=   None    Shift=    0.000
 RMSDP=4.89D-05 MaxDP=7.47D-04 DE=-4.27D-06 OVMax= 1.22D-03

 Cycle   7  Pass 0  IDiag  1:
 E= -199.912815246663     Delta-E=       -0.000001202272 Rises=F Damp=F
 DIIS: error= 3.23D-05 at cycle   7 NSaved=   7.
 NSaved= 7 IEnMin= 7 EnMin= -199.912815246663     IErMin= 7 ErrMin= 3.23D-05
 ErrMax= 3.23D-05  0.00D+00 EMaxC= 1.00D-01 BMatC= 1.06D-07 BMatP= 6.40D-07
 IDIUse=1 WtCom= 1.00D+00 WtEn= 0.00D+00
 Coeff-Com: -0.113D-01 0.693D-01 0.289D-01-0.118D+00-0.316D+00 0.157D+00
 Coeff-Com:  0.119D+01
 Coeff:     -0.113D-01 0.693D-01 0.289D-01-0.118D+00-0.316D+00 0.157D+00
 Coeff:      0.119D+01
 Gap=     0.326 Goal=   None    Shift=    0.000
 Gap=     0.330 Goal=   None    Shift=    0.000
 RMSDP=2.85D-05 MaxDP=4.19D-04 DE=-1.20D-06 OVMax= 7.55D-04

 Cycle   8  Pass 0  IDiag  1:
 E= -199.912815452967     Delta-E=       -0.000000206304 Rises=F Damp=F
 DIIS: error= 4.07D-06 at cycle   8 NSaved=   8.
 NSaved= 8 IEnMin= 8 EnMin= -199.912815452967     IErMin= 8 ErrMin= 4.07D-06
 ErrMax= 4.07D-06  0.00D+00 EMaxC= 1.00D-01 BMatC= 2.38D-09 BMatP= 1.06D-07
 IDIUse=1 WtCom= 1.00D+00 WtEn= 0.00D+00
 Coeff-Com:  0.924D-03-0.151D-01 0.355D-02 0.315D-01 0.362D-01-0.968D-01
 Coeff-Com: -0.966D-01 0.114D+01
 Coeff:      0.924D-03-0.151D-01 0.355D-02 0.315D-01 0.362D-01-0.968D-01
 Coeff:     -0.966D-01 0.114D+01
 Gap=     0.326 Goal=   None    Shift=    0.000
 Gap=     0.330 Goal=   None    Shift=    0.000
 RMSDP=2.08D-06 MaxDP=3.33D-05 DE=-2.06D-07 OVMax= 5.19D-05

 Initial convergence to 1.0D-05 achieved.  Increase integral accuracy.
 Cycle   9  Pass 1  IDiag  1:
 E= -199.912815460419     Delta-E=       -0.000000007451 Rises=F Damp=F
 DIIS: error= 5.20D-05 at cycle   1 NSaved=   1.
 NSaved= 1 IEnMin= 1 EnMin= -199.912815460419     IErMin= 1 ErrMin= 5.20D-05
 ErrMax= 5.20D-05  0.00D+00 EMaxC= 1.00D-01 BMatC= 1.95D-07 BMatP= 1.95D-07
 IDIUse=1 WtCom= 1.00D+00 WtEn= 0.00D+00
 Coeff-Com:  0.100D+01
 Coeff:      0.100D+01
 Gap=     0.326 Goal=   None    Shift=    0.000
 Gap=     0.330 Goal=   None    Shift=    0.000
 RMSDP=2.08D-06 MaxDP=3.33D-05 DE=-7.45D-09 OVMax= 9.61D-05

 Cycle  10  Pass 1  IDiag  1:
 E= -199.912815500676     Delta-E=       -0.000000040257 Rises=F Damp=F
 DIIS: error= 1.92D-05 at cycle   2 NSaved=   2.
 NSaved= 2 IEnMin= 2 EnMin= -199.912815500676     IErMin= 2 ErrMin= 1.92D-05
 ErrMax= 1.92D-05  0.00D+00 EMaxC= 1.00D-01 BMatC= 4.40D-08 BMatP= 1.95D-07
 IDIUse=1 WtCom= 1.00D+00 WtEn= 0.00D+00
 Coeff-Com:  0.277D+00 0.723D+00
 Coeff:      0.277D+00 0.723D+00
 Gap=     0.326 Goal=   None    Shift=    0.000
 Gap=     0.330 Goal=   None    Shift=    0.000
 RMSDP=2.76D-06 MaxDP=2.41D-05 DE=-4.03D-08 OVMax= 5.17D-05

 Cycle  11  Pass 1  IDiag  1:
 E= -199.912815507063     Delta-E=       -0.000000006387 Rises=F Damp=F
 DIIS: error= 7.33D-06 at cycle   3 NSaved=   3.
 NSaved= 3 IEnMin= 3 EnMin= -199.912815507063     IErMin= 3 ErrMin= 7.33D-06
 ErrMax= 7.33D-06  0.00D+00 EMaxC= 1.00D-01 BMatC= 5.21D-09 BMatP= 4.40D-08
 IDIUse=1 WtCom= 1.00D+00 WtEn= 0.00D+00
 Coeff-Com: -0.298D-01 0.221D+00 0.809D+00
 Coeff:     -0.298D-01 0.221D+00 0.809D+00
 Gap=     0.326 Goal=   None    Shift=    0.000
 Gap=     0.330 Goal=   None    Shift=    0.000
 RMSDP=9.81D-07 MaxDP=1.11D-05 DE=-6.39D-09 OVMax= 2.07D-05

 Cycle  12  Pass 1  IDiag  1:
 E= -199.912815508169     Delta-E=       -0.000000001106 Rises=F Damp=F
 DIIS: error= 1.54D-06 at cycle   4 NSaved=   4.
 NSaved= 4 IEnMin= 4 EnMin= -199.912815508169     IErMin= 4 ErrMin= 1.54D-06
 ErrMax= 1.54D-06  0.00D+00 EMaxC= 1.00D-01 BMatC= 2.23D-10 BMatP= 5.21D-09
 IDIUse=1 WtCom= 1.00D+00 WtEn= 0.00D+00
 Coeff-Com: -0.123D-01 0.189D-01 0.181D+00 0.812D+00
 Coeff:     -0.123D-01 0.189D-01 0.181D+00 0.812D+00
 Gap=     0.326 Goal=   None    Shift=    0.000
 Gap=     0.330 Goal=   None    Shift=    0.000
 RMSDP=2.59D-07 MaxDP=3.93D-06 DE=-1.11D-09 OVMax= 7.33D-06

 Cycle  13  Pass 1  IDiag  1:
 E= -199.912815508309     Delta-E=       -0.000000000140 Rises=F Damp=F
 DIIS: error= 7.94D-07 at cycle   5 NSaved=   5.
 NSaved= 5 IEnMin= 5 EnMin= -199.912815508309     IErMin= 5 ErrMin= 7.94D-07
 ErrMax= 7.94D-07  0.00D+00 EMaxC= 1.00D-01 BMatC= 6.58D-11 BMatP= 2.23D-10
 IDIUse=1 WtCom= 1.00D+00 WtEn= 0.00D+00
 Coeff-Com:  0.945D-02-0.433D-01-0.191D+00-0.496D+00 0.172D+01
 Coeff:      0.945D-02-0.433D-01-0.191D+00-0.496D+00 0.172D+01
 Gap=     0.326 Goal=   None    Shift=    0.000
 Gap=     0.330 Goal=   None    Shift=    0.000
 RMSDP=4.46D-07 MaxDP=6.97D-06 DE=-1.40D-10 OVMax= 1.14D-05

 Cycle  14  Pass 1  IDiag  1:
 E= -199.912815508434     Delta-E=       -0.000000000125 Rises=F Damp=F
 DIIS: error= 5.25D-07 at cycle   6 NSaved=   6.
 NSaved= 6 IEnMin= 6 EnMin= -199.912815508434     IErMin= 6 ErrMin= 5.25D-07
 ErrMax= 5.25D-07  0.00D+00 EMaxC= 1.00D-01 BMatC= 3.17D-11 BMatP= 6.58D-11
 IDIUse=1 WtCom= 1.00D+00 WtEn= 0.00D+00
 Coeff-Com:  0.781D-02-0.283D-01-0.145D+00-0.476D+00 0.880D+00 0.762D+00
 Coeff:      0.781D-02-0.283D-01-0.145D+00-0.476D+00 0.880D+00 0.762D+00
 Gap=     0.326 Goal=   None    Shift=    0.000
 Gap=     0.330 Goal=   None    Shift=    0.000
 RMSDP=2.15D-07 MaxDP=3.50D-06 DE=-1.25D-10 OVMax= 6.63D-06

 Cycle  15  Pass 1  IDiag  1:
 E= -199.912815508465     Delta-E=       -0.000000000031 Rises=F Damp=F
 DIIS: error= 3.58D-07 at cycle   7 NSaved=   7.
 NSaved= 7 IEnMin= 7 EnMin= -199.912815508465     IErMin= 7 ErrMin= 3.58D-07
 ErrMax= 3.58D-07  0.00D+00 EMaxC= 1.00D-01 BMatC= 1.05D-11 BMatP= 3.17D-11
 IDIUse=1 WtCom= 1.00D+00 WtEn= 0.00D+00
 Coeff-Com: -0.221D-02 0.130D-01 0.533D-01 0.382D-01-0.545D+00 0.394D+00
 Coeff-Com:  0.105D+01
 Coeff:     -0.221D-02 0.130D-01 0.533D-01 0.382D-01-0.545D+00 0.394D+00
 Coeff:      0.105D+01
 Gap=     0.326 Goal=   None    Shift=    0.000
 Gap=     0.330 Goal=   None    Shift=    0.000
 RMSDP=1.84D-07 MaxDP=3.01D-06 DE=-3.14D-11 OVMax= 4.07D-06

 Cycle  16  Pass 1  IDiag  1:
 E= -199.912815508476     Delta-E=       -0.000000000011 Rises=F Damp=F
 DIIS: error= 1.27D-07 at cycle   8 NSaved=   8.
 NSaved= 8 IEnMin= 8 EnMin= -199.912815508476     IErMin= 8 ErrMin= 1.27D-07
 ErrMax= 1.27D-07  0.00D+00 EMaxC= 1.00D-01 BMatC= 8.82D-13 BMatP= 1.05D-11
 IDIUse=1 WtCom= 1.00D+00 WtEn= 0.00D+00
 Coeff-Com: -0.178D-03-0.257D-02 0.428D-02-0.407D-02 0.172D+00-0.274D+00
 Coeff-Com: -0.462D+00 0.157D+01
 Coeff:     -0.178D-03-0.257D-02 0.428D-02-0.407D-02 0.172D+00-0.274D+00
 Coeff:     -0.462D+00 0.157D+01
 Gap=     0.326 Goal=   None    Shift=    0.000
 Gap=     0.330 Goal=   None    Shift=    0.000
 RMSDP=5.94D-08 MaxDP=7.89D-07 DE=-1.11D-11 OVMax= 1.44D-06

 Cycle  17  Pass 1  IDiag  1:
 E= -199.912815508477     Delta-E=       -0.000000000001 Rises=F Damp=F
 DIIS: error= 1.78D-08 at cycle   9 NSaved=   9.
 NSaved= 9 IEnMin= 9 EnMin= -199.912815508477     IErMin= 9 ErrMin= 1.78D-08
 ErrMax= 1.78D-08  0.00D+00 EMaxC= 1.00D-01 BMatC= 2.48D-14 BMatP= 8.82D-13
 IDIUse=1 WtCom= 1.00D+00 WtEn= 0.00D+00
 Coeff-Com:  0.786D-04-0.234D-03-0.161D-02-0.601D-02 0.539D-02 0.187D-01
 Coeff-Com:  0.957D-02-0.224D+00 0.120D+01
 Coeff:      0.786D-04-0.234D-03-0.161D-02-0.601D-02 0.539D-02 0.187D-01
 Coeff:      0.957D-02-0.224D+00 0.120D+01
 Gap=     0.326 Goal=   None    Shift=    0.000
 Gap=     0.330 Goal=   None    Shift=    0.000
 RMSDP=8.62D-09 MaxDP=1.08D-07 DE=-7.96D-13 OVMax= 2.32D-07

 SCF Done:  E(UM062X) =  -199.912815508     A.U. after   17 cycles
            NFock= 17  Conv=0.86D-08     -V/T= 2.0045
 <Sx>= 0.0000 <Sy>= 0.0000 <Sz>= 0.5000 <S**2>= 0.7952 S= 0.5224
 <L.S>= 0.000000000000E+00
 KE= 1.990231725251D+02 PE=-5.451538931210D+02 EE= 1.126703121605D+02
 Annihilation of the first spin contaminant:
 S**2 before annihilation     0.7952,   after     0.7500
 Leave Link  502 at Wed Oct  7 13:29:55 2020, MaxMem=  2684354560 cpu:              23.3 elap:               2.3
 (Enter /udrive/faculty/rpeverati/g16/g16/l508.exe)
 QCSCF skips out because SCF is already converged.
 Leave Link  508 at Wed Oct  7 13:29:56 2020, MaxMem=  2684354560 cpu:               0.4 elap:               0.4
 (Enter /udrive/faculty/rpeverati/g16/g16/l701.exe)
 ... and contract with generalized density number  0.
 Compute integral first derivatives.
 Leave Link  701 at Wed Oct  7 13:29:56 2020, MaxMem=  2684354560 cpu:               3.6 elap:               0.6
 (Enter /udrive/faculty/rpeverati/g16/g16/l702.exe)
 L702 exits ... SP integral derivatives will be done elsewhere.
 Leave Link  702 at Wed Oct  7 13:29:57 2020, MaxMem=  2684354560 cpu:               1.6 elap:               0.4
 (Enter /udrive/faculty/rpeverati/g16/g16/l703.exe)
 Integral derivatives from FoFJK, PRISM(SPDF).
 Compute integral first derivatives, UseDBF=F ICtDFT=           0.
 Calling FoFJK, ICntrl=      2127 FMM=F ISym2X=1 I1Cent= 0 IOpClX= 1 NMat=1 NMatS=1 NMatT=0.
 FoFJK:  IHMeth= 1 ICntrl=    2127 DoSepK=F KAlg= 0 I1Cent=           0 FoldK=F
 IRaf=         0 NMat=       1 IRICut=       1 DoRegI=T DoRafI=F ISym2E= 1 IDoP0=0 IntGTp=1.
 FoFCou: FMM=F IPFlag=           0 FMFlag=      100000 FMFlg1=         800
         NFxFlg=           0 DoJE=F BraDBF=F KetDBF=F FulRan=T
         wScrn=  0.000000 ICntrl=      2127 IOpCl=  1 I1Cent=           0 NGrid=           0
         NMat0=    1 NMatS0=      1 NMatT0=    0 NMatD0=    1 NMtDS0=    0 NMtDT0=    0
 Petite list used in FoFCou.
 Leave Link  703 at Wed Oct  7 13:29:58 2020, MaxMem=  2684354560 cpu:               4.6 elap:               0.7
 (Enter /udrive/faculty/rpeverati/g16/g16/l716.exe)
 Dipole        = 0.00000000D+00-1.03226924D-32-5.87410809D-01
 ***** Axes restored to original set *****
 -------------------------------------------------------------------
 Center     Atomic                   Forces (Hartrees/Bohr)
 Number     Number              X              Y              Z
 -------------------------------------------------------------------
      1        1          -0.000000000   -0.000000000    0.016458871
      2        9           0.000000000    0.000000000   -0.027950716
      3        9          -0.000000000   -0.000000000    0.011491845
 -------------------------------------------------------------------
 Cartesian Forces:  Max     0.027950716 RMS     0.011470733
 Leave Link  716 at Wed Oct  7 13:29:59 2020, MaxMem=  2684354560 cpu:               1.7 elap:               0.5
 (Enter /udrive/faculty/rpeverati/g16/g16/l103.exe)

 GradGradGradGradGradGradGradGradGradGradGradGradGradGradGradGradGradGrad
 Berny optimization.
 Optmz: redundant internal coordinate code flag= 1
 Red2BG:  D1=  7.21D-01 OD1=  3.33D-16 B2RMS=  0.00D+00 IAprox=1
 Red2BG is reusing G-inverse.
 Internal  Forces:  Max     0.016458871 RMS     0.010036893
 Search for a saddle point.
 Step number   2 out of a maximum of   50
 All quantities printed in internal units (Hartrees-Bohrs-Radians)
 Swapping is turned off.
 Update second derivatives using D2CorX and points    1    2
 The second derivative matrix:
                          R1        R2        A1        A2
           R1          -0.05762
           R2           0.14826   0.27622
           A1          -0.00000   0.00000   0.00230
           A2           0.00000  -0.00000   0.00000   0.00230
 ITU=  0  0
 Eigenvectors of the second derivative matrix:
                           1         2         3         4
     Eigenvalues --    -0.11395   0.00230   0.00230   0.33255
   1         R1        -0.93479   0.00000  -0.00000  -0.35521
   2         R2         0.35521   0.00000   0.00000  -0.93479
   3         A1         0.00000   1.00000   0.00000   0.00000
   4         A2        -0.00000   0.00000   1.00000  -0.00000
 RLam0= 3.23D-03.
 Iter=   1 RLamda= 0.00000000D+00 Sum=-7.20846440D-05.
 Iter=   2 RLamda=-7.20846440D-05 Sum=-7.20690221D-05.
 Iter=   3 RLamda=-7.20690221D-05 Sum=-7.20690255D-05.
 RFO step:  Lambda0=3.234036565D-03 Lambda=-7.20690221D-05.
 Linear search not attempted -- option 19 set.
 Maximum step size (   0.100) exceeded in Quadratic search.
    -- Step size scaled by   0.600
 Iteration  1 RMS(Cart)=  0.03509178 RMS(Int)=  0.00000000
 Iteration  2 RMS(Cart)=  0.00000000 RMS(Int)=  0.00000000
 ITry= 1 IFail=0 DXMaxC= 5.51D-02 DCOld= 1.00D+10 DXMaxT= 1.00D-01 DXLimC= 3.00D+00 Rises=F
 ClnCor:  largest displacement from symmetrization is 3.64D-13 for atom     2.
 Variable       Old X    -DE/DX   Delta X   Delta X   Delta X     New X
                                 (Linear)    (Quad)   (Total)
    R1        2.97962  -0.01646   0.00000   0.09625   0.09625   3.07587
    R2        2.79611   0.01149   0.00000  -0.02713  -0.02713   2.76898
    A1        3.14159  -0.00000   0.00000  -0.00000   0.00000   3.14159
    A2        3.14159   0.00000   0.00000   0.00000   0.00000   3.14159
         Item               Value     Threshold  Converged?
 Maximum Force            0.016459     0.000450     NO 
 RMS     Force            0.010037     0.000300     NO 
 Maximum Displacement     0.055122     0.001800     NO 
 RMS     Displacement     0.035092     0.001200     NO 
 Predicted change in Energy= 1.343573D-03
 Lowest energy point so far.  Saving SCF results.
 Largest change from initial coordinates is atom    2       0.005 Angstoms.
 GradGradGradGradGradGradGradGradGradGradGradGradGradGradGradGradGradGrad

 Leave Link  103 at Wed Oct  7 13:29:59 2020, MaxMem=  2684354560 cpu:               1.4 elap:               0.5
 (Enter /udrive/faculty/rpeverati/g16/g16/l202.exe)
                          Input orientation:                          
 ---------------------------------------------------------------------
 Center     Atomic      Atomic             Coordinates (Angstroms)
 Number     Number       Type             X           Y           Z
 ---------------------------------------------------------------------
      1          1           0        0.000000    0.000000   -2.234664
      2          9           0        0.000000    0.000000   -0.606986
      3          9           0        0.000000    0.000000    0.858294
 ---------------------------------------------------------------------
                    Distance matrix (angstroms):
                    1          2          3
     1  H    0.000000
     2  F    1.627678   0.000000
     3  F    3.092958   1.465280   0.000000
 Stoichiometry    F2H(2)
 Framework group  C*V[C*(HFF)]
 Deg. of freedom     2
 Full point group                 C*V     NOp   4
 RotChk:  IX=0 Diff= 0.00D+00
 Largest Abelian subgroup         C2V     NOp   4
 Largest concise Abelian subgroup C1      NOp   1
                         Standard orientation:                         
 ---------------------------------------------------------------------
 Center     Atomic      Atomic             Coordinates (Angstroms)
 Number     Number       Type             X           Y           Z
 ---------------------------------------------------------------------
      1          1           0        0.000000    0.000000   -2.236091
      2          9           0        0.000000    0.000000   -0.608413
      3          9           0        0.000000    0.000000    0.856867
 ---------------------------------------------------------------------
 Rotational constants (GHZ):           0.0000000          19.5392337          19.5392337
 Leave Link  202 at Wed Oct  7 13:30:00 2020, MaxMem=  2684354560 cpu:               2.0 elap:               0.5
 (Enter /udrive/faculty/rpeverati/g16/g16/l301.exe)
 Standard basis: 6-31G(d) (5D, 7F)
 Ernie: Thresh=  0.10000D-02 Tol=  0.10000D-05 Strict=F.
 There are    18 symmetry adapted cartesian basis functions of A1  symmetry.
 There are     2 symmetry adapted cartesian basis functions of A2  symmetry.
 There are     6 symmetry adapted cartesian basis functions of B1  symmetry.
 There are     6 symmetry adapted cartesian basis functions of B2  symmetry.
 There are    16 symmetry adapted basis functions of A1  symmetry.
 There are     2 symmetry adapted basis functions of A2  symmetry.
 There are     6 symmetry adapted basis functions of B1  symmetry.
 There are     6 symmetry adapted basis functions of B2  symmetry.
    30 basis functions,    60 primitive gaussians,    32 cartesian basis functions
    10 alpha electrons        9 beta electrons
       nuclear repulsion energy        33.7184987463 Hartrees.
 IExCor= 4336 DFT=T Ex+Corr=M062X ExCW=0 ScaHFX=  0.540000
 ScaDFX=  1.000000  1.000000  1.000000  1.000000 ScalE2=  1.000000  1.000000
 IRadAn=      5 IRanWt=     -1 IRanGd=            0 ICorTp=0 IEmpDi=  4
 NAtoms=    3 NActive=    3 NUniq=    3 SFac= 1.00D+00 NAtFMM=   60 NAOKFM=F Big=F
 Integral buffers will be    131072 words long.
 Raffenetti 2 integral format.
 Two-electron integral symmetry is turned on.
 Leave Link  301 at Wed Oct  7 13:30:01 2020, MaxMem=  2684354560 cpu:               1.9 elap:               0.6
 (Enter /udrive/faculty/rpeverati/g16/g16/l302.exe)
 NPDir=0 NMtPBC=     1 NCelOv=     1 NCel=       1 NClECP=     1 NCelD=      1
         NCelK=      1 NCelE2=     1 NClLst=     1 CellRange=     0.0.
 One-electron integrals computed using PRISM.
 One-electron integral symmetry used in STVInt
 NBasis=    30 RedAO= T EigKep=  3.70D-02  NBF=    16     2     6     6
 NBsUse=    30 1.00D-06 EigRej= -1.00D+00 NBFU=    16     2     6     6
 Precomputing XC quadrature grid using
 IXCGrd= 4 IRadAn=           5 IRanWt=          -1 IRanGd=           0 AccXCQ= 0.00D+00.
 Generated NRdTot=       0 NPtTot=           0 NUsed=           0 NTot=          32
 NSgBfM=    32    32    32    32    32 MxSgAt=     3 MxSgA2=     3.
 Leave Link  302 at Wed Oct  7 13:30:02 2020, MaxMem=  2684354560 cpu:               3.7 elap:               0.7
 (Enter /udrive/faculty/rpeverati/g16/g16/l303.exe)
 DipDrv:  MaxL=1.
 Leave Link  303 at Wed Oct  7 13:30:03 2020, MaxMem=  2684354560 cpu:               1.5 elap:               0.4
 (Enter /udrive/faculty/rpeverati/g16/g16/l401.exe)
 Initial guess from the checkpoint file:  "MN_52_hf2ts_BH76_M062X_631Gs.chk"
 SCF N**3 symmetry information disabled.
 B after Tr=     0.000000    0.000000   -0.000000
         Rot=    1.000000    0.000000    0.000000    0.000000 Ang=   0.00 deg.
 Guess basis will be translated and rotated to current coordinates.
 JPrj=2 DoOrth=T DoCkMO=T.
 Initial guess orbital symmetries:
 Alpha Orbitals:
       Occupied  (SG) (SG) (SG) (SG) (SG) (PI) (PI) (PI) (PI) (SG)
       Virtual   (SG) (SG) (PI) (PI) (SG) (PI) (PI) (SG) (SG) (PI)
                 (PI) (DLTA) (DLTA) (SG) (SG) (DLTA) (DLTA) (PI)
                 (PI) (SG)
 Beta  Orbitals:
       Occupied  (SG) (SG) (SG) (SG) (SG) (PI) (PI) (PI) (PI)
       Virtual   (SG) (SG) (SG) (PI) (PI) (SG) (PI) (PI) (SG) (SG)
                 (PI) (PI) (DLTA) (DLTA) (SG) (DLTA) (DLTA) (SG)
                 (PI) (PI) (SG)
 The electronic state of the initial guess is 2-SG.
 Initial guess <Sx>= 0.0000 <Sy>= 0.0000 <Sz>= 0.5000 <S**2>= 0.7955 S= 0.5225
 Generating alternative initial guess.
 ExpMin= 1.61D-01 ExpMax= 7.00D+03 ExpMxC= 1.05D+03 IAcc=2 IRadAn=         4 AccDes= 0.00D+00
 Harris functional with IExCor= 1009 and IRadAn=       4 diagonalized for initial guess.
 HarFok:  IExCor= 1009 AccDes= 0.00D+00 IRadAn=         4 IDoV= 1 UseB2=F ITyADJ=14
 ICtDFT=  3500011 ScaDFX=  1.000000  1.000000  1.000000  1.000000
 FoFCou: FMM=F IPFlag=           0 FMFlag=      100000 FMFlg1=           0
         NFxFlg=           0 DoJE=T BraDBF=F KetDBF=T FulRan=T
         wScrn=  0.000000 ICntrl=       500 IOpCl=  0 I1Cent=   200000004 NGrid=           0
         NMat0=    1 NMatS0=      1 NMatT0=    0 NMatD0=    1 NMtDS0=    0 NMtDT0=    0
 Petite list used in FoFCou.
 Harris En= -199.816704283273    
 Leave Link  401 at Wed Oct  7 13:30:04 2020, MaxMem=  2684354560 cpu:               4.8 elap:               0.7
 (Enter /udrive/faculty/rpeverati/g16/g16/l502.exe)
 Keep R1 and R2 ints in memory in symmetry-blocked form, NReq=10469180.
 FoFCou: FMM=F IPFlag=           0 FMFlag=           0 FMFlg1=           0
         NFxFlg=           0 DoJE=F BraDBF=F KetDBF=F FulRan=T
         wScrn=  0.000000 ICntrl=       600 IOpCl=  0 I1Cent=           0 NGrid=           0
         NMat0=    1 NMatS0=    465 NMatT0=    0 NMatD0=    1 NMtDS0=    0 NMtDT0=    0
 Petite list used in FoFCou.
 UHF open shell SCF:
 Using DIIS extrapolation, IDIIS=  1040.
 NGot=  2684354560 LenX=  2684288269 LenY=  2684286804
 Requested convergence on RMS density matrix=1.00D-08 within 120 cycles.
 Requested convergence on MAX density matrix=1.00D-06.
 Requested convergence on             energy=1.00D-06.
 No special actions if energy rises.
 Integral accuracy reduced to 1.0D-05 until final iterations.

 Cycle   1  Pass 0  IDiag  1:
 E= -199.910669441059    
 DIIS: error= 2.64D-03 at cycle   1 NSaved=   1.
 NSaved= 1 IEnMin= 1 EnMin= -199.910669441059     IErMin= 1 ErrMin= 2.64D-03
 ErrMax= 2.64D-03  0.00D+00 EMaxC= 1.00D-01 BMatC= 6.73D-04 BMatP= 6.73D-04
 IDIUse=3 WtCom= 9.74D-01 WtEn= 2.64D-02
 Coeff-Com:  0.100D+01
 Coeff-En:   0.100D+01
 Coeff:      0.100D+01
 Gap=     0.328 Goal=   None    Shift=    0.000
 Gap=     0.330 Goal=   None    Shift=    0.000
 GapD=    0.328 DampG=1.000 DampE=1.000 DampFc=1.0000 IDamp=-1.
 RMSDP=9.07D-04 MaxDP=1.31D-02              OVMax= 2.81D-02

 Cycle   2  Pass 0  IDiag  1:
 E= -199.911262009353     Delta-E=       -0.000592568294 Rises=F Damp=F
 DIIS: error= 1.67D-03 at cycle   2 NSaved=   2.
 NSaved= 2 IEnMin= 2 EnMin= -199.911262009353     IErMin= 2 ErrMin= 1.67D-03
 ErrMax= 1.67D-03  0.00D+00 EMaxC= 1.00D-01 BMatC= 2.18D-04 BMatP= 6.73D-04
 IDIUse=3 WtCom= 9.83D-01 WtEn= 1.67D-02
 Coeff-Com:  0.122D-01 0.988D+00
 Coeff-En:   0.000D+00 0.100D+01
 Coeff:      0.120D-01 0.988D+00
 Gap=     0.325 Goal=   None    Shift=    0.000
 Gap=     0.334 Goal=   None    Shift=    0.000
 RMSDP=4.27D-04 MaxDP=4.99D-03 DE=-5.93D-04 OVMax= 1.10D-02

 Cycle   3  Pass 0  IDiag  1:
 E= -199.911416662042     Delta-E=       -0.000154652688 Rises=F Damp=F
 DIIS: error= 7.94D-04 at cycle   3 NSaved=   3.
 NSaved= 3 IEnMin= 3 EnMin= -199.911416662042     IErMin= 3 ErrMin= 7.94D-04
 ErrMax= 7.94D-04  0.00D+00 EMaxC= 1.00D-01 BMatC= 9.27D-05 BMatP= 2.18D-04
 IDIUse=3 WtCom= 9.92D-01 WtEn= 7.94D-03
 Coeff-Com: -0.185D+00 0.402D+00 0.783D+00
 Coeff-En:   0.000D+00 0.000D+00 0.100D+01
 Coeff:     -0.183D+00 0.399D+00 0.785D+00
 Gap=     0.326 Goal=   None    Shift=    0.000
 Gap=     0.334 Goal=   None    Shift=    0.000
 RMSDP=3.02D-04 MaxDP=3.59D-03 DE=-1.55D-04 OVMax= 7.96D-03

 Cycle   4  Pass 0  IDiag  1:
 E= -199.911488197628     Delta-E=       -0.000071535586 Rises=F Damp=F
 DIIS: error= 7.59D-04 at cycle   4 NSaved=   4.
 NSaved= 4 IEnMin= 4 EnMin= -199.911488197628     IErMin= 4 ErrMin= 7.59D-04
 ErrMax= 7.59D-04  0.00D+00 EMaxC= 1.00D-01 BMatC= 3.89D-05 BMatP= 9.27D-05
 IDIUse=3 WtCom= 9.92D-01 WtEn= 7.59D-03
 Coeff-Com: -0.300D-01-0.136D+00 0.319D+00 0.847D+00
 Coeff-En:   0.000D+00 0.000D+00 0.000D+00 0.100D+01
 Coeff:     -0.297D-01-0.135D+00 0.316D+00 0.848D+00
 Gap=     0.326 Goal=   None    Shift=    0.000
 Gap=     0.334 Goal=   None    Shift=    0.000
 RMSDP=1.99D-04 MaxDP=3.40D-03 DE=-7.15D-05 OVMax= 5.01D-03

 Cycle   5  Pass 0  IDiag  1:
 E= -199.911519068973     Delta-E=       -0.000030871345 Rises=F Damp=F
 DIIS: error= 3.31D-04 at cycle   5 NSaved=   5.
 NSaved= 5 IEnMin= 5 EnMin= -199.911519068973     IErMin= 5 ErrMin= 3.31D-04
 ErrMax= 3.31D-04  0.00D+00 EMaxC= 1.00D-01 BMatC= 1.68D-05 BMatP= 3.89D-05
 IDIUse=3 WtCom= 9.97D-01 WtEn= 3.31D-03
 Coeff-Com:  0.622D-01-0.316D+00-0.203D+00 0.460D+00 0.997D+00
 Coeff-En:   0.000D+00 0.000D+00 0.000D+00 0.000D+00 0.100D+01
 Coeff:      0.620D-01-0.315D+00-0.202D+00 0.458D+00 0.997D+00
 Gap=     0.325 Goal=   None    Shift=    0.000
 Gap=     0.335 Goal=   None    Shift=    0.000
 RMSDP=2.08D-04 MaxDP=2.76D-03 DE=-3.09D-05 OVMax= 5.36D-03

 Cycle   6  Pass 0  IDiag  1:
 E= -199.911540252327     Delta-E=       -0.000021183354 Rises=F Damp=F
 DIIS: error= 1.69D-04 at cycle   6 NSaved=   6.
 NSaved= 6 IEnMin= 6 EnMin= -199.911540252327     IErMin= 6 ErrMin= 1.69D-04
 ErrMax= 1.69D-04  0.00D+00 EMaxC= 1.00D-01 BMatC= 2.91D-06 BMatP= 1.68D-05
 IDIUse=3 WtCom= 9.98D-01 WtEn= 1.69D-03
 Coeff-Com: -0.220D-01 0.276D+00 0.107D-01-0.600D+00-0.547D+00 0.188D+01
 Coeff-En:   0.000D+00 0.000D+00 0.000D+00 0.000D+00 0.000D+00 0.100D+01
 Coeff:     -0.219D-01 0.275D+00 0.107D-01-0.599D+00-0.547D+00 0.188D+01
 Gap=     0.324 Goal=   None    Shift=    0.000
 Gap=     0.335 Goal=   None    Shift=    0.000
 RMSDP=1.25D-04 MaxDP=1.88D-03 DE=-2.12D-05 OVMax= 3.22D-03

 Cycle   7  Pass 0  IDiag  1:
 E= -199.911546359023     Delta-E=       -0.000006106696 Rises=F Damp=F
 DIIS: error= 5.43D-05 at cycle   7 NSaved=   7.
 NSaved= 7 IEnMin= 7 EnMin= -199.911546359023     IErMin= 7 ErrMin= 5.43D-05
 ErrMax= 5.43D-05  0.00D+00 EMaxC= 1.00D-01 BMatC= 2.26D-07 BMatP= 2.91D-06
 IDIUse=1 WtCom= 1.00D+00 WtEn= 0.00D+00
 Coeff-Com: -0.129D-01 0.672D-01 0.172D-01-0.149D+00-0.184D+00 0.233D+00
 Coeff-Com:  0.103D+01
 Coeff:     -0.129D-01 0.672D-01 0.172D-01-0.149D+00-0.184D+00 0.233D+00
 Coeff:      0.103D+01
 Gap=     0.324 Goal=   None    Shift=    0.000
 Gap=     0.335 Goal=   None    Shift=    0.000
 RMSDP=4.23D-05 MaxDP=6.28D-04 DE=-6.11D-06 OVMax= 1.11D-03

 Cycle   8  Pass 0  IDiag  1:
 E= -199.911546782314     Delta-E=       -0.000000423290 Rises=F Damp=F
 DIIS: error= 9.69D-06 at cycle   8 NSaved=   8.
 NSaved= 8 IEnMin= 8 EnMin= -199.911546782314     IErMin= 8 ErrMin= 9.69D-06
 ErrMax= 9.69D-06  0.00D+00 EMaxC= 1.00D-01 BMatC= 9.67D-09 BMatP= 2.26D-07
 IDIUse=1 WtCom= 1.00D+00 WtEn= 0.00D+00
 Coeff-Com:  0.171D-02-0.141D-01-0.265D-02 0.281D-01 0.496D-01-0.112D+00
 Coeff-Com: -0.408D-01 0.109D+01
 Coeff:      0.171D-02-0.141D-01-0.265D-02 0.281D-01 0.496D-01-0.112D+00
 Coeff:     -0.408D-01 0.109D+01
 Gap=     0.324 Goal=   None    Shift=    0.000
 Gap=     0.335 Goal=   None    Shift=    0.000
 RMSDP=2.33D-06 MaxDP=2.78D-05 DE=-4.23D-07 OVMax= 5.45D-05

 Initial convergence to 1.0D-05 achieved.  Increase integral accuracy.
 Cycle   9  Pass 1  IDiag  1:
 E= -199.911540938212     Delta-E=        0.000005844102 Rises=F Damp=F
 DIIS: error= 4.81D-05 at cycle   1 NSaved=   1.
 NSaved= 1 IEnMin= 1 EnMin= -199.911540938212     IErMin= 1 ErrMin= 4.81D-05
 ErrMax= 4.81D-05  0.00D+00 EMaxC= 1.00D-01 BMatC= 1.89D-07 BMatP= 1.89D-07
 IDIUse=1 WtCom= 1.00D+00 WtEn= 0.00D+00
 Coeff-Com:  0.100D+01
 Coeff:      0.100D+01
 Gap=     0.324 Goal=   None    Shift=    0.000
 Gap=     0.335 Goal=   None    Shift=    0.000
 RMSDP=2.33D-06 MaxDP=2.78D-05 DE= 5.84D-06 OVMax= 1.07D-04

 Cycle  10  Pass 1  IDiag  1:
 E= -199.911540978100     Delta-E=       -0.000000039888 Rises=F Damp=F
 DIIS: error= 1.81D-05 at cycle   2 NSaved=   2.
 NSaved= 2 IEnMin= 2 EnMin= -199.911540978100     IErMin= 2 ErrMin= 1.81D-05
 ErrMax= 1.81D-05  0.00D+00 EMaxC= 1.00D-01 BMatC= 4.12D-08 BMatP= 1.89D-07
 IDIUse=1 WtCom= 1.00D+00 WtEn= 0.00D+00
 Coeff-Com:  0.268D+00 0.732D+00
 Coeff:      0.268D+00 0.732D+00
 Gap=     0.324 Goal=   None    Shift=    0.000
 Gap=     0.335 Goal=   None    Shift=    0.000
 RMSDP=2.50D-06 MaxDP=2.09D-05 DE=-3.99D-08 OVMax= 3.61D-05

 Cycle  11  Pass 1  IDiag  1:
 E= -199.911540983643     Delta-E=       -0.000000005544 Rises=F Damp=F
 DIIS: error= 6.10D-06 at cycle   3 NSaved=   3.
 NSaved= 3 IEnMin= 3 EnMin= -199.911540983643     IErMin= 3 ErrMin= 6.10D-06
 ErrMax= 6.10D-06  0.00D+00 EMaxC= 1.00D-01 BMatC= 3.92D-09 BMatP= 4.12D-08
 IDIUse=1 WtCom= 1.00D+00 WtEn= 0.00D+00
 Coeff-Com: -0.243D-01 0.208D+00 0.816D+00
 Coeff:     -0.243D-01 0.208D+00 0.816D+00
 Gap=     0.324 Goal=   None    Shift=    0.000
 Gap=     0.335 Goal=   None    Shift=    0.000
 RMSDP=8.22D-07 MaxDP=1.14D-05 DE=-5.54D-09 OVMax= 1.90D-05

 Cycle  12  Pass 1  IDiag  1:
 E= -199.911540984347     Delta-E=       -0.000000000704 Rises=F Damp=F
 DIIS: error= 1.39D-06 at cycle   4 NSaved=   4.
 NSaved= 4 IEnMin= 4 EnMin= -199.911540984347     IErMin= 4 ErrMin= 1.39D-06
 ErrMax= 1.39D-06  0.00D+00 EMaxC= 1.00D-01 BMatC= 2.29D-10 BMatP= 3.92D-09
 IDIUse=1 WtCom= 1.00D+00 WtEn= 0.00D+00
 Coeff-Com: -0.152D-01 0.518D-01 0.323D+00 0.641D+00
 Coeff:     -0.152D-01 0.518D-01 0.323D+00 0.641D+00
 Gap=     0.324 Goal=   None    Shift=    0.000
 Gap=     0.335 Goal=   None    Shift=    0.000
 RMSDP=1.58D-07 MaxDP=2.40D-06 DE=-7.04D-10 OVMax= 3.57D-06

 Cycle  13  Pass 1  IDiag  1:
[...]
 

 ---------------------------------------------------------------------------------

 No NMR shielding tensors so no spin-rotation constants.
 Leave Link  601 at Wed Oct  7 13:31:03 2020, MaxMem=  2684354560 cpu:               4.6 elap:               0.6
 (Enter /udrive/faculty/rpeverati/g16/g16/l701.exe)
 ... and contract with generalized density number  0.
 Compute integral second derivatives.
 Leave Link  701 at Wed Oct  7 13:31:04 2020, MaxMem=  2684354560 cpu:               3.6 elap:               0.6
 (Enter /udrive/faculty/rpeverati/g16/g16/l702.exe)
 L702 exits ... SP integral derivatives will be done elsewhere.
 Leave Link  702 at Wed Oct  7 13:31:05 2020, MaxMem=  2684354560 cpu:               2.0 elap:               0.6
 (Enter /udrive/faculty/rpeverati/g16/g16/l703.exe)
 Integral derivatives from FoFJK, PRISM(SPDF).
 Compute integral second derivatives, UseDBF=F ICtDFT=           0.
 Calling FoFJK, ICntrl=    100127 FMM=F ISym2X=1 I1Cent= 0 IOpClX= 1 NMat=1 NMatS=1 NMatT=0.
 FoFJK:  IHMeth= 1 ICntrl=  100127 DoSepK=F KAlg= 0 I1Cent=           0 FoldK=F
 IRaf=         0 NMat=       1 IRICut=       1 DoRegI=T DoRafI=F ISym2E= 1 IDoP0=0 IntGTp=1.
 FoFCou: FMM=F IPFlag=           0 FMFlag=      100000 FMFlg1=         800
         NFxFlg=           0 DoJE=F BraDBF=F KetDBF=F FulRan=T
         wScrn=  0.000000 ICntrl=    100127 IOpCl=  1 I1Cent=           0 NGrid=           0
         NMat0=    1 NMatS0=      1 NMatT0=    0 NMatD0=    1 NMtDS0=    0 NMtDT0=    0
 Petite list used in FoFCou.
 Leave Link  703 at Wed Oct  7 13:31:06 2020, MaxMem=  2684354560 cpu:               9.5 elap:               1.2
 (Enter /udrive/faculty/rpeverati/g16/g16/l716.exe)
 Dipole        = 0.00000000D+00 1.36591340D-32-3.49944416D-01
 Polarizability= 2.87424527D+00-2.15268882D-16 2.87424527D+00
                 1.85103776D-12-1.02136599D-12 2.84303795D+01
 Full mass-weighted force constant matrix:
 Low frequencies ----1053.3536   -7.0344   -7.0344   -0.0017    0.0007    0.0007
 Low frequencies ---  246.2749  246.2749  964.3172
 ******    1 imaginary frequencies (negative Signs) ****** 
 Diagonal vibrational polarizability:
        2.3088957       2.3088957      14.7647943
 Harmonic frequencies (cm**-1), IR intensities (KM/Mole), Raman scattering
 activities (A**4/AMU), depolarization ratios for plane and unpolarized
 incident light, reduced masses (AMU), force constants (mDyne/A),
 and normal coordinates:
                      1                      2                      3
                     SG                     PI                     PI
 Frequencies --  -1053.3536               246.2749               246.2749
 Red. masses --      1.4607                 1.3061                 1.3061
 Frc consts  --      0.9549                 0.0467                 0.0467
 IR Inten    --    584.1044                 5.2037                 5.2037
  Atom  AN      X      Y      Z        X      Y      Z        X      Y      Z
     1   1    -0.00   0.00   0.99     0.99   0.00   0.00    -0.00   0.99  -0.00
     2   9     0.00  -0.00  -0.14    -0.11  -0.00  -0.00     0.00  -0.11   0.00
     3   9    -0.00   0.00   0.08     0.06   0.00   0.00    -0.00   0.06  -0.00
                      4
                     SG
 Frequencies --    964.3172
 Red. masses --      2.9764
 Frc consts  --      1.6307
 IR Inten    --     20.6596
  Atom  AN      X      Y      Z
     1   1    -0.00   0.00  -0.94
     2   9     0.00  -0.00  -0.21
     3   9    -0.00   0.00   0.26

 -------------------
 - Thermochemistry -
 -------------------
 Temperature   298.150 Kelvin.  Pressure   1.00000 Atm.
 Atom     1 has atomic number  1 and mass   1.00783
 Atom     2 has atomic number  9 and mass  18.99840
 Atom     3 has atomic number  9 and mass  18.99840
 Molecular mass:    39.00463 amu.
 Principal axes and moments of inertia in atomic units:
                           1         2         3
     Eigenvalues --     0.00000  90.25543  90.25543
           X            0.00000   0.00000   1.00000
           Y            0.00000   1.00000   0.00000
           Z            1.00000   0.00000   0.00000
 This molecule is a prolate symmetric top.
 Rotational symmetry number  1.
 Rotational temperature (Kelvin)      0.95965
 Rotational constant (GHZ):          19.995929
    1 imaginary frequencies ignored.
 Zero-point vibrational energy       8714.0 (Joules/Mol)
                                    2.08270 (Kcal/Mol)
 Warning -- explicit consideration of   2 degrees of freedom as
           vibrations may cause significant error
 Vibrational temperatures:    354.33   354.33  1387.44
          (Kelvin)
 
 Zero-point correction=                           0.003319 (Hartree/Particle)
 Thermal correction to Energy=                    0.006705
 Thermal correction to Enthalpy=                  0.007649
 Thermal correction to Gibbs Free Energy=        -0.018627
 Sum of electronic and zero-point Energies=           -199.907989
 Sum of electronic and thermal Energies=              -199.904603
 Sum of electronic and thermal Enthalpies=            -199.903659
 Sum of electronic and thermal Free Energies=         -199.929935
 
                     E (Thermal)             CV                S
                      KCal/Mol        Cal/Mol-Kelvin    Cal/Mol-Kelvin
 Total                    4.208              8.924             55.303
 Electronic               0.000              0.000              1.377
 Translational            0.889              2.981             36.912
 Rotational               0.592              1.987             13.391
 Vibrational              2.726              3.956              3.622
 Vibration     1          0.661              1.769              1.757
 Vibration     2          0.661              1.769              1.757
                       Q            Log10(Q)             Ln(Q)
 Total Bot       0.369538D+09          8.567659         19.727764
 Total V=0       0.124247D+11         10.094286         23.242952
 Vib (Bot)       0.621127D-01         -1.206820         -2.778805
 Vib (Bot)    1  0.793884D+00         -0.100243         -0.230818
 Vib (Bot)    2  0.793884D+00         -0.100243         -0.230818
 Vib (V=0)       0.208837D+01          0.319807          0.736383
 Vib (V=0)    1  0.143822D+01          0.157825          0.363405
 Vib (V=0)    2  0.143822D+01          0.157825          0.363405
 Electronic      0.200000D+01          0.301030          0.693147
 Translational   0.957477D+07          6.981128         16.074642
 Rotational      0.310685D+03          2.492320          5.738780
 
                                                          TS search on BH76.
                                                             IR Spectrum
 
                                                                                                                                     
     9                                                                                              2                                
     6                                                                                              4                                
     4                                                                                              6                                
 
     X                                                                                              X                                
     X                                                                                              X                                
     X                                                                                              X                                
     X                                                                                              X                                
     X                                                                                              X                                
     X                                                                                              X                                
     X                                                                                              X                                
     X                                                                                              X                                
     X                                                                                              X                                
     X                                                                                              X                                
     X                                                                                                                               
     X                                                                                                                               
     X                                                                                                                               
     X                                                                                                                               
     X                                                                                                                               
     X                                                                                                                               
     X                                                                                                                               
     X                                                                                                                               
     X                                                                                                                               
     X                                                                                                                               
 
 ***** Axes restored to original set *****
 -------------------------------------------------------------------
 Center     Atomic                   Forces (Hartrees/Bohr)
 Number     Number              X              Y              Z
 -------------------------------------------------------------------
      1        1           0.000000000    0.000000000    0.000042762
      2        9          -0.000000000   -0.000000000   -0.000100567
      3        9           0.000000000    0.000000000    0.000057805
 -------------------------------------------------------------------
 Cartesian Forces:  Max     0.000100567 RMS     0.000041209
 Force constants in Cartesian coordinates: 
                1             2             3             4             5 
      1  0.175536D-02
      2  0.000000D+00  0.175536D-02
      3  0.000000D+00  0.000000D+00 -0.177683D-01
      4 -0.378772D-02  0.000000D+00  0.000000D+00  0.815033D-02
      5  0.000000D+00 -0.378772D-02  0.000000D+00  0.000000D+00  0.815033D-02
      6  0.000000D+00  0.000000D+00  0.117850D+00  0.000000D+00  0.000000D+00
      7  0.203236D-02  0.000000D+00  0.000000D+00 -0.436260D-02  0.000000D+00
      8  0.000000D+00  0.203236D-02  0.000000D+00  0.000000D+00 -0.436260D-02
      9  0.000000D+00  0.000000D+00 -0.100082D+00  0.000000D+00  0.000000D+00
                6             7             8             9 
      6 -0.607220D-02
      7  0.000000D+00  0.233024D-02
      8  0.000000D+00  0.000000D+00  0.233024D-02
      9 -0.111778D+00  0.000000D+00  0.000000D+00  0.211860D+00
 FormGI is forming the generalized inverse of G from B-inverse, IUseBI=4.
 Force constants in internal coordinates: 
                1             2             3             4 
      1 -0.177683D-01
      2  0.100082D+00  0.211860D+00
      3  0.000000D+00  0.000000D+00  0.173734D-01
      4  0.000000D+00  0.000000D+00  0.000000D+00  0.173734D-01
 Leave Link  716 at Wed Oct  7 13:31:07 2020, MaxMem=  2684354560 cpu:               1.4 elap:               0.6
 (Enter /udrive/faculty/rpeverati/g16/g16/l103.exe)

 GradGradGradGradGradGradGradGradGradGradGradGradGradGradGradGradGradGrad
 Berny optimization.
 Optmz: redundant internal coordinate code flag= 1
 Red2BG:  D1=  7.06D-01 OD1=  3.33D-16 B2RMS=  0.00D+00 IAprox=1
 Red2BG is reusing G-inverse.
 Internal  Forces:  Max     0.000057805 RMS     0.000035951
 Search for a local minimum.
 Step number   1 out of a maximum of    2
 All quantities printed in internal units (Hartrees-Bohrs-Radians)
 Second derivative matrix not updated -- analytic derivatives used.
 The second derivative matrix:
                          R1        R2        A1        A2
           R1          -0.01777
           R2           0.10008   0.21186
           A1          -0.00000   0.00000   0.01737
           A2          -0.00000   0.00000   0.00000   0.01737
 ITU=  0
 Eigenvectors of the second derivative matrix:
                           1         2         3         4
     Eigenvalues --    -0.05527   0.01737   0.01737   0.24936
   1         R1        -0.93643  -0.00000  -0.00000  -0.35085
   2         R2         0.35085   0.00000   0.00000  -0.93643
   3         A1        -0.00000  -0.00074   1.00000  -0.00000
   4         A2        -0.00000   1.00000   0.00074  -0.00000
 Eigenvalue     1 is  -5.53D-02 should be greater than     0.000000 Eigenvector:
                          R1        R2        A2        A1
   1                   -0.93643   0.35085  -0.00000  -0.00000
 Angle between quadratic step and forces=  24.79 degrees.
 Linear search not attempted -- first point.
 Iteration  1 RMS(Cart)=  0.00034245 RMS(Int)=  0.00000000
 Iteration  2 RMS(Cart)=  0.00000000 RMS(Int)=  0.00000000
 ITry= 1 IFail=0 DXMaxC= 4.99D-04 DCOld= 1.00D+10 DXMaxT= 3.00D-01 DXLimC= 3.00D+00 Rises=F
 ClnCor:  largest displacement from symmetrization is 2.45D-13 for atom     2.
 Variable       Old X    -DE/DX   Delta X   Delta X   Delta X     New X
                                 (Linear)    (Quad)   (Total)
    R1        3.14759  -0.00004   0.00000  -0.00097  -0.00097   3.14662
    R2        2.72050   0.00006   0.00000   0.00053   0.00053   2.72103
    A1        3.14159   0.00000   0.00000   0.00000   0.00000   3.14159
    A2        3.14159  -0.00000   0.00000   0.00000   0.00000   3.14159
         Item               Value     Threshold  Converged?
 Maximum Force            0.000058     0.000450     YES
 RMS     Force            0.000036     0.000300     YES
 Maximum Displacement     0.000499     0.001800     YES
 RMS     Displacement     0.000342     0.001200     YES
 Predicted change in Energy=-1.018397D-07
 Optimization completed.
    -- Stationary point found.
                           ----------------------------
                           !   Optimized Parameters   !
                           ! (Angstroms and Degrees)  !
 --------------------------                            --------------------------
 ! Name  Definition              Value          Derivative Info.                !
 --------------------------------------------------------------------------------
 ! R1    R(1,2)                  1.6656         -DE/DX =    0.0                 !
 ! R2    R(2,3)                  1.4396         -DE/DX =    0.0001              !
 ! A1    L(1,2,3,-1,-1)        180.0            -DE/DX =    0.0                 !
 ! A2    L(1,2,3,-2,-2)        180.0            -DE/DX =    0.0                 !
 --------------------------------------------------------------------------------
 GradGradGradGradGradGradGradGradGradGradGradGradGradGradGradGradGradGrad

 Leave Link  103 at Wed Oct  7 13:31:08 2020, MaxMem=  2684354560 cpu:               1.8 elap:               0.6
 (Enter /udrive/faculty/rpeverati/g16/g16/l9999.exe)

 ----------------------------------------------------------------------

 Electric dipole moment (input orientation):
 (Debye = 10**-18 statcoulomb cm , SI units = C m)
                  (au)            (Debye)         (10**-30 SI)
   Tot        0.349944D+00      0.889470D+00      0.296695D+01
   x          0.000000D+00      0.000000D+00      0.000000D+00
   y          0.000000D+00      0.000000D+00      0.000000D+00
   z         -0.349944D+00     -0.889470D+00     -0.296695D+01

 Dipole polarizability, Alpha (input orientation).
 (esu units = cm**3 , SI units = C**2 m**2 J**-1)
 Alpha(0;0):
               (au)            (10**-24 esu)      (10**-40 SI)
   iso        0.113930D+02      0.168826D+01      0.187844D+01
   aniso      0.255561D+02      0.378703D+01      0.421364D+01
   xx         0.287425D+01      0.425919D+00      0.473899D+00
   yx         0.000000D+00      0.000000D+00      0.000000D+00
   yy         0.287425D+01      0.425919D+00      0.473899D+00
   zx         0.000000D+00      0.000000D+00      0.000000D+00
   zy         0.000000D+00      0.000000D+00      0.000000D+00
   zz         0.284304D+02      0.421295D+01      0.468754D+01

 ----------------------------------------------------------------------

 Dipole orientation:
     1          0.00000000          0.00000000          4.25456195
     9          0.00000000          0.00000000          1.10697102
     9          0.00000000         -0.00000000         -1.61353297

 Electric dipole moment (dipole orientation):
 (Debye = 10**-18 statcoulomb cm , SI units = C m)
                  (au)            (Debye)         (10**-30 SI)
   Tot        0.349944D+00      0.889470D+00      0.296695D+01
   x          0.000000D+00      0.000000D+00      0.000000D+00
   y          0.000000D+00      0.000000D+00      0.000000D+00
   z          0.349944D+00      0.889470D+00      0.296695D+01

 Dipole polarizability, Alpha (dipole orientation).
 (esu units = cm**3 , SI units = C**2 m**2 J**-1)
 Alpha(0;0):
               (au)            (10**-24 esu)      (10**-40 SI)
   iso        0.113930D+02      0.168826D+01      0.187844D+01
   aniso      0.255561D+02      0.378703D+01      0.421364D+01
   xx         0.287425D+01      0.425919D+00      0.473899D+00
   yx         0.000000D+00      0.000000D+00      0.000000D+00
   yy         0.287425D+01      0.425919D+00      0.473899D+00
   zx         0.000000D+00      0.000000D+00      0.000000D+00
   zy         0.000000D+00      0.000000D+00      0.000000D+00
   zz         0.284304D+02      0.421295D+01      0.468754D+01

 ----------------------------------------------------------------------

 Test job not archived.
 1\1\GINC-NODE60\Freq\UM062X\6-31G(d)\F2H1(2)\RPEVERATI\07-Oct-2020\0\\
 #P Freq M062X/6-31G* 5D 7F Integral=UltraFineGrid SCF=(NoSymm,XQC,MaxC
 yc=120) IOp(1/33=1) Geom=Check Guess=Read\\TS search on BH76.\\0,2\H,0
 .,0.,-2.2514172278\F,0.,0.,-0.5857838355\F,0.,0.,0.8538448772\\Version
 =ES64L-G16RevA.03\State=2-SG\HF=-199.911308\S2=0.770175\S2-1=0.\S2A=0.
 750004\RMSD=2.197e-10\RMSF=4.121e-05\ZeroPoint=0.003319\Thermal=0.0067
 052\Dipole=0.,0.,-0.3499444\DipoleDeriv=0.0810366,0.,0.,0.,0.0810366,0
 .,0.,0.,-0.5570448,-0.046274,0.,0.,0.,-0.046274,0.,0.,0.,1.9786753,-0.
 0347626,0.,0.,0.,-0.0347626,0.,0.,0.,-1.4216305\Polar=2.8742453,0.,2.8
 742453,0.,0.,28.4303795\Quadrupole=-0.6366078,-0.6366078,1.2732157,0.,
 0.,0.\PG=C*V [C*(H1F1F1)]\NImag=1\\0.00175536,0.,0.00175536,0.,0.,-0.0
 1776825,-0.00378772,0.,0.,0.00815033,0.,-0.00378772,0.,0.,0.00815033,0
 .,0.,0.11785027,0.,0.,-0.00607220,0.00203236,0.,0.,-0.00436260,0.,0.,0
 .00233024,0.,0.00203236,0.,0.,-0.00436260,0.,0.,0.00233024,0.,0.,-0.10
 008202,0.,0.,-0.11177807,0.,0.,0.21186008\\0.,0.,-0.00004276,0.,0.,0.0
 0010057,0.,0.,-0.00005781\\\@


 THIS CURIOUS WORLD WHICH WE INHABIT IS MORE WONDERFUL THAN IT IS CONVENIENT;
 MORE BEAUTIFUL THAN IT IS USEFUL;
 IT IS MORE TO BE ADMIRED THAN IT IS TO BE USED.

                                                                 -- THOREAU
 Job cpu time:       0 days  0 hours  1 minutes 50.3 seconds.
 Elapsed time:       0 days  0 hours  0 minutes 17.1 seconds.
 File lengths (MBytes):  RWF=      5 Int=      0 D2E=      0 Chk=      1 Scr=      1
 Normal termination of Gaussian 16 at Wed Oct  7 13:31:09 2020.
