 Entering Gaussian System, Link 0=g16
 Input=MN_67_n2o_BH76_M062X_631Gs.in
 Output=MN_67_n2o_BH76_M062X_631Gs.log
 Initial command:
 /udrive/faculty/rpeverati/g16/g16/l1.exe "/udrive/scratch-directories/gaussian09/rpeverati/Gau-720.inp" -scrdir="/udrive/scratch-directories/gaussian09/rpeverati/"
 Entering Link 1 = /udrive/faculty/rpeverati/g16/g16/l1.exe PID=       721.
  
 Copyright (c) 1988,1990,1992,1993,1995,1998,2003,2009,2016,
            Gaussian, Inc.  All Rights Reserved.
  
 This is part of the Gaussian(R) 16 program.  It is based on
 the Gaussian(R) 09 system (copyright 2009, Gaussian, Inc.),
 the Gaussian(R) 03 system (copyright 2003, Gaussian, Inc.),
 the Gaussian(R) 98 system (copyright 1998, Gaussian, Inc.),
 the Gaussian(R) 94 system (copyright 1995, Gaussian, Inc.),
 the Gaussian 92(TM) system (copyright 1992, Gaussian, Inc.),
 the Gaussian 90(TM) system (copyright 1990, Gaussian, Inc.),
 the Gaussian 88(TM) system (copyright 1988, Gaussian, Inc.),
 the Gaussian 86(TM) system (copyright 1986, Carnegie Mellon
 University), and the Gaussian 82(TM) system (copyright 1983,
 Carnegie Mellon University). Gaussian is a federally registered
 trademark of Gaussian, Inc.
  
 This software contains proprietary and confidential information,
 including trade secrets, belonging to Gaussian, Inc.
  
 This software is provided under written license and may be
 used, copied, transmitted, or stored only in accord with that
 written license.
  
 The following legend is applicable only to US Government
 contracts under FAR:
  
                    RESTRICTED RIGHTS LEGEND
  
 Use, reproduction and disclosure by the US Government is
 subject to restrictions as set forth in subparagraphs (a)
 and (c) of the Commercial Computer Software - Restricted
 Rights clause in FAR 52.227-19.
  
 Gaussian, Inc.
 340 Quinnipiac St., Bldg. 40, Wallingford CT 06492
  
  
 ---------------------------------------------------------------
 Warning -- This program may not be used in any manner that
 competes with the business of Gaussian, Inc. or will provide
 assistance to any competitor of Gaussian, Inc.  The licensee
 of this program is prohibited from giving any competitor of
 Gaussian, Inc. access to this program.  By using this program,
 the user acknowledges that Gaussian, Inc. is engaged in the
 business of creating and licensing software in the field of
 computational chemistry and represents and warrants to the
 licensee that it is not a competitor of Gaussian, Inc. and that
 it will not use this program in any manner prohibited above.
 ---------------------------------------------------------------
  

 Cite this work as:
 Gaussian 16, Revision A.03,
 M. J. Frisch, G. W. Trucks, H. B. Schlegel, G. E. Scuseria, 
 M. A. Robb, J. R. Cheeseman, G. Scalmani, V. Barone, 
 G. A. Petersson, H. Nakatsuji, X. Li, M. Caricato, A. V. Marenich, 
 J. Bloino, B. G. Janesko, R. Gomperts, B. Mennucci, H. P. Hratchian, 
 J. V. Ortiz, A. F. Izmaylov, J. L. Sonnenberg, D. Williams-Young, 
 F. Ding, F. Lipparini, F. Egidi, J. Goings, B. Peng, A. Petrone, 
 T. Henderson, D. Ranasinghe, V. G. Zakrzewski, J. Gao, N. Rega, 
 G. Zheng, W. Liang, M. Hada, M. Ehara, K. Toyota, R. Fukuda, 
 J. Hasegawa, M. Ishida, T. Nakajima, Y. Honda, O. Kitao, H. Nakai, 
 T. Vreven, K. Throssell, J. A. Montgomery, Jr., J. E. Peralta, 
 F. Ogliaro, M. J. Bearpark, J. J. Heyd, E. N. Brothers, K. N. Kudin, 
 V. N. Staroverov, T. A. Keith, R. Kobayashi, J. Normand, 
 K. Raghavachari, A. P. Rendell, J. C. Burant, S. S. Iyengar, 
 J. Tomasi, M. Cossi, J. M. Millam, M. Klene, C. Adamo, R. Cammi, 
 J. W. Ochterski, R. L. Martin, K. Morokuma, O. Farkas, 
 J. B. Foresman, and D. J. Fox, Gaussian, Inc., Wallingford CT, 2016.
 
 ******************************************
 Gaussian 16:  ES64L-G16RevA.03 25-Dec-2016
                 7-Oct-2020 
 ******************************************
 %NoSave
 %nproc=12
 Will use up to   12 processors via shared memory.
 %mem=20GB
 %chk=MN_67_n2o_BH76_M062X_631Gs
 ----------------------------------------------------------------------
 #P Opt(MaxCyc=100) M062X/6-31G* 5D 7F Integral=UltraFineGrid SCF=(NoSy
 mm,XQC,MaxCyc=120) IOp(1/33=1)
 ----------------------------------------------------------------------
 1/6=100,18=20,19=15,26=4,33=1,38=1/1,3;
 2/9=110,12=2,17=6,18=5,40=1/2;
 3/5=1,6=6,7=1,8=11,11=2,25=1,30=1,71=1,74=-55,75=-5/1,2,3;
 4/9=2/1;
 5/5=2,7=120,8=3,13=1,38=5/2,8;
 6/7=2,8=2,9=2,10=2,28=1/1;
 7//1,2,3,16;
 1/6=100,18=20,19=15,26=4,33=1/3(2);
 2/9=110/2;
 99//99;
 2/9=110/2;
 3/5=1,6=6,7=1,8=11,11=2,25=1,30=1,71=1,74=-55,75=-5/1,2,3;
 4/5=5,9=2,16=3,69=1/1;
 5/5=2,7=120,8=3,13=1,38=5/2,8;
 7//1,2,3,16;
 1/6=100,18=20,19=15,26=4,33=1/3(-5);
 2/9=110/2;
 6/7=2,8=2,9=2,10=2,19=2,28=1/1;
 99/9=1/99;
 Leave Link    1 at Wed Oct  7 13:30:24 2020, MaxMem=  2684354560 cpu:               7.1 elap:               0.7
 (Enter /udrive/faculty/rpeverati/g16/g16/l101.exe)
 ONIOM data not found on unit 2.
 ------------------
 TS search on BH76.
 ------------------
 TstMul:  ICh=     0
 TstMul:  Mul=     1
 TstMul:  ICh=     0
 TstMul:  Mul=     1
 Symbolic Z-matrix:
 Charge =  0 Multiplicity = 1
 N                     0.        0.       -1.19568 
 N                     0.        0.       -0.07511 
 O                     0.        0.        1.11194 
 
 RdStrC is calling ZToCFu for IStruc=1 NZ=     3.
 PrtBox:  NBox=     1 Levels=  1 BoxLen=    8.00 SMaxX=        4.36
          Shift=            0.000000            0.000000            2.259500
 Box      1 Number                   0 centers from      1 to      3:
 After GenITR:
 ITRead=  0  0  0
 MicOpt= -1 -1 -1
 ITRead=  0  0  0
 MicOpt= -1 -1 -1
 NAtoms=      3 NQM=        3 NQMF=       0 NMMI=      0 NMMIF=      0
                NMic=       0 NMicF=      0.
                    Isotopes and Nuclear Properties:
 (Nuclear quadrupole moments (NQMom) in fm**2, nuclear magnetic moments (NMagM)
  in nuclear magnetons)

  Atom         1           2           3
 IAtWgt=          14          14          16
 AtmWgt=  14.0030740  14.0030740  15.9949146
 NucSpn=           2           2           0
 AtZEff=   0.0000000   0.0000000   0.0000000
 NQMom=    2.0440000   2.0440000   0.0000000
 NMagM=    0.4037610   0.4037610   0.0000000
 AtZNuc=   7.0000000   7.0000000   8.0000000
 No MM parameters found.
 Leave Link  101 at Wed Oct  7 13:30:26 2020, MaxMem=  2684354560 cpu:              18.4 elap:               1.7
 (Enter /udrive/faculty/rpeverati/g16/g16/l103.exe)

 GradGradGradGradGradGradGradGradGradGradGradGradGradGradGradGradGradGrad
 Berny optimization.
 Optmz: redundant internal coordinate code flag= 1
 Initialization pass.
                           ----------------------------
                           !    Initial Parameters    !
                           ! (Angstroms and Degrees)  !
 --------------------------                            --------------------------
 ! Name  Definition              Value          Derivative Info.                !
 --------------------------------------------------------------------------------
 ! R1    R(1,2)                  1.1206         estimate D2E/DX2                !
 ! R2    R(2,3)                  1.187          estimate D2E/DX2                !
 ! A1    L(1,2,3,-1,-1)        180.0            estimate D2E/DX2                !
 ! A2    L(1,2,3,-2,-2)        180.0            estimate D2E/DX2                !
 --------------------------------------------------------------------------------
 Maximum allowed force set to 1.00D+20.
 Trust Radius=3.00D-01 FncErr=1.00D-07 GrdErr=1.00D-06 EigMax=2.50D+02 EigMin=1.00D-04
 Number of steps in this run=    100 maximum allowed number of steps=    100.
 GradGradGradGradGradGradGradGradGradGradGradGradGradGradGradGradGradGrad

 Leave Link  103 at Wed Oct  7 13:30:27 2020, MaxMem=  2684354560 cpu:               1.0 elap:               0.4
 (Enter /udrive/faculty/rpeverati/g16/g16/l202.exe)
                          Input orientation:                          
 ---------------------------------------------------------------------
 Center     Atomic      Atomic             Coordinates (Angstroms)
 Number     Number       Type             X           Y           Z
 ---------------------------------------------------------------------
      1          7           0        0.000000    0.000000   -1.195676
      2          7           0        0.000000    0.000000   -0.075111
      3          8           0        0.000000    0.000000    1.111939
 ---------------------------------------------------------------------
                    Distance matrix (angstroms):
                    1          2          3
     1  N    0.000000
     2  N    1.120565   0.000000
     3  O    2.307615   1.187050   0.000000
 Stoichiometry    N2O
 Framework group  C*V[C*(NNO)]
 Deg. of freedom     2
 Full point group                 C*V     NOp   4
 Largest Abelian subgroup         C2V     NOp   4
 Largest concise Abelian subgroup C1      NOp   1
                         Standard orientation:                         
 ---------------------------------------------------------------------
 Center     Atomic      Atomic             Coordinates (Angstroms)
 Number     Number       Type             X           Y           Z
 ---------------------------------------------------------------------
      1          7           0        0.000000    0.000000   -1.195676
      2          7           0        0.000000    0.000000   -0.075111
      3          8           0        0.000000    0.000000    1.111939
 ---------------------------------------------------------------------
 Rotational constants (GHZ):           0.0000000          12.6742064          12.6742064
 Leave Link  202 at Wed Oct  7 13:30:28 2020, MaxMem=  2684354560 cpu:               1.4 elap:               0.6
 (Enter /udrive/faculty/rpeverati/g16/g16/l301.exe)
 Standard basis: 6-31G(d) (5D, 7F)
 Ernie: Thresh=  0.10000D-02 Tol=  0.10000D-05 Strict=F.
 There are    24 symmetry adapted cartesian basis functions of A1  symmetry.
 There are     3 symmetry adapted cartesian basis functions of A2  symmetry.
 There are     9 symmetry adapted cartesian basis functions of B1  symmetry.
 There are     9 symmetry adapted cartesian basis functions of B2  symmetry.
 There are    21 symmetry adapted basis functions of A1  symmetry.
 There are     3 symmetry adapted basis functions of A2  symmetry.
 There are     9 symmetry adapted basis functions of B1  symmetry.
 There are     9 symmetry adapted basis functions of B2  symmetry.
    42 basis functions,    84 primitive gaussians,    45 cartesian basis functions
    11 alpha electrons       11 beta electrons
       nuclear repulsion energy        60.9459752883 Hartrees.
 IExCor= 4336 DFT=T Ex+Corr=M062X ExCW=0 ScaHFX=  0.540000
 ScaDFX=  1.000000  1.000000  1.000000  1.000000 ScalE2=  1.000000  1.000000
 IRadAn=      5 IRanWt=     -1 IRanGd=            0 ICorTp=0 IEmpDi=  4
 NAtoms=    3 NActive=    3 NUniq=    3 SFac= 1.00D+00 NAtFMM=   60 NAOKFM=F Big=F
 Integral buffers will be    131072 words long.
 Raffenetti 2 integral format.
 Two-electron integral symmetry is turned on.
 Leave Link  301 at Wed Oct  7 13:30:29 2020, MaxMem=  2684354560 cpu:               2.6 elap:               0.6
 (Enter /udrive/faculty/rpeverati/g16/g16/l302.exe)
 NPDir=0 NMtPBC=     1 NCelOv=     1 NCel=       1 NClECP=     1 NCelD=      1
         NCelK=      1 NCelE2=     1 NClLst=     1 CellRange=     0.0.
 One-electron integrals computed using PRISM.
 One-electron integral symmetry used in STVInt
 NBasis=    42 RedAO= T EigKep=  1.98D-03  NBF=    21     3     9     9
 NBsUse=    42 1.00D-06 EigRej= -1.00D+00 NBFU=    21     3     9     9
 Precomputing XC quadrature grid using
 IXCGrd= 4 IRadAn=           5 IRanWt=          -1 IRanGd=           0 AccXCQ= 0.00D+00.
 Generated NRdTot=       0 NPtTot=           0 NUsed=           0 NTot=          32
 NSgBfM=    45    45    45    45    45 MxSgAt=     3 MxSgA2=     3.
 Leave Link  302 at Wed Oct  7 13:30:30 2020, MaxMem=  2684354560 cpu:               3.5 elap:               0.5
 (Enter /udrive/faculty/rpeverati/g16/g16/l303.exe)
 DipDrv:  MaxL=1.
 Leave Link  303 at Wed Oct  7 13:30:31 2020, MaxMem=  2684354560 cpu:               1.5 elap:               0.5
 (Enter /udrive/faculty/rpeverati/g16/g16/l401.exe)
 SCF N**3 symmetry information disabled.
 ExpMin= 2.12D-01 ExpMax= 5.48D+03 ExpMxC= 8.25D+02 IAcc=3 IRadAn=         5 AccDes= 0.00D+00
 Harris functional with IExCor= 1009 and IRadAn=       5 diagonalized for initial guess.
 HarFok:  IExCor= 1009 AccDes= 0.00D+00 IRadAn=         5 IDoV= 1 UseB2=F ITyADJ=14
 ICtDFT=  3500011 ScaDFX=  1.000000  1.000000  1.000000  1.000000
 FoFCou: FMM=F IPFlag=           0 FMFlag=      100000 FMFlg1=           0
         NFxFlg=           0 DoJE=T BraDBF=F KetDBF=T FulRan=T
         wScrn=  0.000000 ICntrl=       500 IOpCl=  0 I1Cent=   200000004 NGrid=           0
         NMat0=    1 NMatS0=      1 NMatT0=    0 NMatD0=    1 NMtDS0=    0 NMtDT0=    0
 Petite list used in FoFCou.
 Harris En= -184.479021087521    
 JPrj=0 DoOrth=F DoCkMO=F.
 Initial guess orbital symmetries:
       Occupied  (SG) (SG) (SG) (SG) (SG) (SG) (PI) (PI) (SG) (PI)
                 (PI)
       Virtual   (PI) (PI) (SG) (SG) (PI) (PI) (SG) (SG) (SG) (PI)
                 (PI) (PI) (PI) (SG) (SG) (DLTA) (DLTA) (PI) (PI)
                 (DLTA) (DLTA) (SG) (DLTA) (DLTA) (PI) (PI) (SG)
                 (SG) (PI) (PI) (SG)
 The electronic state of the initial guess is 1-SG.
 Leave Link  401 at Wed Oct  7 13:30:32 2020, MaxMem=  2684354560 cpu:               4.5 elap:               0.7
 (Enter /udrive/faculty/rpeverati/g16/g16/l502.exe)
 Keep R1 ints in memory in symmetry-blocked form, NReq=10826548.
 FoFCou: FMM=F IPFlag=           0 FMFlag=           0 FMFlg1=           0
         NFxFlg=           0 DoJE=F BraDBF=F KetDBF=F FulRan=T
         wScrn=  0.000000 ICntrl=       600 IOpCl=  0 I1Cent=           0 NGrid=           0
         NMat0=    1 NMatS0=    903 NMatT0=    0 NMatD0=    1 NMtDS0=    0 NMtDT0=    0
 Petite list used in FoFCou.
 Closed shell SCF:
 Using DIIS extrapolation, IDIIS=  1040.
 NGot=  2684354560 LenX=  2684234880 LenY=  2684232414
 Requested convergence on RMS density matrix=1.00D-08 within 120 cycles.
 Requested convergence on MAX density matrix=1.00D-06.
 Requested convergence on             energy=1.00D-06.
 No special actions if energy rises.
 Integral accuracy reduced to 1.0D-05 until final iterations.

 Cycle   1  Pass 0  IDiag  1:
 E= -184.521682347266    
 DIIS: error= 4.55D-02 at cycle   1 NSaved=   1.
 NSaved= 1 IEnMin= 1 EnMin= -184.521682347266     IErMin= 1 ErrMin= 4.55D-02
 ErrMax= 4.55D-02  0.00D+00 EMaxC= 1.00D-01 BMatC= 9.25D-02 BMatP= 9.25D-02
 IDIUse=3 WtCom= 5.45D-01 WtEn= 4.55D-01
 Coeff-Com:  0.100D+01
 Coeff-En:   0.100D+01
 Coeff:      0.100D+01
 Gap=     0.394 Goal=   None    Shift=    0.000
 GapD=    0.394 DampG=1.000 DampE=0.500 DampFc=0.5000 IDamp=-1.
 Damping current iteration by 5.00D-01
 RMSDP=9.49D-03 MaxDP=1.08D-01              OVMax= 1.48D-01

 Cycle   2  Pass 0  IDiag  1:
 E= -184.543347575929     Delta-E=       -0.021665228663 Rises=F Damp=T
 DIIS: error= 1.55D-02 at cycle   2 NSaved=   2.
 NSaved= 2 IEnMin= 2 EnMin= -184.543347575929     IErMin= 2 ErrMin= 1.55D-02
 ErrMax= 1.55D-02  0.00D+00 EMaxC= 1.00D-01 BMatC= 8.99D-03 BMatP= 9.25D-02
 IDIUse=3 WtCom= 8.45D-01 WtEn= 1.55D-01
 Coeff-Com:  0.146D+00 0.854D+00
 Coeff-En:   0.275D+00 0.725D+00
 Coeff:      0.166D+00 0.834D+00
 Gap=     0.440 Goal=   None    Shift=    0.000
 RMSDP=2.24D-03 MaxDP=2.64D-02 DE=-2.17D-02 OVMax= 9.37D-02

 Cycle   3  Pass 0  IDiag  1:
 E= -184.580930449369     Delta-E=       -0.037582873440 Rises=F Damp=F
 DIIS: error= 6.45D-03 at cycle   3 NSaved=   3.
 NSaved= 3 IEnMin= 3 EnMin= -184.580930449369     IErMin= 3 ErrMin= 6.45D-03
 ErrMax= 6.45D-03  0.00D+00 EMaxC= 1.00D-01 BMatC= 2.18D-03 BMatP= 8.99D-03
 IDIUse=3 WtCom= 9.36D-01 WtEn= 6.45D-02
 Coeff-Com:  0.195D-01 0.278D+00 0.702D+00
 Coeff-En:   0.000D+00 0.000D+00 0.100D+01
 Coeff:      0.183D-01 0.260D+00 0.721D+00
 Gap=     0.455 Goal=   None    Shift=    0.000
 RMSDP=1.59D-03 MaxDP=1.77D-02 DE=-3.76D-02 OVMax= 3.14D-02

 Cycle   4  Pass 0  IDiag  1:
 E= -184.580403499837     Delta-E=        0.000526949532 Rises=F Damp=F
 DIIS: error= 8.51D-03 at cycle   4 NSaved=   4.
 NSaved= 4 IEnMin= 3 EnMin= -184.580930449369     IErMin= 3 ErrMin= 6.45D-03
 ErrMax= 8.51D-03  0.00D+00 EMaxC= 1.00D-01 BMatC= 2.90D-03 BMatP= 2.18D-03
 IDIUse=3 WtCom= 9.78D-02 WtEn= 9.02D-01
 Coeff-Com: -0.124D-01 0.329D-01 0.539D+00 0.441D+00
 Coeff-En:   0.000D+00 0.000D+00 0.549D+00 0.451D+00
 Coeff:     -0.121D-02 0.322D-02 0.548D+00 0.450D+00
 Gap=     0.448 Goal=   None    Shift=    0.000
 RMSDP=8.19D-04 MaxDP=9.44D-03 DE= 5.27D-04 OVMax= 1.57D-02

 Cycle   5  Pass 0  IDiag  1:
 E= -184.582668442640     Delta-E=       -0.002264942802 Rises=F Damp=F
 DIIS: error= 1.30D-03 at cycle   5 NSaved=   5.
 NSaved= 5 IEnMin= 5 EnMin= -184.582668442640     IErMin= 5 ErrMin= 1.30D-03
 ErrMax= 1.30D-03  0.00D+00 EMaxC= 1.00D-01 BMatC= 5.88D-05 BMatP= 2.18D-03
 IDIUse=3 WtCom= 9.87D-01 WtEn= 1.30D-02
 Coeff-Com:  0.962D-02-0.259D-01 0.131D+00 0.985D-01 0.786D+00
 Coeff-En:   0.000D+00 0.000D+00 0.000D+00 0.000D+00 0.100D+01
 Coeff:      0.950D-02-0.256D-01 0.130D+00 0.972D-01 0.789D+00
 Gap=     0.449 Goal=   None    Shift=    0.000
 RMSDP=1.04D-04 MaxDP=1.86D-03 DE=-2.26D-03 OVMax= 2.14D-03

 Cycle   6  Pass 0  IDiag  1:
 E= -184.582712739792     Delta-E=       -0.000044297153 Rises=F Damp=F
 DIIS: error= 1.60D-04 at cycle   6 NSaved=   6.
 NSaved= 6 IEnMin= 6 EnMin= -184.582712739792     IErMin= 6 ErrMin= 1.60D-04
 ErrMax= 1.60D-04  0.00D+00 EMaxC= 1.00D-01 BMatC= 6.79D-07 BMatP= 5.88D-05
 IDIUse=3 WtCom= 9.98D-01 WtEn= 1.60D-03
 Coeff-Com:  0.564D-03-0.238D-02-0.979D-02-0.182D-01 0.871D-01 0.943D+00
 Coeff-En:   0.000D+00 0.000D+00 0.000D+00 0.000D+00 0.000D+00 0.100D+01
 Coeff:      0.563D-03-0.237D-02-0.977D-02-0.182D-01 0.869D-01 0.943D+00
 Gap=     0.449 Goal=   None    Shift=    0.000
 RMSDP=1.75D-05 MaxDP=1.95D-04 DE=-4.43D-05 OVMax= 2.79D-04

 Cycle   7  Pass 0  IDiag  1:
 E= -184.582713346170     Delta-E=       -0.000000606378 Rises=F Damp=F
 DIIS: error= 3.33D-05 at cycle   7 NSaved=   7.
 NSaved= 7 IEnMin= 7 EnMin= -184.582713346170     IErMin= 7 ErrMin= 3.33D-05
 ErrMax= 3.33D-05  0.00D+00 EMaxC= 1.00D-01 BMatC= 2.07D-08 BMatP= 6.79D-07
 IDIUse=1 WtCom= 1.00D+00 WtEn= 0.00D+00
 Coeff-Com: -0.543D-03 0.152D-02-0.769D-02-0.834D-02-0.387D-01 0.438D-01
 Coeff-Com:  0.101D+01
 Coeff:     -0.543D-03 0.152D-02-0.769D-02-0.834D-02-0.387D-01 0.438D-01
 Coeff:      0.101D+01
 Gap=     0.449 Goal=   None    Shift=    0.000
 RMSDP=4.52D-06 MaxDP=5.72D-05 DE=-6.06D-07 OVMax= 5.95D-05

 Initial convergence to 1.0D-05 achieved.  Increase integral accuracy.
 Cycle   8  Pass 1  IDiag  1:
 E= -184.582711515862     Delta-E=        0.000001830308 Rises=F Damp=F
 DIIS: error= 1.17D-05 at cycle   1 NSaved=   1.
 NSaved= 1 IEnMin= 1 EnMin= -184.582711515862     IErMin= 1 ErrMin= 1.17D-05
 ErrMax= 1.17D-05  0.00D+00 EMaxC= 1.00D-01 BMatC= 3.91D-09 BMatP= 3.91D-09
 IDIUse=1 WtCom= 1.00D+00 WtEn= 0.00D+00
 Coeff-Com:  0.100D+01
 Coeff:      0.100D+01
 Gap=     0.449 Goal=   None    Shift=    0.000
 RMSDP=4.52D-06 MaxDP=5.72D-05 DE= 1.83D-06 OVMax= 2.21D-05

 Cycle   9  Pass 1  IDiag  1:
 E= -184.582711517279     Delta-E=       -0.000000001417 Rises=F Damp=F
 DIIS: error= 6.62D-06 at cycle   2 NSaved=   2.
 NSaved= 2 IEnMin= 2 EnMin= -184.582711517279     IErMin= 2 ErrMin= 6.62D-06
 ErrMax= 6.62D-06  0.00D+00 EMaxC= 1.00D-01 BMatC= 2.31D-09 BMatP= 3.91D-09
 IDIUse=1 WtCom= 1.00D+00 WtEn= 0.00D+00
 Coeff-Com:  0.403D+00 0.597D+00
 Coeff:      0.403D+00 0.597D+00
 Gap=     0.449 Goal=   None    Shift=    0.000
 RMSDP=1.28D-06 MaxDP=1.59D-05 DE=-1.42D-09 OVMax= 2.43D-05

 Cycle  10  Pass 1  IDiag  1:
 E= -184.582711517888     Delta-E=       -0.000000000609 Rises=F Damp=F
 DIIS: error= 5.24D-06 at cycle   3 NSaved=   3.
 NSaved= 3 IEnMin= 3 EnMin= -184.582711517888     IErMin= 3 ErrMin= 5.24D-06
 ErrMax= 5.24D-06  0.00D+00 EMaxC= 1.00D-01 BMatC= 1.64D-09 BMatP= 2.31D-09
 IDIUse=1 WtCom= 1.00D+00 WtEn= 0.00D+00
 Coeff-Com: -0.388D-01 0.464D+00 0.575D+00
 Coeff:     -0.388D-01 0.464D+00 0.575D+00
 Gap=     0.449 Goal=   None    Shift=    0.000
 RMSDP=6.56D-07 MaxDP=7.20D-06 DE=-6.09D-10 OVMax= 1.33D-05

 Cycle  11  Pass 1  IDiag  1:
 E= -184.582711519167     Delta-E=       -0.000000001279 Rises=F Damp=F
 DIIS: error= 9.91D-07 at cycle   4 NSaved=   4.
 NSaved= 4 IEnMin= 4 EnMin= -184.582711519167     IErMin= 4 ErrMin= 9.91D-07
 ErrMax= 9.91D-07  0.00D+00 EMaxC= 1.00D-01 BMatC= 6.09D-11 BMatP= 1.64D-09
 IDIUse=1 WtCom= 1.00D+00 WtEn= 0.00D+00
 Coeff-Com: -0.480D-01 0.258D+00 0.343D+00 0.447D+00
 Coeff:     -0.480D-01 0.258D+00 0.343D+00 0.447D+00
 Gap=     0.449 Goal=   None    Shift=    0.000
 RMSDP=1.21D-07 MaxDP=1.24D-06 DE=-1.28D-09 OVMax= 1.41D-06

 Cycle  12  Pass 1  IDiag  1:
 E= -184.582711519209     Delta-E=       -0.000000000042 Rises=F Damp=F
 DIIS: error= 9.83D-08 at cycle   5 NSaved=   5.
 NSaved= 5 IEnMin= 5 EnMin= -184.582711519209     IErMin= 5 ErrMin= 9.83D-08
 ErrMax= 9.83D-08  0.00D+00 EMaxC= 1.00D-01 BMatC= 6.04D-13 BMatP= 6.09D-11
 IDIUse=1 WtCom= 1.00D+00 WtEn= 0.00D+00
 Coeff-Com: -0.112D-02-0.177D-01-0.297D-01 0.237D-01 0.102D+01
 Coeff:     -0.112D-02-0.177D-01-0.297D-01 0.237D-01 0.102D+01
 Gap=     0.449 Goal=   None    Shift=    0.000
 RMSDP=2.35D-08 MaxDP=3.07D-07 DE=-4.18D-11 OVMax= 2.95D-07

 Cycle  13  Pass 1  IDiag  1:
 E= -184.582711519210     Delta-E=       -0.000000000001 Rises=F Damp=F
 DIIS: error= 5.01D-08 at cycle   6 NSaved=   6.
 NSaved= 6 IEnMin= 6 EnMin= -184.582711519210     IErMin= 6 ErrMin= 5.01D-08
 ErrMax= 5.01D-08  0.00D+00 EMaxC= 1.00D-01 BMatC= 6.62D-14 BMatP= 6.04D-13
 IDIUse=1 WtCom= 1.00D+00 WtEn= 0.00D+00
 Coeff-Com:  0.191D-02-0.162D-01-0.234D-01-0.234D-01 0.266D+00 0.795D+00
 Coeff:      0.191D-02-0.162D-01-0.234D-01-0.234D-01 0.266D+00 0.795D+00
 Gap=     0.449 Goal=   None    Shift=    0.000
 RMSDP=5.94D-09 MaxDP=6.74D-08 DE=-9.95D-13 OVMax= 7.01D-08

 SCF Done:  E(RM062X) =  -184.582711519     A.U. after   13 cycles
            NFock= 13  Conv=0.59D-08     -V/T= 2.0068
 KE= 1.833408466545D+02 PE=-5.544021584530D+02 EE= 1.255326249909D+02
 Leave Link  502 at Wed Oct  7 13:30:34 2020, MaxMem=  2684354560 cpu:              16.3 elap:               1.8
 (Enter /udrive/faculty/rpeverati/g16/g16/l508.exe)
 QCSCF skips out because SCF is already converged.
 Leave Link  508 at Wed Oct  7 13:30:35 2020, MaxMem=  2684354560 cpu:               0.4 elap:               0.4
 (Enter /udrive/faculty/rpeverati/g16/g16/l601.exe)
 Copying SCF densities to generalized density rwf, IOpCl= 0 IROHF=0.

 **********************************************************************

            Population analysis using the SCF density.

 **********************************************************************

 Orbital symmetries:
       Occupied  (SG) (SG) (SG) (SG) (SG) (SG) (PI) (PI) (SG) (PI)
                 (PI)
       Virtual   (PI) (PI) (SG) (SG) (PI) (PI) (SG) (SG) (PI) (PI)
                 (SG) (PI) (PI) (SG) (SG) (DLTA) (DLTA) (PI) (PI)
                 (DLTA) (DLTA) (SG) (DLTA) (DLTA) (PI) (PI) (SG)
                 (SG) (PI) (PI) (SG)
 The electronic state is 1-SG.
 Alpha  occ. eigenvalues --  -19.73646 -15.00642 -14.87096  -1.37174  -1.20377
 Alpha  occ. eigenvalues --   -0.68844  -0.65123  -0.65123  -0.55922  -0.40499
 Alpha  occ. eigenvalues --   -0.40499
 Alpha virt. eigenvalues --    0.04389   0.04389   0.20602   0.46374   0.64932
 Alpha virt. eigenvalues --    0.64932   0.66371   0.79298   0.80461   0.80461
 Alpha virt. eigenvalues --    0.82555   1.03273   1.03273   1.15092   1.38168
 Alpha virt. eigenvalues --    1.41091   1.41091   1.46084   1.46084   1.75590
 Alpha virt. eigenvalues --    1.75590   1.84738   2.06891   2.06891   2.16997
 Alpha virt. eigenvalues --    2.16997   2.62295   2.91576   2.98135   2.98135
 Alpha virt. eigenvalues --    3.29931
          Condensed to atoms (all electrons):
               1          2          3
     1  N    6.684367   0.509755  -0.104255
     2  N    0.509755   5.491301   0.433773
     3  O   -0.104255   0.433773   8.145785
 Mulliken charges:
               1
     1  N   -0.089868
     2  N    0.565170
     3  O   -0.475303
 Sum of Mulliken charges =  -0.00000
 Mulliken charges with hydrogens summed into heavy atoms:
               1
     1  N   -0.089868
     2  N    0.565170
     3  O   -0.475303
 Electronic spatial extent (au):  <R**2>=            107.6697
 Charge=             -0.0000 electrons
 Dipole moment (field-independent basis, Debye):
    X=              0.0000    Y=              0.0000    Z=             -0.2446  Tot=              0.2446
 Quadrupole moment (field-independent basis, Debye-Ang):
   XX=            -15.0531   YY=            -15.0531   ZZ=            -18.9458
   XY=             -0.0000   XZ=              0.0000   YZ=             -0.0000
 Traceless Quadrupole moment (field-independent basis, Debye-Ang):
   XX=              1.2976   YY=              1.2976   ZZ=             -2.5952
   XY=             -0.0000   XZ=              0.0000   YZ=             -0.0000
 Octapole moment (field-independent basis, Debye-Ang**2):
  XXX=              0.0000  YYY=              0.0000  ZZZ=              4.7948  XYY=              0.0000
  XXY=              0.0000  XXZ=              0.9715  XZZ=              0.0000  YZZ=              0.0000
  YYZ=              0.9715  XYZ=             -0.0000
 Hexadecapole moment (field-independent basis, Debye-Ang**3):
 XXXX=            -11.2309 YYYY=            -11.2309 ZZZZ=           -103.1669 XXXY=             -0.0000
 XXXZ=              0.0000 YYYX=             -0.0000 YYYZ=             -0.0000 ZZZX=              0.0000
 ZZZY=             -0.0000 XXYY=             -3.7436 XXZZ=            -18.5338 YYZZ=            -18.5338
 XXYZ=             -0.0000 YYXZ=              0.0000 ZZXY=             -0.0000
 N-N= 6.094597528829D+01 E-N=-5.544021604553D+02  KE= 1.833408466545D+02
 No NMR shielding tensors so no spin-rotation constants.
 Leave Link  601 at Wed Oct  7 13:30:36 2020, MaxMem=  2684354560 cpu:               4.3 elap:               0.7
 (Enter /udrive/faculty/rpeverati/g16/g16/l701.exe)
 ... and contract with generalized density number  0.
 Compute integral first derivatives.
 Leave Link  701 at Wed Oct  7 13:30:37 2020, MaxMem=  2684354560 cpu:               3.4 elap:               0.6
 (Enter /udrive/faculty/rpeverati/g16/g16/l702.exe)
 L702 exits ... SP integral derivatives will be done elsewhere.
 Leave Link  702 at Wed Oct  7 13:30:38 2020, MaxMem=  2684354560 cpu:               1.7 elap:               0.4
 (Enter /udrive/faculty/rpeverati/g16/g16/l703.exe)
 Integral derivatives from FoFJK, PRISM(SPDF).
 Compute integral first derivatives, UseDBF=F ICtDFT=           0.
 Calling FoFJK, ICntrl=      2127 FMM=F ISym2X=1 I1Cent= 0 IOpClX= 0 NMat=1 NMatS=1 NMatT=0.
 FoFJK:  IHMeth= 1 ICntrl=    2127 DoSepK=F KAlg= 0 I1Cent=           0 FoldK=F
 IRaf=         0 NMat=       1 IRICut=       1 DoRegI=T DoRafI=F ISym2E= 1 IDoP0=0 IntGTp=1.
 FoFCou: FMM=F IPFlag=           0 FMFlag=      100000 FMFlg1=         800
         NFxFlg=           0 DoJE=F BraDBF=F KetDBF=F FulRan=T
         wScrn=  0.000000 ICntrl=      2127 IOpCl=  0 I1Cent=           0 NGrid=           0
         NMat0=    1 NMatS0=      1 NMatT0=    0 NMatD0=    1 NMtDS0=    0 NMtDT0=    0
 Petite list used in FoFCou.
 Leave Link  703 at Wed Oct  7 13:30:39 2020, MaxMem=  2684354560 cpu:               4.5 elap:               0.8
 (Enter /udrive/faculty/rpeverati/g16/g16/l716.exe)
 Dipole        = 0.00000000D+00 3.92541034D-32-9.62145539D-02
 ***** Axes restored to original set *****
 -------------------------------------------------------------------
 Center     Atomic                   Forces (Hartrees/Bohr)
 Number     Number              X              Y              Z
 -------------------------------------------------------------------
      1        7           0.000000000    0.000000000   -0.005354479
      2        7          -0.000000000   -0.000000000    0.005211738
      3        8           0.000000000    0.000000000    0.000142741
 -------------------------------------------------------------------
 Cartesian Forces:  Max     0.005354479 RMS     0.002491163
 Leave Link  716 at Wed Oct  7 13:30:40 2020, MaxMem=  2684354560 cpu:               1.8 elap:               0.6
 (Enter /udrive/faculty/rpeverati/g16/g16/l103.exe)

 GradGradGradGradGradGradGradGradGradGradGradGradGradGradGradGradGradGrad
 Berny optimization.
 Optmz: redundant internal coordinate code flag= 1
 FormGI is forming the generalized inverse of G from B-inverse, IUseBI=4.
 Internal  Forces:  Max     0.005354479 RMS     0.002678191
 Search for a local minimum.
 Step number   1 out of a maximum of  100
 All quantities printed in internal units (Hartrees-Bohrs-Radians)
 RMS Force = .26782D-02 SwitMx=.10000D-02 MixMth= 1
 Mixed Optimization -- RFO/linear search
 Second derivative matrix not updated -- first step.
 The second derivative matrix:
                          R1        R2        A1        A2
           R1           1.57508
           R2           0.00000   1.11609
           A1           0.00000   0.00000   0.04112
           A2           0.00000   0.00000   0.00000   0.04112
 ITU=  0
 Eigenvectors of the second derivative matrix:
                           1         2         3         4
     Eigenvalues --     0.04112   0.04112   1.11609   1.57508
   1         R1         0.00000   0.00000  -0.00000  -1.00000
   2         R2         0.00000   0.00000   1.00000  -0.00000
   3         A1         0.00000   1.00000  -0.00000  -0.00000
   4         A2         1.00000   0.00000   0.00000   0.00000
 Iter=   1 RLamda= 0.00000000D+00 Sum=-1.82208185D-05.
 Iter=   2 RLamda=-1.82208185D-05 Sum=-1.82206076D-05.
 RFO step:  Lambda=-1.82208185D-05 EMin= 4.11172799D-02
 Linear search not attempted -- first point.
 Iteration  1 RMS(Cart)=  0.00141465 RMS(Int)=  0.00000000
 Iteration  2 RMS(Cart)=  0.00000000 RMS(Int)=  0.00000000
 ITry= 1 IFail=0 DXMaxC= 2.31D-03 DCOld= 1.00D+10 DXMaxT= 3.00D-01 DXLimC= 3.00D+00 Rises=F
 ClnCor:  largest displacement from symmetrization is 0.00D+00 for atom     0.
 Variable       Old X    -DE/DX   Delta X   Delta X   Delta X     New X
                                 (Linear)    (Quad)   (Total)
    R1        2.11756   0.00535   0.00000   0.00340   0.00340   2.12096
    R2        2.24320   0.00014   0.00000   0.00013   0.00013   2.24333
    A1        3.14159   0.00000   0.00000   0.00000   0.00000   3.14159
    A2        3.14159  -0.00000   0.00000  -0.00000   0.00000   3.14159
         Item               Value     Threshold  Converged?
 Maximum Force            0.005354     0.000450     NO 
 RMS     Force            0.002678     0.000300     NO 
 Maximum Displacement     0.002309     0.001800     NO 
 RMS     Displacement     0.001415     0.001200     NO 
 Predicted change in Energy=-9.110409D-06
 Lowest energy point so far.  Saving SCF results.
 Largest change from initial coordinates is atom    1       0.001 Angstoms.
 GradGradGradGradGradGradGradGradGradGradGradGradGradGradGradGradGradGrad

 Leave Link  103 at Wed Oct  7 13:30:41 2020, MaxMem=  2684354560 cpu:               4.5 elap:               0.7
 (Enter /udrive/faculty/rpeverati/g16/g16/l202.exe)
                          Input orientation:                          
 ---------------------------------------------------------------------
 Center     Atomic      Atomic             Coordinates (Angstroms)
 Number     Number       Type             X           Y           Z
 ---------------------------------------------------------------------
      1          7           0        0.000000    0.000000   -1.196898
      2          7           0        0.000000    0.000000   -0.074534
      3          8           0        0.000000    0.000000    1.112584
 ---------------------------------------------------------------------
                    Distance matrix (angstroms):
                    1          2          3
     1  N    0.000000
     2  N    1.122364   0.000000
     3  O    2.309481   1.187117   0.000000
 Stoichiometry    N2O
 Framework group  C*V[C*(NNO)]
 Deg. of freedom     2
 Full point group                 C*V     NOp   4
 RotChk:  IX=0 Diff= 0.00D+00
 Largest Abelian subgroup         C2V     NOp   4
 Largest concise Abelian subgroup C1      NOp   1
                         Standard orientation:                         
 ---------------------------------------------------------------------
 Center     Atomic      Atomic             Coordinates (Angstroms)
 Number     Number       Type             X           Y           Z
 ---------------------------------------------------------------------
      1          7           0        0.000000    0.000000   -1.196927
      2          7           0        0.000000    0.000000   -0.074563
      3          8           0        0.000000    0.000000    1.112554
 ---------------------------------------------------------------------
 Rotational constants (GHZ):           0.0000000          12.6543185          12.6543185
 Leave Link  202 at Wed Oct  7 13:30:42 2020, MaxMem=  2684354560 cpu:               1.4 elap:               0.5
 (Enter /udrive/faculty/rpeverati/g16/g16/l301.exe)
 Standard basis: 6-31G(d) (5D, 7F)
 Ernie: Thresh=  0.10000D-02 Tol=  0.10000D-05 Strict=F.
 There are    24 symmetry adapted cartesian basis functions of A1  symmetry.
 There are     3 symmetry adapted cartesian basis functions of A2  symmetry.
 There are     9 symmetry adapted cartesian basis functions of B1  symmetry.
 There are     9 symmetry adapted cartesian basis functions of B2  symmetry.
 There are    21 symmetry adapted basis functions of A1  symmetry.
 There are     3 symmetry adapted basis functions of A2  symmetry.
 There are     9 symmetry adapted basis functions of B1  symmetry.
 There are     9 symmetry adapted basis functions of B2  symmetry.
    42 basis functions,    84 primitive gaussians,    45 cartesian basis functions
    11 alpha electrons       11 beta electrons
       nuclear repulsion energy        60.8970845480 Hartrees.
 IExCor= 4336 DFT=T Ex+Corr=M062X ExCW=0 ScaHFX=  0.540000
 ScaDFX=  1.000000  1.000000  1.000000  1.000000 ScalE2=  1.000000  1.000000
 IRadAn=      5 IRanWt=     -1 IRanGd=            0 ICorTp=0 IEmpDi=  4
 NAtoms=    3 NActive=    3 NUniq=    3 SFac= 1.00D+00 NAtFMM=   60 NAOKFM=F Big=F
 Integral buffers will be    131072 words long.
 Raffenetti 2 integral format.
 Two-electron integral symmetry is turned on.
 Leave Link  301 at Wed Oct  7 13:30:43 2020, MaxMem=  2684354560 cpu:               1.8 elap:               0.5
 (Enter /udrive/faculty/rpeverati/g16/g16/l302.exe)
 NPDir=0 NMtPBC=     1 NCelOv=     1 NCel=       1 NClECP=     1 NCelD=      1
         NCelK=      1 NCelE2=     1 NClLst=     1 CellRange=     0.0.
 One-electron integrals computed using PRISM.
 One-electron integral symmetry used in STVInt
 NBasis=    42 RedAO= T EigKep=  1.99D-03  NBF=    21     3     9     9
 NBsUse=    42 1.00D-06 EigRej= -1.00D+00 NBFU=    21     3     9     9
 Precomputing XC quadrature grid using
 IXCGrd= 4 IRadAn=           5 IRanWt=          -1 IRanGd=           0 AccXCQ= 0.00D+00.
 Generated NRdTot=       0 NPtTot=           0 NUsed=           0 NTot=          32
 NSgBfM=    45    45    45    45    45 MxSgAt=     3 MxSgA2=     3.
 Leave Link  302 at Wed Oct  7 13:30:44 2020, MaxMem=  2684354560 cpu:               3.4 elap:               0.7
 (Enter /udrive/faculty/rpeverati/g16/g16/l303.exe)
 DipDrv:  MaxL=1.
 Leave Link  303 at Wed Oct  7 13:30:45 2020, MaxMem=  2684354560 cpu:               1.5 elap:               0.6
 (Enter /udrive/faculty/rpeverati/g16/g16/l401.exe)
 Initial guess from the checkpoint file:  "MN_67_n2o_BH76_M062X_631Gs.chk"
 SCF N**3 symmetry information disabled.
 B after Tr=     0.000000    0.000000    0.000000
         Rot=    1.000000    0.000000    0.000000    0.000000 Ang=   0.00 deg.
 Guess basis will be translated and rotated to current coordinates.
 JPrj=2 DoOrth=T DoCkMO=T.
 Initial guess orbital symmetries:
       Occupied  (SG) (SG) (SG) (SG) (SG) (SG) (PI) (PI) (SG) (PI)
                 (PI)
       Virtual   (PI) (PI) (SG) (SG) (PI) (PI) (SG) (SG) (PI) (PI)
                 (SG) (PI) (PI) (SG) (SG) (DLTA) (DLTA) (PI) (PI)
                 (DLTA) (DLTA) (SG) (DLTA) (DLTA) (PI) (PI) (SG)
                 (SG) (PI) (PI) (SG)
 The electronic state of the initial guess is 1-SG.
 Leave Link  401 at Wed Oct  7 13:30:46 2020, MaxMem=  2684354560 cpu:               2.7 elap:               0.8
 (Enter /udrive/faculty/rpeverati/g16/g16/l502.exe)
 Keep R1 ints in memory in symmetry-blocked form, NReq=10826548.
 FoFCou: FMM=F IPFlag=           0 FMFlag=           0 FMFlg1=           0
         NFxFlg=           0 DoJE=F BraDBF=F KetDBF=F FulRan=T
         wScrn=  0.000000 ICntrl=       600 IOpCl=  0 I1Cent=           0 NGrid=           0
         NMat0=    1 NMatS0=    903 NMatT0=    0 NMatD0=    1 NMtDS0=    0 NMtDT0=    0
 Petite list used in FoFCou.
 Closed shell SCF:
 Using DIIS extrapolation, IDIIS=  1040.
 NGot=  2684354560 LenX=  2684234880 LenY=  2684232414
 Requested convergence on RMS density matrix=1.00D-08 within 120 cycles.
 Requested convergence on MAX density matrix=1.00D-06.
 Requested convergence on             energy=1.00D-06.
 No special actions if energy rises.

 Cycle   1  Pass 1  IDiag  1:
 E= -184.582718326928    
 DIIS: error= 2.40D-04 at cycle   1 NSaved=   1.
 NSaved= 1 IEnMin= 1 EnMin= -184.582718326928     IErMin= 1 ErrMin= 2.40D-04
 ErrMax= 2.40D-04  0.00D+00 EMaxC= 1.00D-01 BMatC= 2.58D-06 BMatP= 2.58D-06
 IDIUse=3 WtCom= 9.98D-01 WtEn= 2.40D-03
 Coeff-Com:  0.100D+01
 Coeff-En:   0.100D+01
 Coeff:      0.100D+01
 Gap=     0.448 Goal=   None    Shift=    0.000
 RMSDP=7.28D-05 MaxDP=7.70D-04              OVMax= 5.97D-04

 Cycle   2  Pass 1  IDiag  1:
 E= -184.582720807969     Delta-E=       -0.000002481041 Rises=F Damp=F
 DIIS: error= 1.04D-04 at cycle   2 NSaved=   2.
 NSaved= 2 IEnMin= 2 EnMin= -184.582720807969     IErMin= 2 ErrMin= 1.04D-04
 ErrMax= 1.04D-04  0.00D+00 EMaxC= 1.00D-01 BMatC= 6.13D-07 BMatP= 2.58D-06
 IDIUse=3 WtCom= 9.99D-01 WtEn= 1.04D-03
 Coeff-Com:  0.262D+00 0.738D+00
 Coeff-En:   0.000D+00 0.100D+01
 Coeff:      0.262D+00 0.738D+00
 Gap=     0.448 Goal=   None    Shift=    0.000
 RMSDP=2.49D-05 MaxDP=2.49D-04 DE=-2.48D-06 OVMax= 4.85D-04

 Cycle   3  Pass 1  IDiag  1:
 E= -184.582720821963     Delta-E=       -0.000000013994 Rises=F Damp=F
 DIIS: error= 1.50D-04 at cycle   3 NSaved=   3.
 NSaved= 3 IEnMin= 3 EnMin= -184.582720821963     IErMin= 2 ErrMin= 1.04D-04
 ErrMax= 1.50D-04  0.00D+00 EMaxC= 1.00D-01 BMatC= 7.15D-07 BMatP= 6.13D-07
 IDIUse=3 WtCom= 4.49D-01 WtEn= 5.51D-01
 Coeff-Com:  0.218D-01 0.519D+00 0.459D+00
 Coeff-En:   0.000D+00 0.494D+00 0.506D+00
 Coeff:      0.979D-02 0.506D+00 0.485D+00
 Gap=     0.448 Goal=   None    Shift=    0.000
 RMSDP=1.64D-05 MaxDP=1.71D-04 DE=-1.40D-08 OVMax= 2.91D-04

 Cycle   4  Pass 1  IDiag  1:
 E= -184.582721350821     Delta-E=       -0.000000528858 Rises=F Damp=F
 DIIS: error= 2.71D-05 at cycle   4 NSaved=   4.
 NSaved= 4 IEnMin= 4 EnMin= -184.582721350821     IErMin= 4 ErrMin= 2.71D-05
 ErrMax= 2.71D-05  0.00D+00 EMaxC= 1.00D-01 BMatC= 4.55D-08 BMatP= 6.13D-07
 IDIUse=1 WtCom= 1.00D+00 WtEn= 0.00D+00
 Coeff-Com: -0.244D-01 0.160D+00 0.248D+00 0.616D+00
 Coeff:     -0.244D-01 0.160D+00 0.248D+00 0.616D+00
 Gap=     0.448 Goal=   None    Shift=    0.000
 RMSDP=4.14D-06 MaxDP=5.37D-05 DE=-5.29D-07 OVMax= 7.82D-05

 Cycle   5  Pass 1  IDiag  1:
 E= -184.582721385059     Delta-E=       -0.000000034238 Rises=F Damp=F
 DIIS: error= 1.34D-05 at cycle   5 NSaved=   5.
 NSaved= 5 IEnMin= 5 EnMin= -184.582721385059     IErMin= 5 ErrMin= 1.34D-05
 ErrMax= 1.34D-05  0.00D+00 EMaxC= 1.00D-01 BMatC= 8.40D-09 BMatP= 4.55D-08
 IDIUse=1 WtCom= 1.00D+00 WtEn= 0.00D+00
 Coeff-Com: -0.165D-01 0.344D-01 0.857D-01 0.365D+00 0.532D+00
 Coeff:     -0.165D-01 0.344D-01 0.857D-01 0.365D+00 0.532D+00
 Gap=     0.448 Goal=   None    Shift=    0.000
 RMSDP=1.35D-06 MaxDP=1.56D-05 DE=-3.42D-08 OVMax= 2.05D-05

 Cycle   6  Pass 1  IDiag  1:
 E= -184.582721391130     Delta-E=       -0.000000006072 Rises=F Damp=F
 DIIS: error= 2.23D-06 at cycle   6 NSaved=   6.
 NSaved= 6 IEnMin= 6 EnMin= -184.582721391130     IErMin= 6 ErrMin= 2.23D-06
 ErrMax= 2.23D-06  0.00D+00 EMaxC= 1.00D-01 BMatC= 1.21D-10 BMatP= 8.40D-09
 IDIUse=1 WtCom= 1.00D+00 WtEn= 0.00D+00
 Coeff-Com:  0.632D-03-0.148D-01-0.196D-01-0.482D-02 0.704D-01 0.968D+00
 Coeff:      0.632D-03-0.148D-01-0.196D-01-0.482D-02 0.704D-01 0.968D+00
 Gap=     0.448 Goal=   None    Shift=    0.000
 RMSDP=4.19D-07 MaxDP=3.64D-06 DE=-6.07D-09 OVMax= 5.90D-06

 Cycle   7  Pass 1  IDiag  1:
 E= -184.582721391282     Delta-E=       -0.000000000151 Rises=F Damp=F
 DIIS: error= 8.19D-07 at cycle   7 NSaved=   7.
 NSaved= 7 IEnMin= 7 EnMin= -184.582721391282     IErMin= 7 ErrMin= 8.19D-07
 ErrMax= 8.19D-07  0.00D+00 EMaxC= 1.00D-01 BMatC= 1.32D-11 BMatP= 1.21D-10
 IDIUse=1 WtCom= 1.00D+00 WtEn= 0.00D+00
 Coeff-Com:  0.598D-03-0.194D-02-0.705D-02-0.103D-01-0.204D-01 0.725D-01
 Coeff-Com:  0.967D+00
 Coeff:      0.598D-03-0.194D-02-0.705D-02-0.103D-01-0.204D-01 0.725D-01
 Coeff:      0.967D+00
 Gap=     0.448 Goal=   None    Shift=    0.000
 RMSDP=8.97D-08 MaxDP=9.69D-07 DE=-1.51D-10 OVMax= 1.33D-06

 Cycle   8  Pass 1  IDiag  1:
 E= -184.582721391294     Delta-E=       -0.000000000012 Rises=F Damp=F
 DIIS: error= 1.18D-07 at cycle   8 NSaved=   8.
 NSaved= 8 IEnMin= 8 EnMin= -184.582721391294     IErMin= 8 ErrMin= 1.18D-07
 ErrMax= 1.18D-07  0.00D+00 EMaxC= 1.00D-01 BMatC= 2.71D-13 BMatP= 1.32D-11
 IDIUse=1 WtCom= 1.00D+00 WtEn= 0.00D+00
 Coeff-Com: -0.423D-04 0.825D-03 0.640D-03 0.931D-03-0.256D-02-0.441D-01
 Coeff-Com: -0.204D-01 0.106D+01
 Coeff:     -0.423D-04 0.825D-03 0.640D-03 0.931D-03-0.256D-02-0.441D-01
 Coeff:     -0.204D-01 0.106D+01
 Gap=     0.448 Goal=   None    Shift=    0.000
 RMSDP=1.53D-08 MaxDP=1.90D-07 DE=-1.21D-11 OVMax= 2.20D-07

 Cycle   9  Pass 1  IDiag  1:
 E= -184.582721391294     Delta-E=        0.000000000000 Rises=F Damp=F
 DIIS: error= 8.39D-09 at cycle   9 NSaved=   9.
 NSaved= 9 IEnMin= 8 EnMin= -184.582721391294     IErMin= 9 ErrMin= 8.39D-09
 ErrMax= 8.39D-09  0.00D+00 EMaxC= 1.00D-01 BMatC= 2.02D-15 BMatP= 2.71D-13
 IDIUse=1 WtCom= 1.00D+00 WtEn= 0.00D+00
 Coeff-Com:  0.913D-06-0.103D-03-0.459D-05-0.100D-03 0.891D-03 0.585D-02
 Coeff-Com: -0.634D-02-0.182D+00 0.118D+01
 Coeff:      0.913D-06-0.103D-03-0.459D-05-0.100D-03 0.891D-03 0.585D-02
 Coeff:     -0.634D-02-0.182D+00 0.118D+01
 Gap=     0.448 Goal=   None    Shift=    0.000
 RMSDP=2.04D-09 MaxDP=2.34D-08 DE= 1.14D-13 OVMax= 2.58D-08

 SCF Done:  E(RM062X) =  -184.582721391     A.U. after    9 cycles
            NFock=  9  Conv=0.20D-08     -V/T= 2.0068
 KE= 1.833305334765D+02 PE=-5.542969094174D+02 EE= 1.254865700016D+02
 Leave Link  502 at Wed Oct  7 13:30:47 2020, MaxMem=  2684354560 cpu:              10.8 elap:               1.3
 (Enter /udrive/faculty/rpeverati/g16/g16/l508.exe)
 QCSCF skips out because SCF is already converged.
 Leave Link  508 at Wed Oct  7 13:30:48 2020, MaxMem=  2684354560 cpu:               0.2 elap:               0.4
 (Enter /udrive/faculty/rpeverati/g16/g16/l701.exe)
 ... and contract with generalized density number  0.
 Compute integral first derivatives.
 Leave Link  701 at Wed Oct  7 13:30:49 2020, MaxMem=  2684354560 cpu:               3.9 elap:               0.8
 (Enter /udrive/faculty/rpeverati/g16/g16/l702.exe)
 L702 exits ... SP integral derivatives will be done elsewhere.
 Leave Link  702 at Wed Oct  7 13:30:50 2020, MaxMem=  2684354560 cpu:               1.5 elap:               0.5
 (Enter /udrive/faculty/rpeverati/g16/g16/l703.exe)
 Integral derivatives from FoFJK, PRISM(SPDF).
 Compute integral first derivatives, UseDBF=F ICtDFT=           0.
 Calling FoFJK, ICntrl=      2127 FMM=F ISym2X=1 I1Cent= 0 IOpClX= 0 NMat=1 NMatS=1 NMatT=0.
 FoFJK:  IHMeth= 1 ICntrl=    2127 DoSepK=F KAlg= 0 I1Cent=           0 FoldK=F
 IRaf=         0 NMat=       1 IRICut=       1 DoRegI=T DoRafI=F ISym2E= 1 IDoP0=0 IntGTp=1.
 FoFCou: FMM=F IPFlag=           0 FMFlag=      100000 FMFlg1=         800
         NFxFlg=           0 DoJE=F BraDBF=F KetDBF=F FulRan=T
         wScrn=  0.000000 ICntrl=      2127 IOpCl=  0 I1Cent=           0 NGrid=           0
         NMat0=    1 NMatS0=      1 NMatT0=    0 NMatD0=    1 NMtDS0=    0 NMtDT0=    0
 Petite list used in FoFCou.
 Leave Link  703 at Wed Oct  7 13:30:51 2020, MaxMem=  2684354560 cpu:               4.6 elap:               0.7
 (Enter /udrive/faculty/rpeverati/g16/g16/l716.exe)
 Dipole        = 0.00000000D+00-6.27372848D-33-9.39682054D-02
 ***** Axes restored to original set *****
 -------------------------------------------------------------------
 Center     Atomic                   Forces (Hartrees/Bohr)
 Number     Number              X              Y              Z
 -------------------------------------------------------------------
      1        7           0.000000000    0.000000000   -0.000470015
      2        7          -0.000000000   -0.000000000    0.000769413
      3        8           0.000000000    0.000000000   -0.000299398
 -------------------------------------------------------------------
 Cartesian Forces:  Max     0.000769413 RMS     0.000316675
 Leave Link  716 at Wed Oct  7 13:30:52 2020, MaxMem=  2684354560 cpu:               1.9 elap:               0.5
 (Enter /udrive/faculty/rpeverati/g16/g16/l103.exe)

 GradGradGradGradGradGradGradGradGradGradGradGradGradGradGradGradGradGrad
 Berny optimization.
 Optmz: redundant internal coordinate code flag= 1
 Using GEDIIS/GDIIS optimizer.
 Red2BG:  D1=  1.00D+00 OD1=  3.33D-16 B2RMS=  0.00D+00 IAprox=1
 Red2BG is reusing G-inverse.
 Internal  Forces:  Max     0.000470015 RMS     0.000278637
 Search for a local minimum.
 Step number   2 out of a maximum of  100
 All quantities printed in internal units (Hartrees-Bohrs-Radians)
 RMS Force = .27864D-03 SwitMx=.10000D-02 MixMth= 2
 Mixed Optimization -- En-DIIS/RFO-DIIS
 Update second derivatives using D2CorX and points    1    2
 DE= -9.87D-06 DEPred=-9.11D-06 R= 1.08D+00
 TightC=F SS=  1.41D+00  RLast= 3.40D-03 DXNew= 5.0454D-01 1.0206D-02
 Trust test= 1.08D+00 RLast= 3.40D-03 DXMaxT set to 3.00D-01
 The second derivative matrix:
                          R1        R2        A1        A2
           R1           1.43354
           R2           0.08767   1.12671
           A1          -0.00000  -0.00000   0.04112
           A2           0.00000   0.00000  -0.00000   0.04112
 ITU=  1  0
 Use linear search instead of GDIIS.
 Eigenvectors of the second derivative matrix:
                           1         2         3         4
     Eigenvalues --     0.04112   0.04112   1.10342   1.45682
   1         R1        -0.00000  -0.00000  -0.25669  -0.96649
   2         R2         0.00000   0.00000   0.96649  -0.25669
   3         A1         0.94232   0.33472  -0.00000  -0.00000
   4         A2        -0.33472   0.94232  -0.00000  -0.00000
 Iter=   1 RLamda= 0.00000000D+00 Sum=-1.04263154D-07.
 Iter=   2 RLamda=-1.04263154D-07 Sum=-1.04263144D-07.
 RFO step:  Lambda=-1.04263154D-07 EMin= 4.11172799D-02
 Quartic linear search produced a step of  0.09427.
 Iteration  1 RMS(Cart)=  0.00013225 RMS(Int)=  0.00000000
 Iteration  2 RMS(Cart)=  0.00000000 RMS(Int)=  0.00000000
 ITry= 1 IFail=0 DXMaxC= 2.14D-04 DCOld= 1.00D+10 DXMaxT= 3.00D-01 DXLimC= 3.00D+00 Rises=F
 ClnCor:  largest displacement from symmetrization is 0.00D+00 for atom     0.
 Variable       Old X    -DE/DX   Delta X   Delta X   Delta X     New X
                                 (Linear)    (Quad)   (Total)
    R1        2.12096   0.00047   0.00032   0.00003   0.00035   2.12131
    R2        2.24333  -0.00030   0.00001  -0.00030  -0.00029   2.24303
    A1        3.14159   0.00000   0.00000  -0.00000   0.00000   3.14159
    A2        3.14159  -0.00000   0.00000   0.00000   0.00000   3.14159
         Item               Value     Threshold  Converged?
 Maximum Force            0.000470     0.000450     NO 
 RMS     Force            0.000279     0.000300     YES
 Maximum Displacement     0.000214     0.001800     YES
 RMS     Displacement     0.000132     0.001200     YES
 Predicted change in Energy=-1.250615D-07
 Lowest energy point so far.  Saving SCF results.
 Largest change from initial coordinates is atom    1       0.001 Angstoms.
 GradGradGradGradGradGradGradGradGradGradGradGradGradGradGradGradGradGrad

 Leave Link  103 at Wed Oct  7 13:30:53 2020, MaxMem=  2684354560 cpu:               2.3 elap:               0.6
 (Enter /udrive/faculty/rpeverati/g16/g16/l202.exe)
                          Input orientation:                          
 ---------------------------------------------------------------------
 Center     Atomic      Atomic             Coordinates (Angstroms)
 Number     Number       Type             X           Y           Z
 ---------------------------------------------------------------------
      1          7           0        0.000000    0.000000   -1.196969
      2          7           0        0.000000    0.000000   -0.074421
      3          8           0        0.000000    0.000000    1.112542
 ---------------------------------------------------------------------
                    Distance matrix (angstroms):
                    1          2          3
     1  N    0.000000
     2  N    1.122548   0.000000
     3  O    2.309511   1.186963   0.000000
 Stoichiometry    N2O
 Framework group  C*V[C*(NNO)]
 Deg. of freedom     2
 Full point group                 C*V     NOp   4
 RotChk:  IX=0 Diff= 0.00D+00
 Largest Abelian subgroup         C2V     NOp   4
 Largest concise Abelian subgroup C1      NOp   1
                         Standard orientation:                         
 ---------------------------------------------------------------------
 Center     Atomic      Atomic             Coordinates (Angstroms)
 Number     Number       Type             X           Y           Z
 ---------------------------------------------------------------------
      1          7           0        0.000000    0.000000   -1.196996
      2          7           0        0.000000    0.000000   -0.074448
      3          8           0        0.000000    0.000000    1.112514
 ---------------------------------------------------------------------
 Rotational constants (GHZ):           0.0000000          12.6541096          12.6541096
 Leave Link  202 at Wed Oct  7 13:30:54 2020, MaxMem=  2684354560 cpu:               1.3 elap:               0.6
 (Enter /udrive/faculty/rpeverati/g16/g16/l301.exe)
 Standard basis: 6-31G(d) (5D, 7F)
 Ernie: Thresh=  0.10000D-02 Tol=  0.10000D-05 Strict=F.
 There are    24 symmetry adapted cartesian basis functions of A1  symmetry.
 There are     3 symmetry adapted cartesian basis functions of A2  symmetry.
 There are     9 symmetry adapted cartesian basis functions of B1  symmetry.
 There are     9 symmetry adapted cartesian basis functions of B2  symmetry.
 There are    21 symmetry adapted basis functions of A1  symmetry.
 There are     3 symmetry adapted basis functions of A2  symmetry.
 There are     9 symmetry adapted basis functions of B1  symmetry.
 There are     9 symmetry adapted basis functions of B2  symmetry.
    42 basis functions,    84 primitive gaussians,    45 cartesian basis functions
    11 alpha electrons       11 beta electrons
       nuclear repulsion energy        60.8963888131 Hartrees.
 IExCor= 4336 DFT=T Ex+Corr=M062X ExCW=0 ScaHFX=  0.540000
 ScaDFX=  1.000000  1.000000  1.000000  1.000000 ScalE2=  1.000000  1.000000
 IRadAn=      5 IRanWt=     -1 IRanGd=            0 ICorTp=0 IEmpDi=  4
 NAtoms=    3 NActive=    3 NUniq=    3 SFac= 1.00D+00 NAtFMM=   60 NAOKFM=F Big=F
 Integral buffers will be    131072 words long.
 Raffenetti 2 integral format.
 Two-electron integral symmetry is turned on.
 Leave Link  301 at Wed Oct  7 13:30:55 2020, MaxMem=  2684354560 cpu:               2.1 elap:               0.6
 (Enter /udrive/faculty/rpeverati/g16/g16/l302.exe)
 NPDir=0 NMtPBC=     1 NCelOv=     1 NCel=       1 NClECP=     1 NCelD=      1
         NCelK=      1 NCelE2=     1 NClLst=     1 CellRange=     0.0.
 One-electron integrals computed using PRISM.
 One-electron integral symmetry used in STVInt
 NBasis=    42 RedAO= T EigKep=  1.99D-03  NBF=    21     3     9     9
 NBsUse=    42 1.00D-06 EigRej= -1.00D+00 NBFU=    21     3     9     9
 Precomputing XC quadrature grid using
 IXCGrd= 4 IRadAn=           5 IRanWt=          -1 IRanGd=           0 AccXCQ= 0.00D+00.
 Generated NRdTot=       0 NPtTot=           0 NUsed=           0 NTot=          32
 NSgBfM=    45    45    45    45    45 MxSgAt=     3 MxSgA2=     3.
 Leave Link  302 at Wed Oct  7 13:30:56 2020, MaxMem=  2684354560 cpu:               3.2 elap:               0.8
 (Enter /udrive/faculty/rpeverati/g16/g16/l303.exe)
 DipDrv:  MaxL=1.
 Leave Link  303 at Wed Oct  7 13:30:57 2020, MaxMem=  2684354560 cpu:               1.6 elap:               0.5
 (Enter /udrive/faculty/rpeverati/g16/g16/l401.exe)
 Initial guess from the checkpoint file:  "MN_67_n2o_BH76_M062X_631Gs.chk"
 SCF N**3 symmetry information disabled.
 B after Tr=     0.000000    0.000000   -0.000000
         Rot=    1.000000    0.000000    0.000000    0.000000 Ang=   0.00 deg.
 Guess basis will be translated and rotated to current coordinates.
 JPrj=2 DoOrth=T DoCkMO=T.
 Initial guess orbital symmetries:
       Occupied  (SG) (SG) (SG) (SG) (SG) (SG) (PI) (PI) (SG) (PI)
                 (PI)
       Virtual   (PI) (PI) (SG) (SG) (PI) (PI) (SG) (SG) (PI) (PI)
                 (SG) (PI) (PI) (SG) (SG) (DLTA) (DLTA) (PI) (PI)
                 (DLTA) (DLTA) (SG) (DLTA) (DLTA) (PI) (PI) (SG)
                 (SG) (PI) (PI) (SG)
 The electronic state of the initial guess is 1-SG.
 Leave Link  401 at Wed Oct  7 13:30:58 2020, MaxMem=  2684354560 cpu:               2.9 elap:               0.7
 (Enter /udrive/faculty/rpeverati/g16/g16/l502.exe)
 Keep R1 ints in memory in symmetry-blocked form, NReq=10826548.
 FoFCou: FMM=F IPFlag=           0 FMFlag=           0 FMFlg1=           0
         NFxFlg=           0 DoJE=F BraDBF=F KetDBF=F FulRan=T
         wScrn=  0.000000 ICntrl=       600 IOpCl=  0 I1Cent=           0 NGrid=           0
         NMat0=    1 NMatS0=    903 NMatT0=    0 NMatD0=    1 NMtDS0=    0 NMtDT0=    0
 Petite list used in FoFCou.
 Closed shell SCF:
 Using DIIS extrapolation, IDIIS=  1040.
 NGot=  2684354560 LenX=  2684234880 LenY=  2684232414
 Requested convergence on RMS density matrix=1.00D-08 within 120 cycles.
 Requested convergence on MAX density matrix=1.00D-06.
 Requested convergence on             energy=1.00D-06.
 No special actions if energy rises.

 Cycle   1  Pass 1  IDiag  1:
 E= -184.582721452239    
 DIIS: error= 4.69D-05 at cycle   1 NSaved=   1.
 NSaved= 1 IEnMin= 1 EnMin= -184.582721452239     IErMin= 1 ErrMin= 4.69D-05
 ErrMax= 4.69D-05  0.00D+00 EMaxC= 1.00D-01 BMatC= 5.86D-08 BMatP= 5.86D-08
 IDIUse=1 WtCom= 1.00D+00 WtEn= 0.00D+00
 Coeff-Com:  0.100D+01
 Coeff:      0.100D+01
 Gap=     0.448 Goal=   None    Shift=    0.000
 RMSDP=9.49D-06 MaxDP=1.19D-04              OVMax= 8.28D-05

 Cycle   2  Pass 1  IDiag  1:
 E= -184.582721512841     Delta-E=       -0.000000060602 Rises=F Damp=F
 DIIS: error= 2.14D-05 at cycle   2 NSaved=   2.
 NSaved= 2 IEnMin= 2 EnMin= -184.582721512841     IErMin= 2 ErrMin= 2.14D-05
 ErrMax= 2.14D-05  0.00D+00 EMaxC= 1.00D-01 BMatC= 1.74D-08 BMatP= 5.86D-08
 IDIUse=1 WtCom= 1.00D+00 WtEn= 0.00D+00
 Coeff-Com:  0.284D+00 0.716D+00
 Coeff:      0.284D+00 0.716D+00
 Gap=     0.448 Goal=   None    Shift=    0.000
 RMSDP=4.47D-06 MaxDP=5.22D-05 DE=-6.06D-08 OVMax= 9.58D-05

 Cycle   3  Pass 1  IDiag  1:
 E= -184.582721509553     Delta-E=        0.000000003288 Rises=F Damp=F
 DIIS: error= 2.91D-05 at cycle   3 NSaved=   3.
 NSaved= 3 IEnMin= 2 EnMin= -184.582721512841     IErMin= 2 ErrMin= 2.14D-05
 ErrMax= 2.91D-05  0.00D+00 EMaxC= 1.00D-01 BMatC= 2.57D-08 BMatP= 1.74D-08
 IDIUse=1 WtCom= 1.00D+00 WtEn= 0.00D+00
 Coeff-Com: -0.489D-01 0.561D+00 0.488D+00
 Coeff:     -0.489D-01 0.561D+00 0.488D+00
 Gap=     0.448 Goal=   None    Shift=    0.000
 RMSDP=2.74D-06 MaxDP=2.48D-05 DE= 3.29D-09 OVMax= 4.63D-05

 Cycle   4  Pass 1  IDiag  1:
 E= -184.582721529664     Delta-E=       -0.000000020111 Rises=F Damp=F
 DIIS: error= 3.24D-06 at cycle   4 NSaved=   4.
 NSaved= 4 IEnMin= 4 EnMin= -184.582721529664     IErMin= 4 ErrMin= 3.24D-06
 ErrMax= 3.24D-06  0.00D+00 EMaxC= 1.00D-01 BMatC= 4.72D-10 BMatP= 1.74D-08
 IDIUse=1 WtCom= 1.00D+00 WtEn= 0.00D+00
 Coeff-Com: -0.361D-01 0.191D+00 0.190D+00 0.655D+00
 Coeff:     -0.361D-01 0.191D+00 0.190D+00 0.655D+00
 Gap=     0.448 Goal=   None    Shift=    0.000
 RMSDP=4.98D-07 MaxDP=6.33D-06 DE=-2.01D-08 OVMax= 6.61D-06

 Cycle   5  Pass 1  IDiag  1:
 E= -184.582721529984     Delta-E=       -0.000000000321 Rises=F Damp=F
 DIIS: error= 2.03D-06 at cycle   5 NSaved=   5.
 NSaved= 5 IEnMin= 5 EnMin= -184.582721529984     IErMin= 5 ErrMin= 2.03D-06
 ErrMax= 2.03D-06  0.00D+00 EMaxC= 1.00D-01 BMatC= 1.61D-10 BMatP= 4.72D-10
 IDIUse=1 WtCom= 1.00D+00 WtEn= 0.00D+00
 Coeff-Com: -0.106D-01-0.901D-02-0.513D-02 0.363D+00 0.662D+00
 Coeff:     -0.106D-01-0.901D-02-0.513D-02 0.363D+00 0.662D+00
 Gap=     0.448 Goal=   None    Shift=    0.000
 RMSDP=2.18D-07 MaxDP=2.40D-06 DE=-3.21D-10 OVMax= 3.54D-06

 Cycle   6  Pass 1  IDiag  1:
 E= -184.582721530112     Delta-E=       -0.000000000127 Rises=F Damp=F
 DIIS: error= 3.87D-07 at cycle   6 NSaved=   6.
 NSaved= 6 IEnMin= 6 EnMin= -184.582721530112     IErMin= 6 ErrMin= 3.87D-07
 ErrMax= 3.87D-07  0.00D+00 EMaxC= 1.00D-01 BMatC= 4.09D-12 BMatP= 1.61D-10
 IDIUse=1 WtCom= 1.00D+00 WtEn= 0.00D+00
 Coeff-Com:  0.196D-02-0.186D-01-0.247D-01-0.506D-02 0.108D+00 0.938D+00
 Coeff:      0.196D-02-0.186D-01-0.247D-01-0.506D-02 0.108D+00 0.938D+00
 Gap=     0.448 Goal=   None    Shift=    0.000
 RMSDP=6.38D-08 MaxDP=8.07D-07 DE=-1.27D-10 OVMax= 8.18D-07

 Cycle   7  Pass 1  IDiag  1:
 E= -184.582721530115     Delta-E=       -0.000000000004 Rises=F Damp=F
 DIIS: error= 1.04D-07 at cycle   7 NSaved=   7.
 NSaved= 7 IEnMin= 7 EnMin= -184.582721530115     IErMin= 7 ErrMin= 1.04D-07
 ErrMax= 1.04D-07  0.00D+00 EMaxC= 1.00D-01 BMatC= 2.89D-13 BMatP= 4.09D-12
 IDIUse=1 WtCom= 1.00D+00 WtEn= 0.00D+00
 Coeff-Com:  0.724D-03-0.245D-02-0.633D-02-0.151D-01-0.242D-02 0.183D+00
 Coeff-Com:  0.842D+00
 Coeff:      0.724D-03-0.245D-02-0.633D-02-0.151D-01-0.242D-02 0.183D+00
 Coeff:      0.842D+00
 Gap=     0.448 Goal=   None    Shift=    0.000
 RMSDP=1.18D-08 MaxDP=1.03D-07 DE=-3.87D-12 OVMax= 1.49D-07

 Cycle   8  Pass 1  IDiag  1:
 E= -184.582721530116     Delta-E=       -0.000000000000 Rises=F Damp=F
 DIIS: error= 1.07D-08 at cycle   8 NSaved=   8.
 NSaved= 8 IEnMin= 8 EnMin= -184.582721530116     IErMin= 8 ErrMin= 1.07D-08
 ErrMax= 1.07D-08  0.00D+00 EMaxC= 1.00D-01 BMatC= 4.63D-15 BMatP= 2.89D-13
 IDIUse=1 WtCom= 1.00D+00 WtEn= 0.00D+00
 Coeff-Com: -0.326D-04 0.785D-03 0.433D-03-0.140D-02-0.493D-02-0.293D-01
 Coeff-Com:  0.587D-01 0.976D+00
 Coeff:     -0.326D-04 0.785D-03 0.433D-03-0.140D-02-0.493D-02-0.293D-01
 Coeff:      0.587D-01 0.976D+00
 Gap=     0.448 Goal=   None    Shift=    0.000
 RMSDP=1.73D-09 MaxDP=2.02D-08 DE=-3.98D-13 OVMax= 2.08D-08

 SCF Done:  E(RM062X) =  -184.582721530     A.U. after    8 cycles
            NFock=  8  Conv=0.17D-08     -V/T= 2.0068
 KE= 1.833300432204D+02 PE=-5.542949065789D+02 EE= 1.254857530153D+02
 Leave Link  502 at Wed Oct  7 13:31:00 2020, MaxMem=  2684354560 cpu:              13.3 elap:               1.7
 (Enter /udrive/faculty/rpeverati/g16/g16/l508.exe)
 QCSCF skips out because SCF is already converged.
 Leave Link  508 at Wed Oct  7 13:31:01 2020, MaxMem=  2684354560 cpu:               0.3 elap:               0.4
 (Enter /udrive/faculty/rpeverati/g16/g16/l701.exe)
 ... and contract with generalized density number  0.
 Compute integral first derivatives.
 Leave Link  701 at Wed Oct  7 13:31:02 2020, MaxMem=  2684354560 cpu:               3.3 elap:               0.7
 (Enter /udrive/faculty/rpeverati/g16/g16/l702.exe)
 L702 exits ... SP integral derivatives will be done elsewhere.
 Leave Link  702 at Wed Oct  7 13:31:02 2020, MaxMem=  2684354560 cpu:               1.5 elap:               0.4
 (Enter /udrive/faculty/rpeverati/g16/g16/l703.exe)
 Integral derivatives from FoFJK, PRISM(SPDF).
 Compute integral first derivatives, UseDBF=F ICtDFT=           0.
 Calling FoFJK, ICntrl=      2127 FMM=F ISym2X=1 I1Cent= 0 IOpClX= 0 NMat=1 NMatS=1 NMatT=0.
 FoFJK:  IHMeth= 1 ICntrl=    2127 DoSepK=F KAlg= 0 I1Cent=           0 FoldK=F
 IRaf=         0 NMat=       1 IRICut=       1 DoRegI=T DoRafI=F ISym2E= 1 IDoP0=0 IntGTp=1.
 FoFCou: FMM=F IPFlag=           0 FMFlag=      100000 FMFlg1=         800
         NFxFlg=           0 DoJE=F BraDBF=F KetDBF=F FulRan=T
         wScrn=  0.000000 ICntrl=      2127 IOpCl=  0 I1Cent=           0 NGrid=           0
         NMat0=    1 NMatS0=      1 NMatT0=    0 NMatD0=    1 NMtDS0=    0 NMtDT0=    0
 Petite list used in FoFCou.
 Leave Link  703 at Wed Oct  7 13:31:03 2020, MaxMem=  2684354560 cpu:               4.8 elap:               0.7
 (Enter /udrive/faculty/rpeverati/g16/g16/l716.exe)
 Dipole        = 0.00000000D+00-1.47462066D-32-9.33177671D-02
 ***** Axes restored to original set *****
 -------------------------------------------------------------------
 Center     Atomic                   Forces (Hartrees/Bohr)
 Number     Number              X              Y              Z
 -------------------------------------------------------------------
      1        7          -0.000000000   -0.000000000   -0.000003509
      2        7          -0.000000000   -0.000000000    0.000089675
      3        8           0.000000000    0.000000000   -0.000086166
 -------------------------------------------------------------------
 Cartesian Forces:  Max     0.000089675 RMS     0.000041471
 Leave Link  716 at Wed Oct  7 13:31:04 2020, MaxMem=  2684354560 cpu:               1.8 elap:               0.5
 (Enter /udrive/faculty/rpeverati/g16/g16/l103.exe)

 GradGradGradGradGradGradGradGradGradGradGradGradGradGradGradGradGradGrad
 Berny optimization.
 Optmz: redundant internal coordinate code flag= 1
 Using GEDIIS/GDIIS optimizer.
 Red2BG:  D1=  1.00D+00 OD1=  3.33D-16 B2RMS=  0.00D+00 IAprox=1
 Red2BG is reusing G-inverse.
 Internal  Forces:  Max     0.000086166 RMS     0.000043119
 Search for a local minimum.
 Step number   3 out of a maximum of  100
 All quantities printed in internal units (Hartrees-Bohrs-Radians)
 RMS Force = .43119D-04 SwitMx=.10000D-02 MixMth= 2
 Mixed Optimization -- En-DIIS/RFO-DIIS
 Swapping is turned off.
 Update second derivatives using D2CorX and points    1    3
 DE= -1.39D-07 DEPred=-1.25D-07 R= 1.11D+00
 Trust test= 1.11D+00 RLast= 4.55D-04 DXMaxT set to 3.00D-01
 The second derivative matrix:
                          R1        R2        A1        A2
           R1           1.43274
           R2           0.11070   1.12831
           A1          -0.00000  -0.00000   0.04112
           A2           0.00000   0.00000  -0.00000   0.04112
 ITU=  0  1  0
 Eigenvectors of the second derivative matrix:
                           1         2         3         4
     Eigenvalues --     0.04112   0.04112   1.09231   1.46874
   1         R1        -0.00000   0.00000  -0.30924  -0.95098
   2         R2         0.00000  -0.00000   0.95098  -0.30924
   3         A1        -0.48344   0.87537   0.00000   0.00000
   4         A2         0.87537   0.48344  -0.00000  -0.00000
 DoSqrt=T IScMMF=    -3 MM Scaling Factor =       0.00000
 En-DIIS/RFO-DIIS/Sim-DIIS IScMMF=       -3 using points:     3    2
 Iter=   1 RLamda=-8.88272014D-03 Sum=-6.62780114D-09.
 Iter=   2 RLamda=-6.62780114D-09 Sum=-6.68093249D-09.
 RFO step:  Lambda=-6.62780114D-09.
 NNeg= 0 NGDIIS= 2 SimSw=  2.50D-03 Rises=F DC= -1.39D-07 SmlDif=  1.00D-05
 NRisDI= 0 DoIntr=F SqrtH=F CThrHd= 10.0 CDAdj=  3.0
 RMS Error=  0.3882509278D-04 NUsed= 2 OKEnD=F EnDIS=F
 Total RFO-DIIS matrix:
                 1             2             3 
      1   0.000000D+00 -0.100000D+01 -0.100000D+01
      2  -0.100000D+01  0.602955D-08  0.260984D-07
      3  -0.100000D+01  0.260984D-07  0.213242D-06
 InvSVX:  RCond= 4.18D-08 Info=           0 Equed=N FErr=  1.17D-15 BErr=  0.00D+00
 DIIS inversion failure, remove point   2.
 Use linear search instead of GDIIS.
 Iter=   1 RLamda= 0.00000000D+00 Sum=-4.75542014D-09.
 RFO step:  Lambda= 0.00000000D+00 EMin= 4.11172799D-02
 Quartic linear search produced a step of  0.11767.
 Iteration  1 RMS(Cart)=  0.00003319 RMS(Int)=  0.00000000
 Iteration  2 RMS(Cart)=  0.00000000 RMS(Int)=  0.00000000
 ITry= 1 IFail=0 DXMaxC= 5.40D-05 DCOld= 1.00D+10 DXMaxT= 3.00D-01 DXLimC= 3.00D+00 Rises=F
 ClnCor:  largest displacement from symmetrization is 0.00D+00 for atom     0.
 Variable       Old X    -DE/DX   Delta X   Delta X   Delta X     New X
                                 (Linear)    (Quad)   (Total)
    R1        2.12131   0.00000   0.00004  -0.00003   0.00001   2.12132
    R2        2.24303  -0.00009  -0.00003  -0.00005  -0.00009   2.24295
    A1        3.14159   0.00000   0.00000   0.00000   0.00000   3.14159
    A2        3.14159  -0.00000   0.00000   0.00000   0.00000   3.14159
         Item               Value     Threshold  Converged?
 Maximum Force            0.000086     0.000450     YES
 RMS     Force            0.000043     0.000300     YES
 Maximum Displacement     0.000054     0.001800     YES
 RMS     Displacement     0.000033     0.001200     YES
 Predicted change in Energy=-3.302283D-09
 Optimization completed.
    -- Stationary point found.
                           ----------------------------
                           !   Optimized Parameters   !
                           ! (Angstroms and Degrees)  !
 --------------------------                            --------------------------
 ! Name  Definition              Value          Derivative Info.                !
 --------------------------------------------------------------------------------
 ! R1    R(1,2)                  1.1225         -DE/DX =    0.0                 !
 ! R2    R(2,3)                  1.187          -DE/DX =   -0.0001              !
 ! A1    L(1,2,3,-1,-1)        180.0            -DE/DX =    0.0                 !
 ! A2    L(1,2,3,-2,-2)        180.0            -DE/DX =    0.0                 !
 --------------------------------------------------------------------------------
 Lowest energy point so far.  Saving SCF results.
 Largest change from initial coordinates is atom    1       0.001 Angstoms.
 GradGradGradGradGradGradGradGradGradGradGradGradGradGradGradGradGradGrad

 Leave Link  103 at Wed Oct  7 13:31:05 2020, MaxMem=  2684354560 cpu:               2.3 elap:               0.7
 (Enter /udrive/faculty/rpeverati/g16/g16/l202.exe)
                          Input orientation:                          
 ---------------------------------------------------------------------
 Center     Atomic      Atomic             Coordinates (Angstroms)
 Number     Number       Type             X           Y           Z
 ---------------------------------------------------------------------
      1          7           0        0.000000    0.000000   -1.196969
      2          7           0        0.000000    0.000000   -0.074421
      3          8           0        0.000000    0.000000    1.112542
 ---------------------------------------------------------------------
                    Distance matrix (angstroms):
                    1          2          3
     1  N    0.000000
     2  N    1.122548   0.000000
     3  O    2.309511   1.186963   0.000000
 Stoichiometry    N2O
 Framework group  C*V[C*(NNO)]
 Deg. of freedom     2
 Full point group                 C*V     NOp   4
 RotChk:  IX=0 Diff= 0.00D+00
 Largest Abelian subgroup         C2V     NOp   4
 Largest concise Abelian subgroup C1      NOp   1
                         Standard orientation:                         
 ---------------------------------------------------------------------
 Center     Atomic      Atomic             Coordinates (Angstroms)
 Number     Number       Type             X           Y           Z
 ---------------------------------------------------------------------
      1          7           0        0.000000    0.000000   -1.196996
      2          7           0        0.000000    0.000000   -0.074448
      3          8           0        0.000000    0.000000    1.112514
 ---------------------------------------------------------------------
 Rotational constants (GHZ):           0.0000000          12.6541096          12.6541096
 Leave Link  202 at Wed Oct  7 13:31:06 2020, MaxMem=  2684354560 cpu:               1.2 elap:               0.6
 (Enter /udrive/faculty/rpeverati/g16/g16/l601.exe)
 Copying SCF densities to generalized density rwf, IOpCl= 0 IROHF=0.

 **********************************************************************

            Population analysis using the SCF density.

 **********************************************************************

 Orbital symmetries:
       Occupied  (SG) (SG) (SG) (SG) (SG) (SG) (PI) (PI) (SG) (PI)
                 (PI)
       Virtual   (PI) (PI) (SG) (SG) (PI) (PI) (SG) (SG) (PI) (PI)
                 (SG) (PI) (PI) (SG) (SG) (DLTA) (DLTA) (PI) (PI)
                 (DLTA) (DLTA) (SG) (DLTA) (DLTA) (PI) (PI) (SG)
                 (SG) (PI) (PI) (SG)
 The electronic state is 1-SG.
 Alpha  occ. eigenvalues --  -19.73690 -15.00663 -14.87124  -1.37157  -1.20277
 Alpha  occ. eigenvalues --   -0.68879  -0.65081  -0.65081  -0.55926  -0.40487
 Alpha  occ. eigenvalues --   -0.40487
 Alpha virt. eigenvalues --    0.04311   0.04311   0.20541   0.46352   0.64969
 Alpha virt. eigenvalues --    0.64969   0.66389   0.79294   0.80444   0.80444
 Alpha virt. eigenvalues --    0.82436   1.03242   1.03242   1.14880   1.38083
 Alpha virt. eigenvalues --    1.41142   1.41142   1.45983   1.45983   1.75570
 Alpha virt. eigenvalues --    1.75570   1.84710   2.06804   2.06804   2.16855
 Alpha virt. eigenvalues --    2.16855   2.62025   2.91564   2.97964   2.97964
 Alpha virt. eigenvalues --    3.29558
          Condensed to atoms (all electrons):
               1          2          3
     1  N    6.684210   0.509145  -0.103567
     2  N    0.509145   5.493960   0.432876
     3  O   -0.103567   0.432876   8.144923
 Mulliken charges:
               1
     1  N   -0.089787
     2  N    0.564019
     3  O   -0.474232
 Sum of Mulliken charges =  -0.00000
 Mulliken charges with hydrogens summed into heavy atoms:
               1
     1  N   -0.089787
     2  N    0.564019
     3  O   -0.474232
 Electronic spatial extent (au):  <R**2>=            107.7907
 Charge=             -0.0000 electrons
 Dipole moment (field-independent basis, Debye):
    X=              0.0000    Y=             -0.0000    Z=             -0.2372  Tot=              0.2372
 Quadrupole moment (field-independent basis, Debye-Ang):
   XX=            -15.0594   YY=            -15.0594   ZZ=            -18.9438
   XY=             -0.0000   XZ=              0.0000   YZ=             -0.0000
 Traceless Quadrupole moment (field-independent basis, Debye-Ang):
   XX=              1.2948   YY=              1.2948   ZZ=             -2.5896
   XY=             -0.0000   XZ=              0.0000   YZ=             -0.0000
 Octapole moment (field-independent basis, Debye-Ang**2):
  XXX=              0.0000  YYY=             -0.0000  ZZZ=              4.8074  XYY=              0.0000
  XXY=              0.0000  XXZ=              0.9804  XZZ=              0.0000  YZZ=             -0.0000
  YYZ=              0.9804  XYZ=              0.0000
 Hexadecapole moment (field-independent basis, Debye-Ang**3):
 XXXX=            -11.2410 YYYY=            -11.2410 ZZZZ=           -103.2996 XXXY=             -0.0000
 XXXZ=              0.0000 YYYX=             -0.0000 YYYZ=              0.0000 ZZZX=              0.0000
 ZZZY=             -0.0000 XXYY=             -3.7470 XXZZ=            -18.5610 YYZZ=            -18.5610
 XXYZ=              0.0000 YYXZ=              0.0000 ZZXY=             -0.0000
 N-N= 6.089638881308D+01 E-N=-5.542949069053D+02  KE= 1.833300432204D+02
 No NMR shielding tensors so no spin-rotation constants.
 Leave Link  601 at Wed Oct  7 13:31:07 2020, MaxMem=  2684354560 cpu:               5.0 elap:               0.8
 (Enter /udrive/faculty/rpeverati/g16/g16/l9999.exe)

 Test job not archived.
 1\1\GINC-NODE54\FOpt\RM062X\6-31G(d)\N2O1\RPEVERATI\07-Oct-2020\0\\#P 
 Opt(MaxCyc=100) M062X/6-31G* 5D 7F Integral=UltraFineGrid SCF=(NoSymm,
 XQC,MaxCyc=120) IOp(1/33=1)\\TS search on BH76.\\0,1\N,0.,0.,-1.196968
 9016\N,0.,0.,-0.0744207801\O,0.,0.,1.1125417957\\Version=ES64L-G16RevA
 .03\State=1-SG\HF=-184.5827215\RMSD=1.727e-09\RMSF=4.147e-05\Dipole=0.
 ,0.,-0.0933178\Quadrupole=0.9626561,0.9626561,-1.9253123,0.,0.,0.\PG=C
 *V [C*(N1N1O1)]\\@


 EDUCATION WITHOUT COMMON SENSE IS A LOAD OF BOOKS ON THE BACK OF AN ASS.
 Job cpu time:       0 days  0 hours  2 minutes 41.6 seconds.
 Elapsed time:       0 days  0 hours  0 minutes 30.3 seconds.
 File lengths (MBytes):  RWF=      5 Int=      0 D2E=      0 Chk=      1 Scr=      1
 Normal termination of Gaussian 16 at Wed Oct  7 13:31:09 2020.
