 Entering Gaussian System, Link 0=g16
 Input=MN_25_CH4_BH76_PM3_SE.in
 Output=MN_25_CH4_BH76_PM3_SE.log
 Initial command:
 /udrive/faculty/rpeverati/g16/g16/l1.exe "/udrive/scratch-directories/gaussian09/rpeverati/Gau-6235.inp" -scrdir="/udrive/scratch-directories/gaussian09/rpeverati/"
 Entering Link 1 = /udrive/faculty/rpeverati/g16/g16/l1.exe PID=      6259.
  
 Copyright (c) 1988,1990,1992,1993,1995,1998,2003,2009,2016,
            Gaussian, Inc.  All Rights Reserved.
  
 This is part of the Gaussian(R) 16 program.  It is based on
 the Gaussian(R) 09 system (copyright 2009, Gaussian, Inc.),
 the Gaussian(R) 03 system (copyright 2003, Gaussian, Inc.),
 the Gaussian(R) 98 system (copyright 1998, Gaussian, Inc.),
 the Gaussian(R) 94 system (copyright 1995, Gaussian, Inc.),
 the Gaussian 92(TM) system (copyright 1992, Gaussian, Inc.),
 the Gaussian 90(TM) system (copyright 1990, Gaussian, Inc.),
 the Gaussian 88(TM) system (copyright 1988, Gaussian, Inc.),
 the Gaussian 86(TM) system (copyright 1986, Carnegie Mellon
 University), and the Gaussian 82(TM) system (copyright 1983,
 Carnegie Mellon University). Gaussian is a federally registered
 trademark of Gaussian, Inc.
  
 This software contains proprietary and confidential information,
 including trade secrets, belonging to Gaussian, Inc.
  
 This software is provided under written license and may be
 used, copied, transmitted, or stored only in accord with that
 written license.
  
 The following legend is applicable only to US Government
 contracts under FAR:
  
                    RESTRICTED RIGHTS LEGEND
  
 Use, reproduction and disclosure by the US Government is
 subject to restrictions as set forth in subparagraphs (a)
 and (c) of the Commercial Computer Software - Restricted
 Rights clause in FAR 52.227-19.
  
 Gaussian, Inc.
 340 Quinnipiac St., Bldg. 40, Wallingford CT 06492
  
  
 ---------------------------------------------------------------
 Warning -- This program may not be used in any manner that
 competes with the business of Gaussian, Inc. or will provide
 assistance to any competitor of Gaussian, Inc.  The licensee
 of this program is prohibited from giving any competitor of
 Gaussian, Inc. access to this program.  By using this program,
 the user acknowledges that Gaussian, Inc. is engaged in the
 business of creating and licensing software in the field of
 computational chemistry and represents and warrants to the
 licensee that it is not a competitor of Gaussian, Inc. and that
 it will not use this program in any manner prohibited above.
 ---------------------------------------------------------------
  

 Cite this work as:
 Gaussian 16, Revision A.03,
 M. J. Frisch, G. W. Trucks, H. B. Schlegel, G. E. Scuseria, 
 M. A. Robb, J. R. Cheeseman, G. Scalmani, V. Barone, 
 G. A. Petersson, H. Nakatsuji, X. Li, M. Caricato, A. V. Marenich, 
 J. Bloino, B. G. Janesko, R. Gomperts, B. Mennucci, H. P. Hratchian, 
 J. V. Ortiz, A. F. Izmaylov, J. L. Sonnenberg, D. Williams-Young, 
 F. Ding, F. Lipparini, F. Egidi, J. Goings, B. Peng, A. Petrone, 
 T. Henderson, D. Ranasinghe, V. G. Zakrzewski, J. Gao, N. Rega, 
 G. Zheng, W. Liang, M. Hada, M. Ehara, K. Toyota, R. Fukuda, 
 J. Hasegawa, M. Ishida, T. Nakajima, Y. Honda, O. Kitao, H. Nakai, 
 T. Vreven, K. Throssell, J. A. Montgomery, Jr., J. E. Peralta, 
 F. Ogliaro, M. J. Bearpark, J. J. Heyd, E. N. Brothers, K. N. Kudin, 
 V. N. Staroverov, T. A. Keith, R. Kobayashi, J. Normand, 
 K. Raghavachari, A. P. Rendell, J. C. Burant, S. S. Iyengar, 
 J. Tomasi, M. Cossi, J. M. Millam, M. Klene, C. Adamo, R. Cammi, 
 J. W. Ochterski, R. L. Martin, K. Morokuma, O. Farkas, 
 J. B. Foresman, and D. J. Fox, Gaussian, Inc., Wallingford CT, 2016.
 
 ******************************************
 Gaussian 16:  ES64L-G16RevA.03 25-Dec-2016
                21-Oct-2020 
 ******************************************
 %NoSave
 %nproc=12
 Will use up to   12 processors via shared memory.
 %mem=20GB
 %chk=MN_25_CH4_BH76_PM3_SE
 ----------------------------------------------------------------------
 #P Opt(MaxCyc=150) PM3 5D 7F Integral=UltraFineGrid SCF=(NoSymm,XQC,Ma
 xCyc=120) IOp(1/33=1)
 ----------------------------------------------------------------------
 1/6=150,18=20,19=15,26=1,33=1,38=1/1,3;
 2/9=110,12=2,17=6,18=5,40=1/2;
 3/5=2,8=11,25=1,41=800000,71=1,75=-5/1,2,3;
 4/9=2,35=1/1;
 5/5=2,7=120,8=3,13=1,35=1,38=5/2,8;
 6/7=2,8=2,9=2,10=2,28=1/1;
 7//1,2,3,16;
 1/6=150,18=20,19=15,26=1,33=1/3(2);
 2/9=110/2;
 99//99;
 2/9=110/2;
 3/5=2,8=11,25=1,41=800000,71=1,75=-5,135=20/1,2,3;
 4/5=5,9=2,16=3,35=1/1;
 5/5=2,7=120,8=3,13=1,35=1,38=5/2,8;
 7//1,2,3,16;
 1/6=150,18=20,19=15,26=1,33=1/3(-5);
 2/9=110/2;
 6/7=2,8=2,9=2,10=2,19=2,28=1/1;
 99/9=1/99;
 Leave Link    1 at Wed Oct 21 14:20:42 2020, MaxMem=  2684354560 cpu:               9.5 elap:               1.0
 (Enter /udrive/faculty/rpeverati/g16/g16/l101.exe)
 ONIOM data not found on unit 2.
 ------------------
 TS search on BH76.
 ------------------
 TstMul:  ICh=     0
 TstMul:  Mul=     1
 TstMul:  ICh=     0
 TstMul:  Mul=     1
 Symbolic Z-matrix:
 Charge =  0 Multiplicity = 1
 C                     0.        0.        0. 
 H                     0.62784   0.62784   0.62784 
 H                    -0.62784  -0.62784   0.62784 
 H                     0.62784  -0.62784  -0.62784 
 H                    -0.62784   0.62784  -0.62784 
 
 RdStrC is calling ZToCFu for IStruc=1 NZ=     5.
 PrtBox:  NBox=     1 Levels=  1 BoxLen=    8.00 SMaxX=        2.37
          Shift=            1.186440            1.186440            1.186440
 Box      1 Number                   0 centers from      1 to      5:
 After GenITR:
 ITRead=  0  0  0  0  0
 MicOpt= -1 -1 -1 -1 -1
 ITRead=  0  0  0  0  0
 MicOpt= -1 -1 -1 -1 -1
 NAtoms=      5 NQM=        5 NQMF=       0 NMMI=      0 NMMIF=      0
                NMic=       0 NMicF=      0.
                    Isotopes and Nuclear Properties:
 (Nuclear quadrupole moments (NQMom) in fm**2, nuclear magnetic moments (NMagM)
  in nuclear magnetons)

  Atom         1           2           3           4           5
 IAtWgt=          12           1           1           1           1
 AtmWgt=  12.0000000   1.0078250   1.0078250   1.0078250   1.0078250
 NucSpn=           0           1           1           1           1
 AtZEff=   0.0000000   0.0000000   0.0000000   0.0000000   0.0000000
 NQMom=    0.0000000   0.0000000   0.0000000   0.0000000   0.0000000
 NMagM=    0.0000000   2.7928460   2.7928460   2.7928460   2.7928460
 AtZNuc=   6.0000000   1.0000000   1.0000000   1.0000000   1.0000000
 No MM parameters found.
 Leave Link  101 at Wed Oct 21 14:20:45 2020, MaxMem=  2684354560 cpu:              12.3 elap:               1.6
 (Enter /udrive/faculty/rpeverati/g16/g16/l103.exe)

 GradGradGradGradGradGradGradGradGradGradGradGradGradGradGradGradGradGrad
 Berny optimization.
 Optmz: redundant internal coordinate code flag= 1
 Initialization pass.
                           ----------------------------
                           !    Initial Parameters    !
                           ! (Angstroms and Degrees)  !
 --------------------------                            --------------------------
 ! Name  Definition              Value          Derivative Info.                !
 --------------------------------------------------------------------------------
 ! R1    R(1,2)                  1.0874         estimate D2E/DX2                !
 ! R2    R(1,3)                  1.0874         estimate D2E/DX2                !
 ! R3    R(1,4)                  1.0874         estimate D2E/DX2                !
 ! R4    R(1,5)                  1.0874         estimate D2E/DX2                !
 ! A1    A(2,1,3)              109.4712         estimate D2E/DX2                !
 ! A2    A(2,1,4)              109.4712         estimate D2E/DX2                !
 ! A3    A(2,1,5)              109.4712         estimate D2E/DX2                !
 ! A4    A(3,1,4)              109.4712         estimate D2E/DX2                !
 ! A5    A(3,1,5)              109.4712         estimate D2E/DX2                !
 ! A6    A(4,1,5)              109.4712         estimate D2E/DX2                !
 ! D1    D(2,1,4,3)            120.0            estimate D2E/DX2                !
 ! D2    D(2,1,5,3)           -120.0            estimate D2E/DX2                !
 ! D3    D(2,1,5,4)            120.0            estimate D2E/DX2                !
 ! D4    D(3,1,5,4)           -120.0            estimate D2E/DX2                !
 --------------------------------------------------------------------------------
 Maximum allowed force set to 1.00D+20.
 Trust Radius=3.00D-01 FncErr=1.00D-07 GrdErr=1.00D-07 EigMax=2.50D+02 EigMin=1.00D-04
 Number of steps in this run=    100 maximum allowed number of steps=    100.
 GradGradGradGradGradGradGradGradGradGradGradGradGradGradGradGradGradGrad

 Leave Link  103 at Wed Oct 21 14:20:47 2020, MaxMem=  2684354560 cpu:               3.4 elap:               1.4
 (Enter /udrive/faculty/rpeverati/g16/g16/l202.exe)
                          Input orientation:                          
 ---------------------------------------------------------------------
 Center     Atomic      Atomic             Coordinates (Angstroms)
 Number     Number       Type             X           Y           Z
 ---------------------------------------------------------------------
      1          6           0        0.000000    0.000000    0.000000
      2          1           0        0.627837    0.627837    0.627837
      3          1           0       -0.627837   -0.627837    0.627837
      4          1           0        0.627837   -0.627837   -0.627837
      5          1           0       -0.627837    0.627837   -0.627837
 ---------------------------------------------------------------------
                    Distance matrix (angstroms):
                    1          2          3          4          5
     1  C    0.000000
     2  H    1.087446   0.000000
     3  H    1.087446   1.775791   0.000000
     4  H    1.087446   1.775791   1.775791   0.000000
     5  H    1.087446   1.775791   1.775791   1.775791   0.000000
 Stoichiometry    CH4
 Framework group  TD[O(C),4C3(H)]
 Deg. of freedom     1
 Full point group                 TD      NOp  24
 Largest Abelian subgroup         D2      NOp   4
 Largest concise Abelian subgroup D2      NOp   4
                         Standard orientation:                         
 ---------------------------------------------------------------------
 Center     Atomic      Atomic             Coordinates (Angstroms)
 Number     Number       Type             X           Y           Z
 ---------------------------------------------------------------------
      1          6           0        0.000000    0.000000    0.000000
      2          1           0        0.627837    0.627837    0.627837
      3          1           0       -0.627837   -0.627837    0.627837
      4          1           0        0.627837   -0.627837   -0.627837
      5          1           0       -0.627837    0.627837   -0.627837
 ---------------------------------------------------------------------
 Rotational constants (GHZ):         159.0187163         159.0187163         159.0187163
 Leave Link  202 at Wed Oct 21 14:20:50 2020, MaxMem=  2684354560 cpu:              10.2 elap:               1.6
 (Enter /udrive/faculty/rpeverati/g16/g16/l301.exe)
 Standard basis: VSTO-6G (5D, 7F)
 Ernie: Thresh=  0.10000D-02 Tol=  0.10000D-05 Strict=F.
  NNHCO=     0 NNPyr=     0 NCTC=     0               EPep=         0.000000000
    EC=         6.968258662  ECS=         0.432649873   EG=         0.107599095
   EHC=         0.000000000  EAt=        -6.009367065  AtH=         0.604449838
 EPDDG=         0.000000000  ECC=         7.508507630 EAtT=         6.613816903
 There are     2 symmetry adapted cartesian basis functions of A   symmetry.
 There are     2 symmetry adapted cartesian basis functions of B1  symmetry.
 There are     2 symmetry adapted cartesian basis functions of B2  symmetry.
 There are     2 symmetry adapted cartesian basis functions of B3  symmetry.
 There are     2 symmetry adapted basis functions of A   symmetry.
 There are     2 symmetry adapted basis functions of B1  symmetry.
 There are     2 symmetry adapted basis functions of B2  symmetry.
 There are     2 symmetry adapted basis functions of B3  symmetry.
     8 basis functions,    48 primitive gaussians,     8 cartesian basis functions
     4 alpha electrons        4 beta electrons
       nuclear repulsion energy        14.1223245324 Hartrees.
 IExCor=    0 DFT=F Ex=HF Corr=None ExCW=0 ScaHFX=  1.000000
 ScaDFX=  1.000000  1.000000  1.000000  1.000000 ScalE2=  1.000000  1.000000
 IRadAn=      5 IRanWt=     -1 IRanGd=            0 ICorTp=0 IEmpDi=  4
 Integral buffers will be    131072 words long.
 Regular integral format.
 Two-electron integral symmetry is turned off.
 Leave Link  301 at Wed Oct 21 14:20:53 2020, MaxMem=  2684354560 cpu:               7.5 elap:               1.8
 (Enter /udrive/faculty/rpeverati/g16/g16/l302.exe)
 Do NDO integrals.
 NPDir=0 NMtPBC=     1 NCelOv=     1 NCel=       1 NClECP=     1 NCelD=      1
         NCelK=      1 NCelE2=     1 NClLst=     1 CellRange=     0.0.
 One-electron integrals computed using PRISM.
 NBasis=     8 RedAO= T EigKep=  1.00D+00  NBF=     2     2     2     2
 NBsUse=     8 1.00D-06 EigRej= -1.00D+00 NBFU=     2     2     2     2
 Leave Link  302 at Wed Oct 21 14:20:56 2020, MaxMem=  2684354560 cpu:               8.9 elap:               2.4
 (Enter /udrive/faculty/rpeverati/g16/g16/l303.exe)
 DipDrv:  MaxL=1.
 Leave Link  303 at Wed Oct 21 14:20:59 2020, MaxMem=  2684354560 cpu:               7.1 elap:               1.6
 (Enter /udrive/faculty/rpeverati/g16/g16/l401.exe)
 SCF N**3 symmetry information disabled.
 Simple Huckel Guess.
 JPrj=0 DoOrth=F DoCkMO=F.
 Initial guess orbital symmetries:
       Occupied  (A1) (T2) (T2) (T2)
       Virtual   (T2) (T2) (T2) (A1)
 The electronic state of the initial guess is 1-A1.
 Leave Link  401 at Wed Oct 21 14:21:03 2020, MaxMem=  2684354560 cpu:              15.9 elap:               2.9
 (Enter /udrive/faculty/rpeverati/g16/g16/l502.exe)
 Keep J ints in memory in canonical form, NReq=859233.
 FoFCou: FMM=F IPFlag=           0 FMFlag=           0 FMFlg1=           0
         NFxFlg=           0 DoJE=F BraDBF=F KetDBF=F FulRan=T
         wScrn=  0.000000 ICntrl=       600 IOpCl=  2 I1Cent=           0 NGrid=           0
         NMat0=    1 NMatS0=     14 NMatT0=    0 NMatD0=    1 NMtDS0=    0 NMtDT0=    0
 Symmetry not used in FoFCou.
 Two-electron integral symmetry not used.
 Closed shell SCF:
 Using DIIS extrapolation, IDIIS=  1040.
 Overlap will be assumed to be unity.
 NGot=  2684354560 LenX=  2684294026 LenY=  2684293144
 Requested convergence on RMS density matrix=1.00D-08 within 120 cycles.
 Requested convergence on MAX density matrix=1.00D-06.
 Requested convergence on             energy=1.00D-06.
 No special actions if energy rises.

 Cycle   1  Pass 1  IDiag  1:
 E= 0.513503250123293E-02
 DIIS: error= 2.71D-02 at cycle   1 NSaved=   1.
 NSaved= 1 IEnMin= 1 EnMin= 0.513503250123293E-02 IErMin= 1 ErrMin= 2.71D-02
 ErrMax= 2.71D-02  0.00D+00 EMaxC= 1.00D-01 BMatC= 1.21D-02 BMatP= 1.21D-02
 IDIUse=3 WtCom= 7.29D-01 WtEn= 2.71D-01
 Coeff-Com:  0.100D+01
 Coeff-En:   0.100D+01
 Coeff:      0.100D+01
 GapD=    2.000 DampG=2.000 DampE=0.500 DampFc=1.0000 IDamp=-1.
 RMSDP=1.61D-02 MaxDP=8.70D-02              OVMax= 0.00D+00

 Cycle   2  Pass 1  IDiag  1:
 E=-0.193804709738661E-01 Delta-E=       -0.024515503475 Rises=F Damp=F
 DIIS: error= 6.16D-03 at cycle   2 NSaved=   2.
 NSaved= 2 IEnMin= 2 EnMin=-0.193804709738661E-01 IErMin= 2 ErrMin= 6.16D-03
 ErrMax= 6.16D-03  0.00D+00 EMaxC= 1.00D-01 BMatC= 6.35D-04 BMatP= 1.21D-02
 IDIUse=3 WtCom= 9.38D-01 WtEn= 6.16D-02
 Coeff-Com: -0.297D+00 0.130D+01
 Coeff-En:   0.000D+00 0.100D+01
 Coeff:     -0.279D+00 0.128D+01
 RMSDP=4.78D-03 MaxDP=2.50D-02 DE=-2.45D-02 OVMax= 0.00D+00

 Cycle   3  Pass 1  IDiag  3:
 E=-0.207495014670940E-01 Delta-E=       -0.001369030493 Rises=F Damp=F
 DIIS: error= 1.26D-04 at cycle   3 NSaved=   3.
 NSaved= 3 IEnMin= 3 EnMin=-0.207495014670940E-01 IErMin= 3 ErrMin= 1.26D-04
 ErrMax= 1.26D-04  0.00D+00 EMaxC= 1.00D-01 BMatC= 7.94D-07 BMatP= 6.35D-04
 IDIUse=3 WtCom= 9.99D-01 WtEn= 1.26D-03
 Coeff-Com:  0.448D+00-0.198D+01 0.254D+01
 Coeff-En:   0.000D+00 0.000D+00 0.100D+01
 Coeff:      0.447D+00-0.198D+01 0.254D+01
 Gap=     0.655 Goal=   None    Shift=    0.000
 RMSDP=5.58D-04 MaxDP=1.82D-03 DE=-1.37D-03 OVMax= 1.72D-03

 Cycle   4  Pass 1  IDiag  3:
 E=-0.207548497497712E-01 Delta-E=       -0.000005348283 Rises=F Damp=F
 DIIS: error= 3.58D-06 at cycle   4 NSaved=   4.
 NSaved= 4 IEnMin= 4 EnMin=-0.207548497497712E-01 IErMin= 4 ErrMin= 3.58D-06
 ErrMax= 3.58D-06  0.00D+00 EMaxC= 1.00D-01 BMatC= 6.56D-10 BMatP= 7.94D-07
 IDIUse=1 WtCom= 1.00D+00 WtEn= 0.00D+00
 Large coefficients: NSaved=  4 BigCof=    0.00 CofMax=   10.00 Det=-4.37D-20
 Inversion failed.  Reducing to  3 matrices.
 Coeff-Com:  0.480D-04 0.274D-01 0.973D+00
 Coeff:      0.480D-04 0.274D-01 0.973D+00
 Gap=     0.657 Goal=   None    Shift=    0.000
 RMSDP=1.54D-05 MaxDP=5.02D-05 DE=-5.35D-06 OVMax= 4.74D-05

 Cycle   5  Pass 1  IDiag  3:
 E=-0.207548540799962E-01 Delta-E=       -0.000000004330 Rises=F Damp=F
 DIIS: error= 4.18D-10 at cycle   5 NSaved=   4.
 NSaved= 4 IEnMin= 4 EnMin=-0.207548540799962E-01 IErMin= 4 ErrMin= 4.18D-10
 ErrMax= 4.18D-10  0.00D+00 EMaxC= 1.00D-01 BMatC= 2.87D-18 BMatP= 6.56D-10
 IDIUse=1 WtCom= 1.00D+00 WtEn= 0.00D+00
 Coeff-Com: -0.416D-04-0.238D-01-0.846D+00 0.187D+01
 Coeff:     -0.416D-04-0.238D-01-0.846D+00 0.187D+01
 Gap=     0.657 Goal=   None    Shift=    0.000
 RMSDP=6.03D-10 MaxDP=3.20D-09 DE=-4.33D-09 OVMax= 3.22D-09

 Cycle   6  Pass 2  IDiag  1:
 SCF Done:  E(RPM3) = -0.207548540800E-01 A.U. after    6 cycles
            NFock=  5  Conv=0.60D-09     -V/T= 0.9978
 KE=-9.331414044809D+00 PE=-1.375141662298D+01 EE= 8.939751281327D+00
 Leave Link  502 at Wed Oct 21 14:21:08 2020, MaxMem=  2684354560 cpu:              18.1 elap:               3.5
 (Enter /udrive/faculty/rpeverati/g16/g16/l508.exe)
 QCSCF skips out because SCF is already converged.
 Leave Link  508 at Wed Oct 21 14:21:10 2020, MaxMem=  2684354560 cpu:               1.2 elap:               1.1
 (Enter /udrive/faculty/rpeverati/g16/g16/l601.exe)
 Copying SCF densities to generalized density rwf, IOpCl= 0 IROHF=0.

 **********************************************************************

            Population analysis using the SCF density.

 **********************************************************************

 Orbital symmetries:
       Occupied  (A1) (T2) (T2) (T2)
       Virtual   (A1) (T2) (T2) (T2)
 The electronic state is 1-A1.
 Alpha  occ. eigenvalues --   -1.09779  -0.50129  -0.50129  -0.50129
 Alpha virt. eigenvalues --    0.15591   0.16877   0.16877   0.16877
          Condensed to atoms (all electrons):
               1          2          3          4          5
     1  C    4.110568   0.000000   0.000000   0.000000   0.000000
     2  H    0.000000   0.972358   0.000000   0.000000   0.000000
     3  H    0.000000   0.000000   0.972358   0.000000   0.000000
     4  H    0.000000   0.000000   0.000000   0.972358   0.000000
     5  H    0.000000   0.000000   0.000000   0.000000   0.972358
 Mulliken charges:
               1
     1  C   -0.110568
     2  H    0.027642
     3  H    0.027642
     4  H    0.027642
     5  H    0.027642
 Sum of Mulliken charges =  -0.00000
 Mulliken charges with hydrogens summed into heavy atoms:
               1
     1  C   -0.000000
 Charge=              0.0000 electrons
 Dipole moment (field-independent basis, Debye):
    X=             -0.0000    Y=             -0.0000    Z=             -0.0000  Tot=              0.0000
 N-N= 1.412232453238D+01 E-N=-1.375141662207D+01  KE=-9.331414044809D+00
 Leave Link  601 at Wed Oct 21 14:21:13 2020, MaxMem=  2684354560 cpu:              11.4 elap:               2.3
 (Enter /udrive/faculty/rpeverati/g16/g16/l701.exe)
 ... and contract with generalized density number  0.
 Compute integral first derivatives.
 Leave Link  701 at Wed Oct 21 14:21:17 2020, MaxMem=  2684354560 cpu:               8.3 elap:               2.9
 (Enter /udrive/faculty/rpeverati/g16/g16/l702.exe)
 L702 exits ... SP integral derivatives will be done elsewhere.
 Leave Link  702 at Wed Oct 21 14:21:19 2020, MaxMem=  2684354560 cpu:               2.9 elap:               1.0
 (Enter /udrive/faculty/rpeverati/g16/g16/l703.exe)
 Integral derivatives from FoFJK, PRISM(SPDF).
 Compute integral first derivatives, UseDBF=F ICtDFT=           0.
 Calling FoFJK, ICntrl=      2127 FMM=F ISym2X=1 I1Cent= 0 IOpClX= 0 NMat=1 NMatS=1 NMatT=0.
 FoFJK:  IHMeth= 9 ICntrl=    2127 DoSepK=F KAlg= 0 I1Cent=           0 FoldK=F
 IRaf=         0 NMat=       1 IRICut=       1 DoRegI=T DoRafI=F ISym2E= 1 IDoP0=3 IntGTp=3.
 FoFCou: FMM=F IPFlag=           0 FMFlag=      100000 FMFlg1=         800
         NFxFlg=           0 DoJE=F BraDBF=F KetDBF=F FulRan=T
         wScrn=  0.000000 ICntrl=      2127 IOpCl=  0 I1Cent=           0 NGrid=           0
         NMat0=    1 NMatS0=      1 NMatT0=    0 NMatD0=    1 NMtDS0=    0 NMtDT0=    0
 Petite list used in FoFCou.
 Leave Link  703 at Wed Oct 21 14:21:22 2020, MaxMem=  2684354560 cpu:               9.1 elap:               2.1
 (Enter /udrive/faculty/rpeverati/g16/g16/l716.exe)
 Dipole        =-2.12865281D-11-2.98649994D-12-1.08593134D-11
 ***** Axes restored to original set *****
 -------------------------------------------------------------------
 Center     Atomic                   Forces (Hartrees/Bohr)
 Number     Number              X              Y              Z
 -------------------------------------------------------------------
      1        6           0.000000000    0.000000000    0.000000000
      2        1          -0.000192748   -0.000192748   -0.000192748
      3        1           0.000192748    0.000192748   -0.000192748
      4        1          -0.000192748    0.000192748    0.000192748
      5        1           0.000192748   -0.000192748    0.000192748
 -------------------------------------------------------------------
 Cartesian Forces:  Max     0.000192748 RMS     0.000172399
 Leave Link  716 at Wed Oct 21 14:21:25 2020, MaxMem=  2684354560 cpu:               2.8 elap:               1.3
 (Enter /udrive/faculty/rpeverati/g16/g16/l103.exe)

 GradGradGradGradGradGradGradGradGradGradGradGradGradGradGradGradGradGrad
 Berny optimization.
 Optmz: redundant internal coordinate code flag= 1
 FormGI is forming the generalized inverse of G from B-inverse, IUseBI=4.
 Internal  Forces:  Max     0.000333850 RMS     0.000178450
 Search for a local minimum.
 Step number   1 out of a maximum of  100
 All quantities printed in internal units (Hartrees-Bohrs-Radians)
 RMS Force = .17845D-03 SwitMx=.10000D-02 MixMth= 2
 Mixed Optimization -- En-DIIS/RFO-DIIS
 Second derivative matrix not updated -- first step.
 The second derivative matrix:
                          R1        R2        R3        R4        A1
           R1           0.35110
           R2           0.00000   0.35110
           R3           0.00000   0.00000   0.35110
           R4           0.00000   0.00000   0.00000   0.35110
           A1           0.00000   0.00000   0.00000   0.00000   0.16000
           A2           0.00000   0.00000   0.00000   0.00000   0.00000
           A3           0.00000   0.00000   0.00000   0.00000   0.00000
           A4           0.00000   0.00000   0.00000   0.00000   0.00000
           A5           0.00000   0.00000   0.00000   0.00000   0.00000
           A6           0.00000   0.00000   0.00000   0.00000   0.00000
           D1           0.00000   0.00000   0.00000   0.00000   0.00000
           D2           0.00000   0.00000   0.00000   0.00000   0.00000
           D3           0.00000   0.00000   0.00000   0.00000   0.00000
           D4           0.00000   0.00000   0.00000   0.00000   0.00000
                          A2        A3        A4        A5        A6
           A2           0.16000
           A3           0.00000   0.16000
           A4           0.00000   0.00000   0.16000
           A5           0.00000   0.00000   0.00000   0.16000
           A6           0.00000   0.00000   0.00000   0.00000   0.16000
           D1           0.00000   0.00000   0.00000   0.00000   0.00000
           D2           0.00000   0.00000   0.00000   0.00000   0.00000
           D3           0.00000   0.00000   0.00000   0.00000   0.00000
           D4           0.00000   0.00000   0.00000   0.00000   0.00000
                          D1        D2        D3        D4
           D1           0.00269
           D2           0.00000   0.00269
           D3           0.00000   0.00000   0.00269
           D4           0.00000   0.00000   0.00000   0.00269
 ITU=  0
 Eigenvectors of the second derivative matrix:
                           1         2         3         4         5
     Eigenvalues --     0.05109   0.05740   0.08659   0.16000   0.16000
   1         R1        -0.00000  -0.00000   0.00000  -0.00000  -0.00000
   2         R2         0.00000   0.00000   0.00000   0.00000   0.00000
   3         R3        -0.00000  -0.00000   0.00000   0.00000   0.00000
   4         R4        -0.00000   0.00000   0.00000  -0.00000  -0.00000
   5         A1        -0.47305   0.00000  -0.13591   0.09798  -0.24865
   6         A2         0.11826   0.37300  -0.33976   0.19623   0.36458
   7         A3         0.00000   0.18650   0.37374  -0.68640   0.01679
   8         A4         0.11826  -0.37300  -0.33976  -0.39219   0.13272
   9         A5         0.00000  -0.18650   0.37374   0.49044   0.48052
  10         A6         0.23652  -0.00000   0.06795   0.29394  -0.74596
  11         D1        -0.43452   0.00000  -0.58258   0.00000   0.00000
  12         D2         0.57937  -0.00000  -0.29129   0.00000   0.00000
  13         D3         0.28968   0.57104  -0.14564  -0.00000   0.00000
  14         D4        -0.28968   0.57104   0.14564  -0.00000   0.00000
                           6         7         8         9
     Eigenvalues --     0.35110   0.35110   0.35110   0.35110
   1         R1        -0.56777  -0.37827  -0.57033   0.45746
   2         R2        -0.34441   0.34402  -0.47388  -0.73380
   3         R3         0.65549   0.29584  -0.64841   0.24978
   4         R4         0.35967  -0.80687  -0.17240  -0.43575
   5         A1         0.00000  -0.00000  -0.00000  -0.00000
   6         A2         0.00000  -0.00000  -0.00000   0.00000
   7         A3        -0.00000   0.00000   0.00000   0.00000
   8         A4        -0.00000   0.00000  -0.00000  -0.00000
   9         A5         0.00000  -0.00000   0.00000   0.00000
  10         A6         0.00000  -0.00000  -0.00000  -0.00000
  11         D1        -0.00000  -0.00000  -0.00000  -0.00000
  12         D2         0.00000  -0.00000  -0.00000  -0.00000
  13         D3         0.00000  -0.00000  -0.00000   0.00000
  14         D4         0.00000   0.00000  -0.00000   0.00000
 Iter=   1 RLamda= 0.00000000D+00 Sum=-1.26980409D-06.
 Iter=   2 RLamda=-1.26980409D-06 Sum=-1.26979950D-06.
 RFO step:  Lambda=-1.26980409D-06 EMin= 5.10904457D-02
 Linear search not attempted -- first point.
 Iteration  1 RMS(Cart)=  0.00050827 RMS(Int)=  0.00000000
 Iteration  2 RMS(Cart)=  0.00000000 RMS(Int)=  0.00000000
 ITry= 1 IFail=0 DXMaxC= 5.49D-04 DCOld= 1.00D+10 DXMaxT= 3.00D-01 DXLimC= 3.00D+00 Rises=F
 ClnCor:  largest displacement from symmetrization is 1.54D-11 for atom     5.
 Variable       Old X    -DE/DX   Delta X   Delta X   Delta X     New X
                                 (Linear)    (Quad)   (Total)
    R1        2.05497  -0.00033   0.00000  -0.00095  -0.00095   2.05402
    R2        2.05497  -0.00033   0.00000  -0.00095  -0.00095   2.05402
    R3        2.05497  -0.00033   0.00000  -0.00095  -0.00095   2.05402
    R4        2.05497  -0.00033   0.00000  -0.00095  -0.00095   2.05402
    A1        1.91063  -0.00000   0.00000  -0.00000  -0.00000   1.91063
    A2        1.91063  -0.00000   0.00000  -0.00000   0.00000   1.91063
    A3        1.91063  -0.00000   0.00000  -0.00000  -0.00000   1.91063
    A4        1.91063  -0.00000   0.00000   0.00000  -0.00000   1.91063
    A5        1.91063   0.00000   0.00000   0.00000   0.00000   1.91063
    A6        1.91063   0.00000   0.00000   0.00000  -0.00000   1.91063
    D1        2.09440  -0.00000   0.00000  -0.00000   0.00000   2.09440
    D2       -2.09440  -0.00000   0.00000   0.00000   0.00000  -2.09440
    D3        2.09440  -0.00000   0.00000  -0.00000   0.00000   2.09440
    D4       -2.09440  -0.00000   0.00000  -0.00000   0.00000  -2.09440
         Item               Value     Threshold  Converged?
 Maximum Force            0.000334     0.000450     YES
 RMS     Force            0.000178     0.000300     YES
 Maximum Displacement     0.000549     0.001800     YES
 RMS     Displacement     0.000508     0.001200     YES
 Predicted change in Energy=-6.349020D-07
 Optimization completed.
    -- Stationary point found.
                           ----------------------------
                           !   Optimized Parameters   !
                           ! (Angstroms and Degrees)  !
 --------------------------                            --------------------------
 ! Name  Definition              Value          Derivative Info.                !
 --------------------------------------------------------------------------------
 ! R1    R(1,2)                  1.0874         -DE/DX =   -0.0003              !
 ! R2    R(1,3)                  1.0874         -DE/DX =   -0.0003              !
 ! R3    R(1,4)                  1.0874         -DE/DX =   -0.0003              !
 ! R4    R(1,5)                  1.0874         -DE/DX =   -0.0003              !
 ! A1    A(2,1,3)              109.4712         -DE/DX =    0.0                 !
 ! A2    A(2,1,4)              109.4712         -DE/DX =    0.0                 !
 ! A3    A(2,1,5)              109.4712         -DE/DX =    0.0                 !
 ! A4    A(3,1,4)              109.4712         -DE/DX =    0.0                 !
 ! A5    A(3,1,5)              109.4712         -DE/DX =    0.0                 !
 ! A6    A(4,1,5)              109.4712         -DE/DX =    0.0                 !
 ! D1    D(2,1,4,3)            120.0            -DE/DX =    0.0                 !
 ! D2    D(2,1,5,3)           -120.0            -DE/DX =    0.0                 !
 ! D3    D(2,1,5,4)            120.0            -DE/DX =    0.0                 !
 ! D4    D(3,1,5,4)           -120.0            -DE/DX =    0.0                 !
 --------------------------------------------------------------------------------
 Lowest energy point so far.  Saving SCF results.
 Largest change from initial coordinates is atom    0       0.000 Angstoms.
 GradGradGradGradGradGradGradGradGradGradGradGradGradGradGradGradGradGrad

 Leave Link  103 at Wed Oct 21 14:21:27 2020, MaxMem=  2684354560 cpu:              13.5 elap:               1.8
 (Enter /udrive/faculty/rpeverati/g16/g16/l202.exe)
                          Input orientation:                          
 ---------------------------------------------------------------------
 Center     Atomic      Atomic             Coordinates (Angstroms)
 Number     Number       Type             X           Y           Z
 ---------------------------------------------------------------------
      1          6           0        0.000000    0.000000    0.000000
      2          1           0        0.627837    0.627837    0.627837
      3          1           0       -0.627837   -0.627837    0.627837
      4          1           0        0.627837   -0.627837   -0.627837
      5          1           0       -0.627837    0.627837   -0.627837
 ---------------------------------------------------------------------
                    Distance matrix (angstroms):
                    1          2          3          4          5
     1  C    0.000000
     2  H    1.087446   0.000000
     3  H    1.087446   1.775791   0.000000
     4  H    1.087446   1.775791   1.775791   0.000000
     5  H    1.087446   1.775791   1.775791   1.775791   0.000000
 Stoichiometry    CH4
 Framework group  TD[O(C),4C3(H)]
 Deg. of freedom     1
 Full point group                 TD      NOp  24
 RotChk:  IX=0 Diff= 3.93D-16
 Largest Abelian subgroup         D2      NOp   4
 Largest concise Abelian subgroup D2      NOp   4
                         Standard orientation:                         
 ---------------------------------------------------------------------
 Center     Atomic      Atomic             Coordinates (Angstroms)
 Number     Number       Type             X           Y           Z
 ---------------------------------------------------------------------
      1          6           0        0.000000    0.000000    0.000000
      2          1           0        0.627837    0.627837    0.627837
      3          1           0       -0.627837   -0.627837    0.627837
      4          1           0        0.627837   -0.627837   -0.627837
      5          1           0       -0.627837    0.627837   -0.627837
 ---------------------------------------------------------------------
 Rotational constants (GHZ):         159.0187163         159.0187163         159.0187163
 Leave Link  202 at Wed Oct 21 14:21:28 2020, MaxMem=  2684354560 cpu:               3.9 elap:               0.8
 (Enter /udrive/faculty/rpeverati/g16/g16/l9999.exe)

 Test job not archived.
 1\1\GINC-NODE19\FOpt\RPM3\ZDO\C1H4\RPEVERATI\21-Oct-2020\0\\#P Opt(Max
 Cyc=150) PM3 5D 7F Integral=UltraFineGrid SCF=(NoSymm,XQC,MaxCyc=120) 
 IOp(1/33=1)\\TS search on BH76.\\0,1\C,0.,0.,0.\H,0.62783701,0.6278370
 1,0.62783701\H,-0.62783701,-0.62783701,0.62783701\H,0.62783701,-0.6278
 3701,-0.62783701\H,-0.62783701,0.62783701,-0.62783701\\Version=ES64L-G
 16RevA.03\State=1-A1\HF=-0.0207549\RMSD=6.025e-10\RMSF=1.724e-04\Dipol
 e=0.,0.,0.\PG=TD [O(C1),4C3(H1)]\\@


 I DO NOT DEFINE TIME, SPACE, PLACE, AND MOTION, AS BEING WELL KNOWN TO ALL.
                                            -- NEWTON (1642-1726), PRINCIPIA
 Job cpu time:       0 days  0 hours  2 minutes 37.0 seconds.
 Elapsed time:       0 days  0 hours  0 minutes 32.7 seconds.
 File lengths (MBytes):  RWF=      5 Int=      0 D2E=      0 Chk=      2 Scr=      1
 Normal termination of Gaussian 16 at Wed Oct 21 14:21:31 2020.
