 Entering Gaussian System, Link 0=g16
 Input=MN_28_clch3clts_BH76_PM3_SE.in
 Output=MN_28_clch3clts_BH76_PM3_SE.log
 Initial command:
 /udrive/faculty/rpeverati/g16/g16/l1.exe "/udrive/scratch-directories/gaussian09/rpeverati/Gau-17520.inp" -scrdir="/udrive/scratch-directories/gaussian09/rpeverati/"
 Entering Link 1 = /udrive/faculty/rpeverati/g16/g16/l1.exe PID=     17534.
  
 Copyright (c) 1988,1990,1992,1993,1995,1998,2003,2009,2016,
            Gaussian, Inc.  All Rights Reserved.
  
 This is part of the Gaussian(R) 16 program.  It is based on
 the Gaussian(R) 09 system (copyright 2009, Gaussian, Inc.),
 the Gaussian(R) 03 system (copyright 2003, Gaussian, Inc.),
 the Gaussian(R) 98 system (copyright 1998, Gaussian, Inc.),
 the Gaussian(R) 94 system (copyright 1995, Gaussian, Inc.),
 the Gaussian 92(TM) system (copyright 1992, Gaussian, Inc.),
 the Gaussian 90(TM) system (copyright 1990, Gaussian, Inc.),
 the Gaussian 88(TM) system (copyright 1988, Gaussian, Inc.),
 the Gaussian 86(TM) system (copyright 1986, Carnegie Mellon
 University), and the Gaussian 82(TM) system (copyright 1983,
 Carnegie Mellon University). Gaussian is a federally registered
 trademark of Gaussian, Inc.
  
 This software contains proprietary and confidential information,
 including trade secrets, belonging to Gaussian, Inc.
  
 This software is provided under written license and may be
 used, copied, transmitted, or stored only in accord with that
 written license.
  
 The following legend is applicable only to US Government
 contracts under FAR:
  
                    RESTRICTED RIGHTS LEGEND
  
 Use, reproduction and disclosure by the US Government is
 subject to restrictions as set forth in subparagraphs (a)
 and (c) of the Commercial Computer Software - Restricted
 Rights clause in FAR 52.227-19.
  
 Gaussian, Inc.
 340 Quinnipiac St., Bldg. 40, Wallingford CT 06492
  
  
 ---------------------------------------------------------------
 Warning -- This program may not be used in any manner that
 competes with the business of Gaussian, Inc. or will provide
 assistance to any competitor of Gaussian, Inc.  The licensee
 of this program is prohibited from giving any competitor of
 Gaussian, Inc. access to this program.  By using this program,
 the user acknowledges that Gaussian, Inc. is engaged in the
 business of creating and licensing software in the field of
 computational chemistry and represents and warrants to the
 licensee that it is not a competitor of Gaussian, Inc. and that
 it will not use this program in any manner prohibited above.
 ---------------------------------------------------------------
  

 Cite this work as:
 Gaussian 16, Revision A.03,
 M. J. Frisch, G. W. Trucks, H. B. Schlegel, G. E. Scuseria, 
 M. A. Robb, J. R. Cheeseman, G. Scalmani, V. Barone, 
 G. A. Petersson, H. Nakatsuji, X. Li, M. Caricato, A. V. Marenich, 
 J. Bloino, B. G. Janesko, R. Gomperts, B. Mennucci, H. P. Hratchian, 
 J. V. Ortiz, A. F. Izmaylov, J. L. Sonnenberg, D. Williams-Young, 
 F. Ding, F. Lipparini, F. Egidi, J. Goings, B. Peng, A. Petrone, 
 T. Henderson, D. Ranasinghe, V. G. Zakrzewski, J. Gao, N. Rega, 
 G. Zheng, W. Liang, M. Hada, M. Ehara, K. Toyota, R. Fukuda, 
 J. Hasegawa, M. Ishida, T. Nakajima, Y. Honda, O. Kitao, H. Nakai, 
 T. Vreven, K. Throssell, J. A. Montgomery, Jr., J. E. Peralta, 
 F. Ogliaro, M. J. Bearpark, J. J. Heyd, E. N. Brothers, K. N. Kudin, 
 V. N. Staroverov, T. A. Keith, R. Kobayashi, J. Normand, 
 K. Raghavachari, A. P. Rendell, J. C. Burant, S. S. Iyengar, 
 J. Tomasi, M. Cossi, J. M. Millam, M. Klene, C. Adamo, R. Cammi, 
 J. W. Ochterski, R. L. Martin, K. Morokuma, O. Farkas, 
 J. B. Foresman, and D. J. Fox, Gaussian, Inc., Wallingford CT, 2016.
 
 ******************************************
 Gaussian 16:  ES64L-G16RevA.03 25-Dec-2016
                21-Oct-2020 
 ******************************************
 %NoSave
 %nproc=12
 Will use up to   12 processors via shared memory.
 %mem=20GB
 %chk=MN_28_clch3clts_BH76_PM3_SE
 ----------------------------------------------------------------------
 #P Opt(TS,MaxCyc=50,NoEigenTest,MaxStep=10,AddRedundant) PM3 5D 7F Int
 egral=UltraFineGrid SCF=(NoSymm,XQC,MaxCyc=120) IOp(1/33=1)
 ----------------------------------------------------------------------
 1/5=1,6=50,8=10,11=1,18=120,26=1,33=1,38=1/1,3;
 2/9=110,12=2,17=6,18=5,40=1/2;
 3/5=2,8=11,25=1,41=800000,71=1,75=-5/1,2,3;
 4/9=2,35=1/1;
 5/5=2,7=120,8=3,13=1,35=1,38=5/2,8;
 6/7=2,8=2,9=2,10=2,28=1/1;
 7//1,2,3,16;
 1/5=1,6=50,8=10,11=1,18=20,26=1,33=1/3(2);
 2/9=110/2;
 99//99;
 2/9=110/2;
 3/5=2,8=11,25=1,41=800000,71=1,75=-5,135=20/1,2,3;
 4/5=5,9=2,16=3,35=1/1;
 5/5=2,7=120,8=3,13=1,35=1,38=5/2,8;
 7//1,2,3,16;
 1/5=1,6=50,8=10,11=1,18=20,26=1,33=1/3(-5);
 2/9=110/2;
 6/7=2,8=2,9=2,10=2,19=2,28=1/1;
 99/9=1/99;
 Leave Link    1 at Wed Oct 21 14:20:41 2020, MaxMem=  2684354560 cpu:               7.6 elap:               0.8
 (Enter /udrive/faculty/rpeverati/g16/g16/l101.exe)
 ONIOM data not found on unit 2.
 ------------------
 TS search on BH76.
 ------------------
 TstMul:  ICh=    -1
 TstMul:  Mul=     1
 TstMul:  ICh=    -1
 TstMul:  Mul=     1
 Symbolic Z-matrix:
 Charge = -1 Multiplicity = 1
 Cl                    0.00003   0.01953   2.3225 
 C                     0.00051   0.00049  -0.00009 
 H                     0.76128  -0.75073   0.00638 
 H                    -1.03045  -0.28272   0.00215 
 H                     0.27073   1.03493  -0.0087 
 Cl                   -0.0003   -0.01978  -2.32246 
 
 RdStrC is calling ZToCFu for IStruc=1 NZ=     6.
 PrtBox:  NBox=     2 Levels=  1 BoxLen=    8.00 SMaxX=        8.78
          Shift=            1.947270            1.418680            4.388810
 Box      1 Number                   0 centers from      1 to      5:
 Box      2 Number                   1 centers from      6 to      6:
 After GenITR:
 ITRead=  0  0  0  0  0  0
 MicOpt= -1 -1 -1 -1 -1 -1
 Add virtual bond connecting atoms Cl6        and C2         Dist= 4.39D+00.
 Add virtual bond connecting atoms C2         and Cl1        Dist= 4.39D+00.
 The following ModRedundant input section has been read:
 
 ITRead=  0  0  0  0  0  0
 MicOpt= -1 -1 -1 -1 -1 -1
 NAtoms=      6 NQM=        6 NQMF=       0 NMMI=      0 NMMIF=      0
                NMic=       0 NMicF=      0.
                    Isotopes and Nuclear Properties:
 (Nuclear quadrupole moments (NQMom) in fm**2, nuclear magnetic moments (NMagM)
  in nuclear magnetons)

  Atom         1           2           3           4           5           6
 IAtWgt=          35          12           1           1           1          35
 AtmWgt=  34.9688527  12.0000000   1.0078250   1.0078250   1.0078250  34.9688527
 NucSpn=           3           0           1           1           1           3
 AtZEff=   0.0000000   0.0000000   0.0000000   0.0000000   0.0000000   0.0000000
 NQMom=   -8.1650000   0.0000000   0.0000000   0.0000000   0.0000000  -8.1650000
 NMagM=    0.8218740   0.0000000   2.7928460   2.7928460   2.7928460   0.8218740
 AtZNuc=  17.0000000   6.0000000   1.0000000   1.0000000   1.0000000  17.0000000
 No MM parameters found.
 Leave Link  101 at Wed Oct 21 14:20:43 2020, MaxMem=  2684354560 cpu:              15.1 elap:               1.5
 (Enter /udrive/faculty/rpeverati/g16/g16/l103.exe)

 GradGradGradGradGradGradGradGradGradGradGradGradGradGradGradGradGradGrad
 Berny optimization.
 Optmz: redundant internal coordinate code flag= 1
 Initialization pass.
                           ----------------------------
                           !    Initial Parameters    !
                           ! (Angstroms and Degrees)  !
 --------------------------                            --------------------------
 ! Name  Definition              Value          Derivative Info.                !
 --------------------------------------------------------------------------------
 ! R1    R(1,2)                  2.3227         estimate D2E/DX2                !
 ! R2    R(2,3)                  1.0692         estimate D2E/DX2                !
 ! R3    R(2,4)                  1.0692         estimate D2E/DX2                !
 ! R4    R(2,5)                  1.0692         estimate D2E/DX2                !
 ! R5    R(2,6)                  2.3225         estimate D2E/DX2                !
 ! A1    A(1,2,3)               89.9921         estimate D2E/DX2                !
 ! A2    A(1,2,4)               89.993          estimate D2E/DX2                !
 ! A3    A(1,2,5)               90.0099         estimate D2E/DX2                !
 ! A4    A(3,2,4)              119.9998         estimate D2E/DX2                !
 ! A5    A(3,2,5)              120.0002         estimate D2E/DX2                !
 ! A6    A(3,2,6)               90.0094         estimate D2E/DX2                !
 ! A7    A(4,2,5)              120.0            estimate D2E/DX2                !
 ! A8    A(4,2,6)               89.9681         estimate D2E/DX2                !
 ! A9    A(5,2,6)               90.0276         estimate D2E/DX2                !
 ! A10   L(1,2,6,3,-1)         180.0014         estimate D2E/DX2                !
 ! A11   L(1,2,6,3,-2)         179.9559         estimate D2E/DX2                !
 ! D1    D(3,2,5,4)           -179.9942         estimate D2E/DX2                !
 ! D2    D(3,2,6,4)            119.9998         estimate D2E/DX2                !
 ! D3    D(3,2,6,5)           -120.0002         estimate D2E/DX2                !
 ! D4    D(4,2,6,5)            120.0            estimate D2E/DX2                !
 --------------------------------------------------------------------------------
 Maximum allowed force set to 1.00D+20.
 Trust Radius=1.00D-01 FncErr=1.00D-07 GrdErr=1.00D-07 EigMax=2.50D+02 EigMin=1.00D-04
 Number of steps in this run=     50 maximum allowed number of steps=    100.
 Search for a saddle point of order  1.
 GradGradGradGradGradGradGradGradGradGradGradGradGradGradGradGradGradGrad

 Leave Link  103 at Wed Oct 21 14:20:44 2020, MaxMem=  2684354560 cpu:               2.2 elap:               0.9
 (Enter /udrive/faculty/rpeverati/g16/g16/l202.exe)
                          Input orientation:                          
 ---------------------------------------------------------------------
 Center     Atomic      Atomic             Coordinates (Angstroms)
 Number     Number       Type             X           Y           Z
 ---------------------------------------------------------------------
      1         17           0        0.000025    0.019526    2.322501
      2          6           0        0.000513    0.000486   -0.000089
      3          1           0        0.761280   -0.750733    0.006377
      4          1           0       -1.030451   -0.282724    0.002147
      5          1           0        0.270728    1.034928   -0.008697
      6         17           0       -0.000297   -0.019784   -2.322458
 ---------------------------------------------------------------------
                    Distance matrix (angstroms):
                    1          2          3          4          5
     1  Cl   0.000000
     2  C    2.322668   0.000000
     3  H    2.556802   1.069176   0.000000
     4  H    2.556810   1.069158   1.851850   0.000000
     5  H    2.557108   1.069187   1.851878   1.851861   0.000000
     6  Cl   4.645125   2.322458   2.556904   2.556197   2.557218
                    6
     6  Cl   0.000000
 This structure is nearly, but not quite of a higher symmetry.
 Consider Symm=Loose if the higher symmetry is desired.
 Stoichiometry    CH3Cl2(1-)
 Framework group  C1[X(CH3Cl2)]
 Deg. of freedom    12
 Full point group                 C1      NOp   1
 Largest Abelian subgroup         C1      NOp   1
 Largest concise Abelian subgroup C1      NOp   1
                         Standard orientation:                         
 ---------------------------------------------------------------------
 Center     Atomic      Atomic             Coordinates (Angstroms)
 Number     Number       Type             X           Y           Z
 ---------------------------------------------------------------------
      1         17           0        2.322582   -0.000129    0.000605
      2          6           0       -0.000085    0.000479   -0.000520
      3          1           0        0.000226   -0.762113   -0.749914
      4          1           0       -0.000525   -0.267219    1.034582
      5          1           0        0.000138    1.030780   -0.286246
      6         17           0       -2.322543   -0.000126   -0.000329
 ---------------------------------------------------------------------
 Rotational constants (GHZ):         146.2220977           1.3334790           1.3334788
 Leave Link  202 at Wed Oct 21 14:20:45 2020, MaxMem=  2684354560 cpu:               2.1 elap:               0.6
 (Enter /udrive/faculty/rpeverati/g16/g16/l301.exe)
 Standard basis: VSTO-6G (5D, 7F)
 Ernie: Thresh=  0.10000D-02 Tol=  0.10000D-05 Strict=F.
  NNHCO=     0 NNPyr=     0 NCTC=     0               EPep=         0.000000000
    EC=        30.030803050  ECS=         0.411149208   EG=         0.063717683
   EHC=         0.000000000  EAt=       -28.695333776  AtH=         0.613817027
 EPDDG=         0.000000000  ECC=        30.505669941 EAtT=        29.309150803
 There are    15 symmetry adapted cartesian basis functions of A   symmetry.
 There are    15 symmetry adapted basis functions of A   symmetry.
    15 basis functions,    90 primitive gaussians,    15 cartesian basis functions
    11 alpha electrons       11 beta electrons
       nuclear repulsion energy        59.8148207438 Hartrees.
 IExCor=    0 DFT=F Ex=HF Corr=None ExCW=0 ScaHFX=  1.000000
 ScaDFX=  1.000000  1.000000  1.000000  1.000000 ScalE2=  1.000000  1.000000
 IRadAn=      5 IRanWt=     -1 IRanGd=            0 ICorTp=0 IEmpDi=  4
 Integral buffers will be    131072 words long.
 Regular integral format.
 Two-electron integral symmetry is turned off.
 Leave Link  301 at Wed Oct 21 14:20:46 2020, MaxMem=  2684354560 cpu:               3.6 elap:               0.9
 (Enter /udrive/faculty/rpeverati/g16/g16/l302.exe)
 Do NDO integrals.
 NPDir=0 NMtPBC=     1 NCelOv=     1 NCel=       1 NClECP=     1 NCelD=      1
         NCelK=      1 NCelE2=     1 NClLst=     1 CellRange=     0.0.
 One-electron integrals computed using PRISM.
 NBasis=    15 RedAO= F EigKep=  0.00D+00  NBF=    15
 NBsUse=    15 1.00D-04 EigRej=  0.00D+00 NBFU=    15
 Leave Link  302 at Wed Oct 21 14:20:47 2020, MaxMem=  2684354560 cpu:               4.6 elap:               1.0
 (Enter /udrive/faculty/rpeverati/g16/g16/l303.exe)
 DipDrv:  MaxL=1.
 Leave Link  303 at Wed Oct 21 14:20:49 2020, MaxMem=  2684354560 cpu:               3.2 elap:               0.9
 (Enter /udrive/faculty/rpeverati/g16/g16/l401.exe)
 SCF N**3 symmetry information disabled.
 Simple Huckel Guess.
 JPrj=0 DoOrth=F DoCkMO=F.
 Leave Link  401 at Wed Oct 21 14:20:50 2020, MaxMem=  2684354560 cpu:               2.9 elap:               0.9
 (Enter /udrive/faculty/rpeverati/g16/g16/l502.exe)
 Keep J ints in memory in canonical form, NReq=859737.
 FoFCou: FMM=F IPFlag=           0 FMFlag=           0 FMFlg1=           0
         NFxFlg=           0 DoJE=F BraDBF=F KetDBF=F FulRan=T
         wScrn=  0.000000 ICntrl=       600 IOpCl=  2 I1Cent=           0 NGrid=           0
         NMat0=    1 NMatS0=     33 NMatT0=    0 NMatD0=    1 NMtDS0=    0 NMtDT0=    0
 Symmetry not used in FoFCou.
 Two-electron integral symmetry not used.
 Closed shell SCF:
 Using DIIS extrapolation, IDIIS=  1040.
 Overlap will be assumed to be unity.
 NGot=  2684354560 LenX=  2684293520 LenY=  2684292638
 Requested convergence on RMS density matrix=1.00D-08 within 120 cycles.
 Requested convergence on MAX density matrix=1.00D-06.
 Requested convergence on             energy=1.00D-06.
 No special actions if energy rises.

 Cycle   1  Pass 1  IDiag  1:
 E= 0.519922293751378E-01
 DIIS: error= 9.69D-02 at cycle   1 NSaved=   1.
 NSaved= 1 IEnMin= 1 EnMin= 0.519922293751378E-01 IErMin= 1 ErrMin= 9.69D-02
 ErrMax= 9.69D-02  0.00D+00 EMaxC= 1.00D-01 BMatC= 1.15D-01 BMatP= 1.15D-01
 IDIUse=3 WtCom= 3.11D-02 WtEn= 9.69D-01
 Coeff-Com:  0.100D+01
 Coeff-En:   0.100D+01
 Coeff:      0.100D+01
 GapD=    2.000 DampG=2.000 DampE=0.500 DampFc=1.0000 IDamp=-1.
 RMSDP=1.84D-02 MaxDP=9.51D-02              OVMax= 0.00D+00

 Cycle   2  Pass 1  IDiag  1:
 E=-0.934710361928950E-01 Delta-E=       -0.145463265568 Rises=F Damp=F
 DIIS: error= 8.51D-03 at cycle   2 NSaved=   2.
 NSaved= 2 IEnMin= 2 EnMin=-0.934710361928950E-01 IErMin= 2 ErrMin= 8.51D-03
 ErrMax= 8.51D-03  0.00D+00 EMaxC= 1.00D-01 BMatC= 1.58D-03 BMatP= 1.15D-01
 IDIUse=3 WtCom= 9.15D-01 WtEn= 8.51D-02
 Coeff-Com: -0.111D+00 0.111D+01
 Coeff-En:   0.000D+00 0.100D+01
 Coeff:     -0.102D+00 0.110D+01
 RMSDP=4.07D-03 MaxDP=2.63D-02 DE=-1.45D-01 OVMax= 0.00D+00

 Cycle   3  Pass 1  IDiag  3:
 E=-0.969780646161311E-01 Delta-E=       -0.003507028423 Rises=F Damp=F
 DIIS: error= 1.64D-03 at cycle   3 NSaved=   3.
 NSaved= 3 IEnMin= 3 EnMin=-0.969780646161311E-01 IErMin= 3 ErrMin= 1.64D-03
 ErrMax= 1.64D-03  0.00D+00 EMaxC= 1.00D-01 BMatC= 5.19D-05 BMatP= 1.58D-03
 IDIUse=3 WtCom= 9.84D-01 WtEn= 1.64D-02
 Coeff-Com:  0.347D-01-0.442D+00 0.141D+01
 Coeff-En:   0.000D+00 0.000D+00 0.100D+01
 Coeff:      0.341D-01-0.435D+00 0.140D+01
 Gap=     0.318 Goal=   None    Shift=    0.000
 RMSDP=1.86D-03 MaxDP=1.38D-02 DE=-3.51D-03 OVMax= 1.63D-02

 Cycle   4  Pass 1  IDiag  3:
 E=-0.972865611911544E-01 Delta-E=       -0.000308496575 Rises=F Damp=F
 DIIS: error= 3.44D-04 at cycle   4 NSaved=   4.
 NSaved= 4 IEnMin= 4 EnMin=-0.972865611911544E-01 IErMin= 4 ErrMin= 3.44D-04
 ErrMax= 3.44D-04  0.00D+00 EMaxC= 1.00D-01 BMatC= 2.02D-06 BMatP= 5.19D-05
 IDIUse=3 WtCom= 9.97D-01 WtEn= 3.44D-03
 Coeff-Com: -0.202D-01 0.251D+00-0.885D+00 0.165D+01
 Coeff-En:   0.000D+00 0.000D+00 0.000D+00 0.100D+01
 Coeff:     -0.202D-01 0.250D+00-0.882D+00 0.165D+01
 Gap=     0.318 Goal=   None    Shift=    0.000
 RMSDP=5.45D-04 MaxDP=3.67D-03 DE=-3.08D-04 OVMax= 4.39D-03

 Cycle   5  Pass 1  IDiag  3:
 E=-0.973032117403818E-01 Delta-E=       -0.000016650549 Rises=F Damp=F
 DIIS: error= 2.15D-05 at cycle   5 NSaved=   5.
 NSaved= 5 IEnMin= 5 EnMin=-0.973032117403818E-01 IErMin= 5 ErrMin= 2.15D-05
 ErrMax= 2.15D-05  0.00D+00 EMaxC= 1.00D-01 BMatC= 1.32D-08 BMatP= 2.02D-06
 IDIUse=1 WtCom= 1.00D+00 WtEn= 0.00D+00
 Coeff-Com:  0.330D-02-0.407D-01 0.146D+00-0.327D+00 0.122D+01
 Coeff:      0.330D-02-0.407D-01 0.146D+00-0.327D+00 0.122D+01
 Gap=     0.318 Goal=   None    Shift=    0.000
 RMSDP=3.35D-05 MaxDP=1.46D-04 DE=-1.67D-05 OVMax= 3.23D-04

 Cycle   6  Pass 1  IDiag  3:
 E=-0.973032925572568E-01 Delta-E=       -0.000000080817 Rises=F Damp=F
 DIIS: error= 5.74D-06 at cycle   6 NSaved=   6.
 NSaved= 6 IEnMin= 6 EnMin=-0.973032925572568E-01 IErMin= 6 ErrMin= 5.74D-06
 ErrMax= 5.74D-06  0.00D+00 EMaxC= 1.00D-01 BMatC= 7.03D-10 BMatP= 1.32D-08
 IDIUse=1 WtCom= 1.00D+00 WtEn= 0.00D+00
 Coeff-Com: -0.110D-02 0.137D-01-0.498D-01 0.129D+00-0.674D+00 0.158D+01
 Coeff:     -0.110D-02 0.137D-01-0.498D-01 0.129D+00-0.674D+00 0.158D+01
 Gap=     0.318 Goal=   None    Shift=    0.000
 RMSDP=8.84D-06 MaxDP=5.95D-05 DE=-8.08D-08 OVMax= 7.15D-05

 Cycle   7  Pass 1  IDiag  3:
 E=-0.973032973335961E-01 Delta-E=       -0.000000004776 Rises=F Damp=F
 DIIS: error= 3.83D-07 at cycle   7 NSaved=   7.
 NSaved= 7 IEnMin= 7 EnMin=-0.973032973335961E-01 IErMin= 7 ErrMin= 3.83D-07
 ErrMax= 3.83D-07  0.00D+00 EMaxC= 1.00D-01 BMatC= 5.23D-12 BMatP= 7.03D-10
 IDIUse=1 WtCom= 1.00D+00 WtEn= 0.00D+00
 Coeff-Com:  0.407D-04-0.523D-03 0.194D-02-0.696D-02 0.404D-01-0.116D+00
 Coeff-Com:  0.108D+01
 Coeff:      0.407D-04-0.523D-03 0.194D-02-0.696D-02 0.404D-01-0.116D+00
 Coeff:      0.108D+01
 Gap=     0.318 Goal=   None    Shift=    0.000
 RMSDP=6.81D-07 MaxDP=3.71D-06 DE=-4.78D-09 OVMax= 4.44D-06

 Cycle   8  Pass 1  IDiag  3:
 E=-0.973032973667500E-01 Delta-E=       -0.000000000033 Rises=F Damp=F
 DIIS: error= 1.16D-07 at cycle   8 NSaved=   8.
 NSaved= 8 IEnMin= 8 EnMin=-0.973032973667500E-01 IErMin= 8 ErrMin= 1.16D-07
 ErrMax= 1.16D-07  0.00D+00 EMaxC= 1.00D-01 BMatC= 5.42D-13 BMatP= 5.23D-12
 IDIUse=1 WtCom= 1.00D+00 WtEn= 0.00D+00
 Coeff-Com: -0.394D-05 0.597D-04-0.229D-03 0.192D-02-0.121D-01 0.412D-01
 Coeff-Com: -0.756D+00 0.172D+01
 Coeff:     -0.394D-05 0.597D-04-0.229D-03 0.192D-02-0.121D-01 0.412D-01
 Coeff:     -0.756D+00 0.172D+01
 Gap=     0.318 Goal=   None    Shift=    0.000
 RMSDP=2.58D-07 MaxDP=1.14D-06 DE=-3.32D-11 OVMax= 1.42D-06

 Cycle   9  Pass 1  IDiag  3:
 E=-0.973032973712691E-01 Delta-E=       -0.000000000005 Rises=F Damp=F
 DIIS: error= 3.98D-08 at cycle   9 NSaved=   9.
 NSaved= 9 IEnMin= 9 EnMin=-0.973032973712691E-01 IErMin= 9 ErrMin= 3.98D-08
 ErrMax= 3.98D-08  0.00D+00 EMaxC= 1.00D-01 BMatC= 2.39D-14 BMatP= 5.42D-13
 IDIUse=1 WtCom= 1.00D+00 WtEn= 0.00D+00
 Coeff-Com:  0.490D-06-0.103D-04 0.425D-04-0.617D-03 0.395D-02-0.140D-01
 Coeff-Com:  0.283D+00-0.766D+00 0.149D+01
 Coeff:      0.490D-06-0.103D-04 0.425D-04-0.617D-03 0.395D-02-0.140D-01
 Coeff:      0.283D+00-0.766D+00 0.149D+01
 Gap=     0.318 Goal=   None    Shift=    0.000
 RMSDP=6.38D-08 MaxDP=4.05D-07 DE=-4.52D-12 OVMax= 4.82D-07

 Cycle  10  Pass 1  IDiag  3:
 E=-0.973032973714041E-01 Delta-E=       -0.000000000000 Rises=F Damp=F
 DIIS: error= 1.33D-08 at cycle  10 NSaved=  10.
 NSaved=10 IEnMin=10 EnMin=-0.973032973714041E-01 IErMin=10 ErrMin= 1.33D-08
 ErrMax= 1.33D-08  0.00D+00 EMaxC= 1.00D-01 BMatC= 2.05D-15 BMatP= 2.39D-14
 IDIUse=1 WtCom= 1.00D+00 WtEn= 0.00D+00
 Coeff-Com: -0.235D-06 0.471D-05-0.195D-04 0.263D-03-0.170D-02 0.594D-02
 Coeff-Com: -0.118D+00 0.343D+00-0.932D+00 0.170D+01
 Coeff:     -0.235D-06 0.471D-05-0.195D-04 0.263D-03-0.170D-02 0.594D-02
 Coeff:     -0.118D+00 0.343D+00-0.932D+00 0.170D+01
 Gap=     0.318 Goal=   None    Shift=    0.000
 RMSDP=2.33D-08 MaxDP=1.62D-07 DE=-1.35D-13 OVMax= 1.88D-07

 Cycle  11  Pass 1  IDiag  3:
 E=-0.973032973715249E-01 Delta-E=       -0.000000000000 Rises=F Damp=F
 DIIS: error= 2.27D-09 at cycle  11 NSaved=  11.
 NSaved=11 IEnMin=11 EnMin=-0.973032973715249E-01 IErMin=11 ErrMin= 2.27D-09
 ErrMax= 2.27D-09  0.00D+00 EMaxC= 1.00D-01 BMatC= 7.46D-17 BMatP= 2.05D-15
 IDIUse=1 WtCom= 1.00D+00 WtEn= 0.00D+00
 Coeff-Com:  0.170D-06-0.319D-05 0.129D-04-0.162D-03 0.104D-02-0.361D-02
 Coeff-Com:  0.715D-01-0.212D+00 0.594D+00-0.118D+01 0.173D+01
 Coeff:      0.170D-06-0.319D-05 0.129D-04-0.162D-03 0.104D-02-0.361D-02
 Coeff:      0.715D-01-0.212D+00 0.594D+00-0.118D+01 0.173D+01
 Gap=     0.318 Goal=   None    Shift=    0.000
 RMSDP=4.09D-09 MaxDP=2.83D-08 DE=-1.21D-13 OVMax= 3.31D-08

 Cycle  12  Pass 2  IDiag  1:
 SCF Done:  E(RPM3) = -0.973032973715E-01 A.U. after   12 cycles
            NFock= 11  Conv=0.41D-08     -V/T= 0.9979
 KE=-4.552788892953D+01 PE=-6.098310381579D+01 EE= 4.659886870411D+01
 Leave Link  502 at Wed Oct 21 14:20:52 2020, MaxMem=  2684354560 cpu:               9.7 elap:               1.5
 (Enter /udrive/faculty/rpeverati/g16/g16/l508.exe)
 QCSCF skips out because SCF is already converged.
 Leave Link  508 at Wed Oct 21 14:20:53 2020, MaxMem=  2684354560 cpu:               0.6 elap:               0.6
 (Enter /udrive/faculty/rpeverati/g16/g16/l601.exe)
 Copying SCF densities to generalized density rwf, IOpCl= 0 IROHF=0.

 **********************************************************************

            Population analysis using the SCF density.

 **********************************************************************

 Orbital symmetries:
       Occupied  (A) (A) (A) (A) (A) (A) (A) (A) (A) (A) (A)
       Virtual   (A) (A) (A) (A)
 The electronic state is 1-A.
 Alpha  occ. eigenvalues --   -1.83027  -1.80821  -0.88587  -0.40535  -0.40534
 Alpha  occ. eigenvalues --   -0.26774  -0.21827  -0.21827  -0.21463  -0.21462
 Alpha  occ. eigenvalues --   -0.18805
 Alpha virt. eigenvalues --    0.13015   0.25641   0.30066   0.30068
          Condensed to atoms (all electrons):
               1          2          3          4          5          6
     1  Cl   7.775363   0.000000   0.000000   0.000000   0.000000   0.000000
     2  C    0.000000   3.595877   0.000000   0.000000   0.000000   0.000000
     3  H    0.000000   0.000000   0.951196   0.000000   0.000000   0.000000
     4  H    0.000000   0.000000   0.000000   0.951154   0.000000   0.000000
     5  H    0.000000   0.000000   0.000000   0.000000   0.951233   0.000000
     6  Cl   0.000000   0.000000   0.000000   0.000000   0.000000   7.775178
 Mulliken charges:
               1
     1  Cl  -0.775363
     2  C    0.404123
     3  H    0.048804
     4  H    0.048846
     5  H    0.048767
     6  Cl  -0.775178
 Sum of Mulliken charges =  -1.00000
 Mulliken charges with hydrogens summed into heavy atoms:
               1
     1  Cl  -0.775363
     2  C    0.550541
     6  Cl  -0.775178
 Charge=             -1.0000 electrons
 Dipole moment (field-independent basis, Debye):
    X=             -0.0024    Y=              0.0021    Z=             -0.0023  Tot=              0.0039
 N-N= 5.981482074384D+01 E-N=-6.098310382882D+01  KE=-4.552788892953D+01
 Leave Link  601 at Wed Oct 21 14:20:54 2020, MaxMem=  2684354560 cpu:               2.8 elap:               0.9
 (Enter /udrive/faculty/rpeverati/g16/g16/l701.exe)
 ... and contract with generalized density number  0.
 Compute integral first derivatives.
 Leave Link  701 at Wed Oct 21 14:20:55 2020, MaxMem=  2684354560 cpu:               4.6 elap:               1.0
 (Enter /udrive/faculty/rpeverati/g16/g16/l702.exe)
 L702 exits ... SP integral derivatives will be done elsewhere.
 Leave Link  702 at Wed Oct 21 14:20:57 2020, MaxMem=  2684354560 cpu:               2.2 elap:               0.8
 (Enter /udrive/faculty/rpeverati/g16/g16/l703.exe)
 Integral derivatives from FoFJK, PRISM(SPDF).
 Compute integral first derivatives, UseDBF=F ICtDFT=           0.
 Calling FoFJK, ICntrl=      2127 FMM=F ISym2X=0 I1Cent= 0 IOpClX= 0 NMat=1 NMatS=1 NMatT=0.
 FoFJK:  IHMeth= 9 ICntrl=    2127 DoSepK=F KAlg= 0 I1Cent=           0 FoldK=F
 IRaf=         0 NMat=       1 IRICut=       1 DoRegI=T DoRafI=F ISym2E= 0 IDoP0=3 IntGTp=3.
 FoFCou: FMM=F IPFlag=           0 FMFlag=      100000 FMFlg1=         800
         NFxFlg=           0 DoJE=F BraDBF=F KetDBF=F FulRan=T
         wScrn=  0.000000 ICntrl=      2127 IOpCl=  0 I1Cent=           0 NGrid=           0
         NMat0=    1 NMatS0=      1 NMatT0=    0 NMatD0=    1 NMtDS0=    0 NMtDT0=    0
 Symmetry not used in FoFCou.
 Leave Link  703 at Wed Oct 21 14:20:58 2020, MaxMem=  2684354560 cpu:               3.6 elap:               0.9
 (Enter /udrive/faculty/rpeverati/g16/g16/l716.exe)
 Dipole        =-9.41252733D-04 8.22427677D-04-8.94118943D-04
 ***** Axes restored to original set *****
 -------------------------------------------------------------------
 Center     Atomic                   Forces (Hartrees/Bohr)
 Number     Number              X              Y              Z
 -------------------------------------------------------------------
      1       17           0.000008999   -0.000178204   -0.022673523
      2        6          -0.000015664   -0.000017923   -0.000025362
      3        1           0.003981470   -0.003926515    0.000031140
      4        1          -0.005410000   -0.001484211    0.000033829
      5        1           0.001412024    0.005398082   -0.000047826
      6       17           0.000023171    0.000208770    0.022681742
 -------------------------------------------------------------------
 Cartesian Forces:  Max     0.022681742 RMS     0.007896924
 Leave Link  716 at Wed Oct 21 14:20:59 2020, MaxMem=  2684354560 cpu:               2.7 elap:               0.8
 (Enter /udrive/faculty/rpeverati/g16/g16/l103.exe)

 GradGradGradGradGradGradGradGradGradGradGradGradGradGradGradGradGradGrad
 Berny optimization.
 Optmz: redundant internal coordinate code flag= 1
 FormGI is forming the generalized inverse of G from B-inverse, IUseBI=4.
 Internal  Forces:  Max     0.022682707 RMS     0.007491682
 Search for a saddle point.
 Step number   1 out of a maximum of   50
 All quantities printed in internal units (Hartrees-Bohrs-Radians)
 Swapping is turned off.
 Second derivative matrix not updated -- first step.
 The second derivative matrix:
                          R1        R2        R3        R4        R5
           R1           0.07357
           R2           0.00000   0.37334
           R3           0.00000   0.00000   0.37337
           R4           0.00000   0.00000   0.00000   0.37333
           R5           0.00000   0.00000   0.00000   0.00000   0.07360
           A1           0.00000   0.00000   0.00000   0.00000   0.00000
           A2           0.00000   0.00000   0.00000   0.00000   0.00000
           A3           0.00000   0.00000   0.00000   0.00000   0.00000
           A4           0.00000   0.00000   0.00000   0.00000   0.00000
           A5           0.00000   0.00000   0.00000   0.00000   0.00000
           A6           0.00000   0.00000   0.00000   0.00000   0.00000
           A7           0.00000   0.00000   0.00000   0.00000   0.00000
           A8           0.00000   0.00000   0.00000   0.00000   0.00000
           A9           0.00000   0.00000   0.00000   0.00000   0.00000
           A10          0.00000   0.00000   0.00000   0.00000   0.00000
           A11          0.00000   0.00000   0.00000   0.00000   0.00000
           D1           0.00000   0.00000   0.00000   0.00000   0.00000
           D2           0.00000   0.00000   0.00000   0.00000   0.00000
           D3           0.00000   0.00000   0.00000   0.00000   0.00000
           D4           0.00000   0.00000   0.00000   0.00000   0.00000
                          A1        A2        A3        A4        A5
           A1           0.16000
           A2           0.00000   0.16000
           A3           0.00000   0.00000   0.16000
           A4           0.00000   0.00000   0.00000   0.16000
           A5           0.00000   0.00000   0.00000   0.00000   0.16000
           A6           0.00000   0.00000   0.00000   0.00000   0.00000
           A7           0.00000   0.00000   0.00000   0.00000   0.00000
           A8           0.00000   0.00000   0.00000   0.00000   0.00000
           A9           0.00000   0.00000   0.00000   0.00000   0.00000
           A10          0.00000   0.00000   0.00000   0.00000   0.00000
           A11          0.00000   0.00000   0.00000   0.00000   0.00000
           D1           0.00000   0.00000   0.00000   0.00000   0.00000
           D2           0.00000   0.00000   0.00000   0.00000   0.00000
           D3           0.00000   0.00000   0.00000   0.00000   0.00000
           D4           0.00000   0.00000   0.00000   0.00000   0.00000
                          A6        A7        A8        A9        A10
           A6           0.16000
           A7           0.00000   0.16000
           A8           0.00000   0.00000   0.16000
           A9           0.00000   0.00000   0.00000   0.16000
           A10          0.00000   0.00000   0.00000   0.00000   0.00230
           A11          0.00000   0.00000   0.00000   0.00000   0.00000
           D1           0.00000   0.00000   0.00000   0.00000   0.00000
           D2           0.00000   0.00000   0.00000   0.00000   0.00000
           D3           0.00000   0.00000   0.00000   0.00000   0.00000
           D4           0.00000   0.00000   0.00000   0.00000   0.00000
                          A11       D1        D2        D3        D4
           A11          0.00230
           D1           0.00000   0.00510
           D2           0.00000   0.00000   0.00230
           D3           0.00000   0.00000   0.00000   0.00230
           D4           0.00000   0.00000   0.00000   0.00000   0.00230
 ITU=  0
 Eigenvectors of the second derivative matrix:
                           1         2         3         4         5
     Eigenvalues --     0.05673   0.06989   0.06989   0.07357   0.07360
   1         R1         0.00000   0.00000   0.00000   1.00000  -0.00000
   2         R2         0.00000  -0.00000  -0.00000   0.00000   0.00000
   3         R3        -0.00000   0.00000   0.00000  -0.00000   0.00000
   4         R4         0.00000  -0.00000  -0.00000   0.00000  -0.00000
   5         R5         0.00000   0.00000   0.00000   0.00000   1.00000
   6         A1         0.23570   0.26552   0.26899  -0.00000  -0.00000
   7         A2         0.23570  -0.36571   0.09545   0.00000  -0.00000
   8         A3         0.23570   0.10019  -0.36444   0.00000   0.00000
   9         A4         0.00034   0.00001  -0.00038   0.00000   0.00000
  10         A5        -0.00040   0.00059  -0.00033   0.00000   0.00000
  11         A6        -0.23570   0.26552   0.26899  -0.00000  -0.00000
  12         A7         0.00014  -0.00060   0.00071  -0.00000  -0.00000
  13         A8        -0.23570  -0.36571   0.09545   0.00000   0.00000
  14         A9        -0.23570   0.10019  -0.36444   0.00000   0.00000
  15         A10       -0.00000   0.53104   0.53798  -0.00000  -0.00000
  16         A11        0.00000  -0.53798   0.53104  -0.00000   0.00000
  17         D1        -0.81650  -0.00000   0.00000   0.00000   0.00000
  18         D2         0.00050  -0.00009  -0.00054   0.00000   0.00000
  19         D3         0.00066  -0.00081   0.00033  -0.00000  -0.00000
  20         D4         0.00017  -0.00072   0.00087  -0.00000  -0.00000
                           6         7         8         9        10
     Eigenvalues --     0.08115   0.08115   0.16000   0.16000   0.37333
   1         R1         0.00000   0.00000  -0.00000   0.00000  -0.00000
   2         R2         0.00000  -0.00000  -0.00000   0.00000  -0.00000
   3         R3         0.00000   0.00000  -0.00000  -0.00000  -0.00000
   4         R4        -0.00000  -0.00000   0.00000   0.00000  -1.00000
   5         R5         0.00000   0.00000   0.00000  -0.00000   0.00000
   6         A1        -0.00021   0.00000  -0.44203  -0.37141  -0.00000
   7         A2        -0.00015  -0.00093   0.54266  -0.19710   0.00000
   8         A3         0.00063   0.00039  -0.10064   0.56851   0.00000
   9         A4        -0.55770   0.14936   0.00017   0.00023   0.00000
  10         A5         0.14950  -0.55766  -0.00033   0.00002   0.00000
  11         A6        -0.00024   0.00027   0.44203   0.37141  -0.00000
  12         A7         0.40820   0.40830   0.00016  -0.00025  -0.00000
  13         A8        -0.00041  -0.00014  -0.54266   0.19710   0.00000
  14         A9         0.00012   0.00069   0.10064  -0.56851   0.00000
  15         A10       -0.00045   0.00027   0.00000  -0.00000  -0.00000
  16         A11       -0.00068  -0.00114  -0.00000   0.00000  -0.00000
  17         D1        -0.00038   0.00064  -0.00000  -0.00000  -0.00000
  18         D2        -0.55770   0.14936   0.00000   0.00000   0.00000
  19         D3        -0.14950   0.55766  -0.00000   0.00000  -0.00000
  20         D4         0.40820   0.40830  -0.00000   0.00000  -0.00000
                          11        12
     Eigenvalues --     0.37334   0.37337
   1         R1        -0.00000   0.00000
   2         R2         1.00000   0.00000
   3         R3        -0.00000   1.00000
   4         R4        -0.00000  -0.00000
   5         R5        -0.00000  -0.00000
   6         A1         0.00000  -0.00000
   7         A2         0.00000   0.00000
   8         A3        -0.00000   0.00000
   9         A4         0.00000   0.00000
  10         A5         0.00000   0.00000
  11         A6         0.00000  -0.00000
  12         A7        -0.00000  -0.00000
  13         A8        -0.00000   0.00000
  14         A9         0.00000   0.00000
  15         A10        0.00000  -0.00000
  16         A11       -0.00000  -0.00000
  17         D1         0.00000  -0.00000
  18         D2         0.00000   0.00000
  19         D3        -0.00000  -0.00000
  20         D4        -0.00000  -0.00000
 Eigenvalue     1 is   5.67D-02 should be less than     0.000000 Eigenvector:
                          D1        A9        A3        A6        A2
   1                   -0.81650  -0.23570   0.23570  -0.23570   0.23570
                          A1        A8        D3        D2        A5
   1                    0.23570  -0.23570   0.00066   0.00050  -0.00040
 RLam0= 5.67D-02.
 Iter=   1 RLamda= 0.00000000D+00 Sum=-1.42310809D-02.
 Iter=   2 RLamda=-1.42310809D-02 Sum=-1.19562552D-02.
 Iter=   3 RLamda=-1.19562552D-02 Sum=-1.22692168D-02.
 Iter=   4 RLamda=-1.22692168D-02 Sum=-1.22251803D-02.
 Iter=   5 RLamda=-1.22251803D-02 Sum=-1.22313573D-02.
 Iter=   6 RLamda=-1.22313573D-02 Sum=-1.22304905D-02.
 Iter=   7 RLamda=-1.22304905D-02 Sum=-1.22306121D-02.
 Iter=   8 RLamda=-1.22306121D-02 Sum=-1.22305950D-02.
 Iter=   9 RLamda=-1.22305950D-02 Sum=-1.22305974D-02.
 RFO step:  Lambda0=5.673418304D-02 Lambda=-1.22305950D-02.
 Linear search not attempted -- option 19 set.
 Maximum step size (   0.100) exceeded in Quadratic search.
    -- Step size scaled by   0.231
 Iteration  1 RMS(Cart)=  0.02236230 RMS(Int)=  0.00032352
 Iteration  2 RMS(Cart)=  0.00016334 RMS(Int)=  0.00027813
 Iteration  3 RMS(Cart)=  0.00000001 RMS(Int)=  0.00027813
 ITry= 1 IFail=0 DXMaxC= 8.15D-02 DCOld= 1.00D+10 DXMaxT= 1.00D-01 DXLimC= 3.00D+00 Rises=F
 Variable       Old X    -DE/DX   Delta X   Delta X   Delta X     New X
                                 (Linear)    (Quad)   (Total)
    R1        4.38921  -0.02267   0.00000  -0.06095  -0.06095   4.32826
    R2        2.02045   0.00559   0.00000   0.00334   0.00334   2.02379
    R3        2.02042   0.00561   0.00000   0.00336   0.00336   2.02377
    R4        2.02047   0.00558   0.00000   0.00334   0.00334   2.02381
    R5        4.38881  -0.02268   0.00000  -0.06095  -0.06095   4.32786
    A1        1.57066   0.00001   0.00000   0.02037   0.02037   1.59103
    A2        1.57067  -0.00000   0.00000   0.02038   0.02038   1.59105
    A3        1.57097  -0.00001   0.00000   0.02033   0.02033   1.59130
    A4        2.09439   0.00000   0.00000   0.00003  -0.00068   2.09371
    A5        2.09440  -0.00000   0.00000  -0.00004  -0.00076   2.09364
    A6        1.57096  -0.00001   0.00000  -0.02037  -0.02037   1.55059
    A7        2.09440   0.00000   0.00000   0.00001  -0.00071   2.09369
    A8        1.57024   0.00003   0.00000  -0.02030  -0.02030   1.54994
    A9        1.57128  -0.00002   0.00000  -0.02041  -0.02041   1.55087
   A10        3.14162  -0.00000   0.00000  -0.00000  -0.00000   3.14161
   A11        3.14082   0.00003   0.00000   0.00009   0.00009   3.14092
    D1       -3.14149   0.00001   0.00000  -0.07053  -0.07049   3.07120
    D2        2.09439   0.00000   0.00000   0.00005   0.00005   2.09444
    D3       -2.09440   0.00000   0.00000   0.00006   0.00006  -2.09434
    D4        2.09440   0.00000   0.00000   0.00001   0.00001   2.09441
         Item               Value     Threshold  Converged?
 Maximum Force            0.022683     0.000450     NO 
 RMS     Force            0.007492     0.000300     NO 
 Maximum Displacement     0.081544     0.001800     NO 
 RMS     Displacement     0.022362     0.001200     NO 
 Predicted change in Energy=-2.328488D-03
 Lowest energy point so far.  Saving SCF results.
 Largest change from initial coordinates is atom    6       0.043 Angstoms.
 GradGradGradGradGradGradGradGradGradGradGradGradGradGradGradGradGradGrad

 Leave Link  103 at Wed Oct 21 14:21:00 2020, MaxMem=  2684354560 cpu:               4.3 elap:               0.9
 (Enter /udrive/faculty/rpeverati/g16/g16/l202.exe)
                          Input orientation:                          
 ---------------------------------------------------------------------
 Center     Atomic      Atomic             Coordinates (Angstroms)
 Number     Number       Type             X           Y           Z
 ---------------------------------------------------------------------
      1         17           0        0.000065    0.019393    2.301151
      2          6           0        0.000477    0.000547    0.010812
      3          1           0        0.762368   -0.751924   -0.004525
      4          1           0       -1.031984   -0.283250   -0.008731
      5          1           0        0.271104    1.036296   -0.019620
      6         17           0       -0.000233   -0.019362   -2.279307
 ---------------------------------------------------------------------
                    Distance matrix (angstroms):
                    1          2          3          4          5
     1  Cl   0.000000
     2  C    2.290416   0.000000
     3  H    2.547975   1.070946   0.000000
     4  H    2.547994   1.070934   1.854554   0.000000
     5  H    2.548240   1.070953   1.854535   1.854551   0.000000
     6  Cl   4.580622   2.290206   2.508554   2.507920   2.508829
                    6
     6  Cl   0.000000
 Stoichiometry    CH3Cl2(1-)
 Framework group  C1[X(CH3Cl2)]
 Deg. of freedom    12
 Full point group                 C1      NOp   1
 RotChk:  IX=3 Diff= 1.77D+00
 Largest Abelian subgroup         C1      NOp   1
 Largest concise Abelian subgroup C1      NOp   1
                         Standard orientation:                         
 ---------------------------------------------------------------------
 Center     Atomic      Atomic             Coordinates (Angstroms)
 Number     Number       Type             X           Y           Z
 ---------------------------------------------------------------------
      1         17           0        2.291852   -0.000146   -0.000082
      2          6           0        0.001436    0.000527    0.000308
      3          1           0       -0.020216    0.568918   -0.907100
      4          1           0       -0.020577   -1.069488   -0.038195
      5          1           0       -0.020213    0.502218    0.946235
      6         17           0       -2.288770   -0.000137   -0.000082
 ---------------------------------------------------------------------
 Rotational constants (GHZ):         145.7993882           1.3710980           1.3710978
 Leave Link  202 at Wed Oct 21 14:21:01 2020, MaxMem=  2684354560 cpu:               2.1 elap:               0.7
 (Enter /udrive/faculty/rpeverati/g16/g16/l301.exe)
 Standard basis: VSTO-6G (5D, 7F)
 Ernie: Thresh=  0.10000D-02 Tol=  0.10000D-05 Strict=F.
  NNHCO=     0 NNPyr=     0 NCTC=     0               EPep=         0.000000000
    EC=        30.315292197  ECS=         0.415901062   EG=         0.064679740
   EHC=         0.000000000  EAt=       -28.695333776  AtH=         0.613817027
 EPDDG=         0.000000000  ECC=        30.795872999 EAtT=        29.309150803
 There are    15 symmetry adapted cartesian basis functions of A   symmetry.
 There are    15 symmetry adapted basis functions of A   symmetry.
    15 basis functions,    90 primitive gaussians,    15 cartesian basis functions
    11 alpha electrons       11 beta electrons
       nuclear repulsion energy        60.1050238022 Hartrees.
 IExCor=    0 DFT=F Ex=HF Corr=None ExCW=0 ScaHFX=  1.000000
 ScaDFX=  1.000000  1.000000  1.000000  1.000000 ScalE2=  1.000000  1.000000
 IRadAn=      5 IRanWt=     -1 IRanGd=            0 ICorTp=0 IEmpDi=  4
 Integral buffers will be    131072 words long.
 Regular integral format.
 Two-electron integral symmetry is turned off.
 Leave Link  301 at Wed Oct 21 14:21:03 2020, MaxMem=  2684354560 cpu:               5.5 elap:               1.1
 (Enter /udrive/faculty/rpeverati/g16/g16/l302.exe)
 Do NDO integrals.
 NPDir=0 NMtPBC=     1 NCelOv=     1 NCel=       1 NClECP=     1 NCelD=      1
         NCelK=      1 NCelE2=     1 NClLst=     1 CellRange=     0.0.
 One-electron integrals computed using PRISM.
 NBasis=    15 RedAO= F EigKep=  0.00D+00  NBF=    15
 NBsUse=    15 1.00D-04 EigRej=  0.00D+00 NBFU=    15
 Leave Link  302 at Wed Oct 21 14:21:04 2020, MaxMem=  2684354560 cpu:               4.8 elap:               1.1
 (Enter /udrive/faculty/rpeverati/g16/g16/l303.exe)
 DipDrv:  MaxL=1.
 Leave Link  303 at Wed Oct 21 14:21:06 2020, MaxMem=  2684354560 cpu:               3.5 elap:               1.0
 (Enter /udrive/faculty/rpeverati/g16/g16/l401.exe)
 Initial guess from the checkpoint file:  "MN_28_clch3clts_BH76_PM3_SE.chk"
 SCF N**3 symmetry information disabled.
 B after Tr=     0.000000    0.000000    0.000000
         Rot=    0.779551   -0.626339   -0.000078   -0.000063 Ang= -77.56 deg.
 Guess basis will be translated and rotated to current coordinates.
 JPrj=0 DoOrth=T DoCkMO=T.
 Leave Link  401 at Wed Oct 21 14:21:07 2020, MaxMem=  2684354560 cpu:               4.0 elap:               1.0
 (Enter /udrive/faculty/rpeverati/g16/g16/l502.exe)
 Keep J ints in memory in canonical form, NReq=859737.
 FoFCou: FMM=F IPFlag=           0 FMFlag=           0 FMFlg1=           0
         NFxFlg=           0 DoJE=F BraDBF=F KetDBF=F FulRan=T
         wScrn=  0.000000 ICntrl=       600 IOpCl=  2 I1Cent=           0 NGrid=           0
         NMat0=    1 NMatS0=     33 NMatT0=    0 NMatD0=    1 NMtDS0=    0 NMtDT0=    0
 Symmetry not used in FoFCou.
 Two-electron integral symmetry not used.
 Closed shell SCF:
 Using DIIS extrapolation, IDIIS=  1040.
 Overlap will be assumed to be unity.
 NGot=  2684354560 LenX=  2684293520 LenY=  2684292638
 Requested convergence on RMS density matrix=1.00D-08 within 120 cycles.
 Requested convergence on MAX density matrix=1.00D-06.
 Requested convergence on             energy=1.00D-06.
 No special actions if energy rises.

 Cycle   1  Pass 1  IDiag  1:
 E=-0.995856866330698E-01
 DIIS: error= 1.58D-03 at cycle   1 NSaved=   1.
 NSaved= 1 IEnMin= 1 EnMin=-0.995856866330698E-01 IErMin= 1 ErrMin= 1.58D-03
 ErrMax= 1.58D-03  0.00D+00 EMaxC= 1.00D-01 BMatC= 5.56D-05 BMatP= 5.56D-05
 IDIUse=3 WtCom= 9.84D-01 WtEn= 1.58D-02
 Coeff-Com:  0.100D+01
 Coeff-En:   0.100D+01
 Coeff:      0.100D+01
 GapD=    2.000 DampG=2.000 DampE=1.000 DampFc=2.0000 IDamp=-1.
 RMSDP=7.83D-04 MaxDP=3.78D-03              OVMax= 0.00D+00

 Cycle   2  Pass 1  IDiag  3:
 E=-0.997209116752273E-01 Delta-E=       -0.000135225042 Rises=F Damp=F
 DIIS: error= 4.74D-04 at cycle   2 NSaved=   2.
 NSaved= 2 IEnMin= 2 EnMin=-0.997209116752273E-01 IErMin= 2 ErrMin= 4.74D-04
 ErrMax= 4.74D-04  0.00D+00 EMaxC= 1.00D-01 BMatC= 4.31D-06 BMatP= 5.56D-05
 IDIUse=3 WtCom= 9.95D-01 WtEn= 4.74D-03
 Coeff-Com: -0.252D+00 0.125D+01
 Coeff-En:   0.000D+00 0.100D+01
 Coeff:     -0.251D+00 0.125D+01
 Gap=     0.324 Goal=   None    Shift=    0.000
 RMSDP=4.56D-04 MaxDP=2.14D-03 DE=-1.35D-04 OVMax= 3.37D-03

 Cycle   3  Pass 1  IDiag  3:
 E=-0.997458315791633E-01 Delta-E=       -0.000024919904 Rises=F Damp=F
 DIIS: error= 1.77D-04 at cycle   3 NSaved=   3.
 NSaved= 3 IEnMin= 3 EnMin=-0.997458315791633E-01 IErMin= 3 ErrMin= 1.77D-04
 ErrMax= 1.77D-04  0.00D+00 EMaxC= 1.00D-01 BMatC= 4.54D-07 BMatP= 4.31D-06
 IDIUse=3 WtCom= 9.98D-01 WtEn= 1.77D-03
 Coeff-Com:  0.906D-01-0.731D+00 0.164D+01
 Coeff-En:   0.000D+00 0.000D+00 0.100D+01
 Coeff:      0.904D-01-0.729D+00 0.164D+01
 Gap=     0.324 Goal=   None    Shift=    0.000
 RMSDP=2.61D-04 MaxDP=1.41D-03 DE=-2.49D-05 OVMax= 1.77D-03

 Cycle   4  Pass 1  IDiag  3:
 E=-0.997499210084740E-01 Delta-E=       -0.000004089429 Rises=F Damp=F
 DIIS: error= 3.73D-05 at cycle   4 NSaved=   4.
 NSaved= 4 IEnMin= 4 EnMin=-0.997499210084740E-01 IErMin= 4 ErrMin= 3.73D-05
 ErrMax= 3.73D-05  0.00D+00 EMaxC= 1.00D-01 BMatC= 1.54D-08 BMatP= 4.54D-07
 IDIUse=1 WtCom= 1.00D+00 WtEn= 0.00D+00
 Coeff-Com: -0.514D-01 0.443D+00-0.111D+01 0.172D+01
 Coeff:     -0.514D-01 0.443D+00-0.111D+01 0.172D+01
 Gap=     0.324 Goal=   None    Shift=    0.000
 RMSDP=6.22D-05 MaxDP=3.86D-04 DE=-4.09D-06 OVMax= 6.25D-04

 Cycle   5  Pass 1  IDiag  3:
 E=-0.997500858738434E-01 Delta-E=       -0.000000164865 Rises=F Damp=F
 DIIS: error= 5.93D-06 at cycle   5 NSaved=   5.
 NSaved= 5 IEnMin= 5 EnMin=-0.997500858738434E-01 IErMin= 5 ErrMin= 5.93D-06
 ErrMax= 5.93D-06  0.00D+00 EMaxC= 1.00D-01 BMatC= 2.49D-10 BMatP= 1.54D-08
 IDIUse=1 WtCom= 1.00D+00 WtEn= 0.00D+00
 Coeff-Com:  0.204D-01-0.174D+00 0.437D+00-0.736D+00 0.145D+01
 Coeff:      0.204D-01-0.174D+00 0.437D+00-0.736D+00 0.145D+01
 Gap=     0.324 Goal=   None    Shift=    0.000
 RMSDP=6.44D-06 MaxDP=4.69D-05 DE=-1.65D-07 OVMax= 5.69D-05

 Cycle   6  Pass 1  IDiag  3:
 E=-0.997500880888467E-01 Delta-E=       -0.000000002215 Rises=F Damp=F
 DIIS: error= 6.99D-07 at cycle   6 NSaved=   6.
 NSaved= 6 IEnMin= 6 EnMin=-0.997500880888467E-01 IErMin= 6 ErrMin= 6.99D-07
 ErrMax= 6.99D-07  0.00D+00 EMaxC= 1.00D-01 BMatC= 1.33D-11 BMatP= 2.49D-10
 IDIUse=1 WtCom= 1.00D+00 WtEn= 0.00D+00
 Coeff-Com: -0.849D-02 0.725D-01-0.183D+00 0.318D+00-0.774D+00 0.157D+01
 Coeff:     -0.849D-02 0.725D-01-0.183D+00 0.318D+00-0.774D+00 0.157D+01
 Gap=     0.324 Goal=   None    Shift=    0.000
 RMSDP=1.28D-06 MaxDP=6.52D-06 DE=-2.22D-09 OVMax= 0.00D+00

 Cycle   7  Pass 1  IDiag  3:
 E=-0.997500881905538E-01 Delta-E=       -0.000000000102 Rises=F Damp=F
 DIIS: error= 9.90D-08 at cycle   7 NSaved=   7.
 NSaved= 7 IEnMin= 7 EnMin=-0.997500881905538E-01 IErMin= 7 ErrMin= 9.90D-08
 ErrMax= 9.90D-08  0.00D+00 EMaxC= 1.00D-01 BMatC= 2.26D-13 BMatP= 1.33D-11
 IDIUse=1 WtCom= 1.00D+00 WtEn= 0.00D+00
 Coeff-Com:  0.183D-02-0.157D-01 0.396D-01-0.685D-01 0.177D+00-0.433D+00
 Coeff-Com:  0.130D+01
 Coeff:      0.183D-02-0.157D-01 0.396D-01-0.685D-01 0.177D+00-0.433D+00
 Coeff:      0.130D+01
 Gap=     0.324 Goal=   None    Shift=    0.000
 RMSDP=1.59D-07 MaxDP=7.99D-07 DE=-1.02D-10 OVMax= 9.95D-07

 Cycle   8  Pass 1  IDiag  3:
 E=-0.997500881923656E-01 Delta-E=       -0.000000000002 Rises=F Damp=F
 DIIS: error= 4.63D-08 at cycle   8 NSaved=   8.
 NSaved= 8 IEnMin= 8 EnMin=-0.997500881923656E-01 IErMin= 8 ErrMin= 4.63D-08
 ErrMax= 4.63D-08  0.00D+00 EMaxC= 1.00D-01 BMatC= 2.33D-14 BMatP= 2.26D-13
 IDIUse=1 WtCom= 1.00D+00 WtEn= 0.00D+00
 Coeff-Com: -0.980D-03 0.835D-02-0.210D-01 0.363D-01-0.946D-01 0.240D+00
 Coeff-Com: -0.914D+00 0.175D+01
 Coeff:     -0.980D-03 0.835D-02-0.210D-01 0.363D-01-0.946D-01 0.240D+00
 Coeff:     -0.914D+00 0.175D+01
 Gap=     0.324 Goal=   None    Shift=    0.000
 RMSDP=6.85D-08 MaxDP=5.00D-07 DE=-1.81D-12 OVMax= 4.39D-07

 Cycle   9  Pass 1  IDiag  3:
 E=-0.997500881927209E-01 Delta-E=       -0.000000000000 Rises=F Damp=F
 DIIS: error= 1.22D-08 at cycle   9 NSaved=   9.
 NSaved= 9 IEnMin= 9 EnMin=-0.997500881927209E-01 IErMin= 9 ErrMin= 1.22D-08
 ErrMax= 1.22D-08  0.00D+00 EMaxC= 1.00D-01 BMatC= 1.23D-15 BMatP= 2.33D-14
 IDIUse=1 WtCom= 1.00D+00 WtEn= 0.00D+00
 Coeff-Com:  0.273D-03-0.231D-02 0.581D-02-0.100D-01 0.259D-01-0.656D-01
 Coeff-Com:  0.284D+00-0.718D+00 0.148D+01
 Coeff:      0.273D-03-0.231D-02 0.581D-02-0.100D-01 0.259D-01-0.656D-01
 Coeff:      0.284D+00-0.718D+00 0.148D+01
 Gap=     0.324 Goal=   None    Shift=    0.000
 RMSDP=1.67D-08 MaxDP=1.34D-07 DE=-3.55D-13 OVMax= 1.09D-07

 Cycle  10  Pass 1  IDiag  3:
 E=-0.997500881926996E-01 Delta-E=        0.000000000000 Rises=F Damp=F
 DIIS: error= 2.71D-09 at cycle  10 NSaved=  10.
 NSaved=10 IEnMin= 9 EnMin=-0.997500881927209E-01 IErMin=10 ErrMin= 2.71D-09
 ErrMax= 2.71D-09  0.00D+00 EMaxC= 1.00D-01 BMatC= 7.95D-17 BMatP= 1.23D-15
 IDIUse=1 WtCom= 1.00D+00 WtEn= 0.00D+00
 Coeff-Com: -0.333D-04 0.280D-03-0.691D-03 0.119D-02-0.298D-02 0.770D-02
 Coeff-Com: -0.500D-01 0.180D+00-0.641D+00 0.151D+01
 Coeff:     -0.333D-04 0.280D-03-0.691D-03 0.119D-02-0.298D-02 0.770D-02
 Coeff:     -0.500D-01 0.180D+00-0.641D+00 0.151D+01
 Gap=     0.324 Goal=   None    Shift=    0.000
 RMSDP=4.34D-09 MaxDP=3.18D-08 DE= 2.13D-14 OVMax= 2.57D-08

 Cycle  11  Pass 2  IDiag  1:
 SCF Done:  E(RPM3) = -0.997500881927E-01 A.U. after   11 cycles
            NFock= 10  Conv=0.43D-08     -V/T= 0.9978
 KE=-4.552730578934D+01 PE=-6.158720485664D+01 EE= 4.690973675556D+01
 Leave Link  502 at Wed Oct 21 14:21:09 2020, MaxMem=  2684354560 cpu:               7.8 elap:               1.3
 (Enter /udrive/faculty/rpeverati/g16/g16/l508.exe)
 QCSCF skips out because SCF is already converged.
 Leave Link  508 at Wed Oct 21 14:21:10 2020, MaxMem=  2684354560 cpu:               0.8 elap:               0.7
 (Enter /udrive/faculty/rpeverati/g16/g16/l701.exe)
 ... and contract with generalized density number  0.
 Compute integral first derivatives.
 Leave Link  701 at Wed Oct 21 14:21:11 2020, MaxMem=  2684354560 cpu:               4.5 elap:               1.1
 (Enter /udrive/faculty/rpeverati/g16/g16/l702.exe)
 L702 exits ... SP integral derivatives will be done elsewhere.
 Leave Link  702 at Wed Oct 21 14:21:12 2020, MaxMem=  2684354560 cpu:               2.6 elap:               1.0
 (Enter /udrive/faculty/rpeverati/g16/g16/l703.exe)
 Integral derivatives from FoFJK, PRISM(SPDF).
 Compute integral first derivatives, UseDBF=F ICtDFT=           0.
 Calling FoFJK, ICntrl=      2127 FMM=F ISym2X=0 I1Cent= 0 IOpClX= 0 NMat=1 NMatS=1 NMatT=0.
 FoFJK:  IHMeth= 9 ICntrl=    2127 DoSepK=F KAlg= 0 I1Cent=           0 FoldK=F
 IRaf=         0 NMat=       1 IRICut=       1 DoRegI=T DoRafI=F ISym2E= 0 IDoP0=3 IntGTp=3.
 FoFCou: FMM=F IPFlag=           0 FMFlag=      100000 FMFlg1=         800
         NFxFlg=           0 DoJE=F BraDBF=F KetDBF=F FulRan=T
         wScrn=  0.000000 ICntrl=      2127 IOpCl=  0 I1Cent=           0 NGrid=           0
         NMat0=    1 NMatS0=      1 NMatT0=    0 NMatD0=    1 NMtDS0=    0 NMtDT0=    0
 Symmetry not used in FoFCou.
 Leave Link  703 at Wed Oct 21 14:21:14 2020, MaxMem=  2684354560 cpu:               3.0 elap:               0.9
 (Enter /udrive/faculty/rpeverati/g16/g16/l716.exe)
 Dipole        = 4.02438580D-02 8.91082278D-04 5.19542126D-04
 ***** Axes restored to original set *****
 -------------------------------------------------------------------
 Center     Atomic                   Forces (Hartrees/Bohr)
 Number     Number              X              Y              Z
 -------------------------------------------------------------------
      1       17           0.000007493   -0.000167070   -0.021167447
      2        6          -0.000011698   -0.000015121    0.000004161
      3        1           0.003520185   -0.003459468    0.001861024
      4        1          -0.004783671   -0.001297476    0.001866578
      5        1           0.001247716    0.004792550    0.001790708
      6       17           0.000019974    0.000146584    0.015644976
 -------------------------------------------------------------------
 Cartesian Forces:  Max     0.021167447 RMS     0.006567946
 Leave Link  716 at Wed Oct 21 14:21:15 2020, MaxMem=  2684354560 cpu:               2.1 elap:               0.8
 (Enter /udrive/faculty/rpeverati/g16/g16/l103.exe)

 GradGradGradGradGradGradGradGradGradGradGradGradGradGradGradGradGradGrad
 Berny optimization.
 Optmz: redundant internal coordinate code flag= 1
 Red2BG:  D1=  2.65D-01 OD1=  8.83D-02 B2RMS=  0.00D+00 IAprox=0
 FormGI is forming the generalized inverse of G from B-inverse, IUseBI=4.
 Internal  Forces:  Max     0.021168106 RMS     0.006216562
 Search for a saddle point.
 Step number   2 out of a maximum of   50
 All quantities printed in internal units (Hartrees-Bohrs-Radians)
 Swapping is turned off.
 Update second derivatives using D2CorX and points    1    2
 The second derivative matrix:
                          R1        R2        R3        R4        R5
           R1           0.05180
           R2           0.00304   0.37304
           R3           0.00303  -0.00031   0.37306
           R4           0.00304  -0.00031  -0.00031   0.37302
           R5           0.00358   0.00111   0.00111   0.00112   0.09523
           A1           0.01466  -0.00157  -0.00157  -0.00157   0.00406
           A2           0.01466  -0.00157  -0.00158  -0.00157   0.00406
           A3           0.01463  -0.00157  -0.00157  -0.00157   0.00405
           A4          -0.00052   0.00006   0.00006   0.00006  -0.00016
           A5          -0.00037   0.00005   0.00005   0.00005  -0.00003
           A6          -0.01466   0.00157   0.00157   0.00157  -0.00406
           A7          -0.00033   0.00004   0.00004   0.00004  -0.00001
           A8          -0.01460   0.00157   0.00157   0.00157  -0.00404
           A9          -0.01469   0.00158   0.00158   0.00158  -0.00407
           A10         -0.00000   0.00000   0.00000   0.00000  -0.00000
           A11          0.00000  -0.00000  -0.00000  -0.00000  -0.00003
           D1          -0.00068   0.00166   0.00165   0.00166   0.02159
           D2          -0.00014   0.00001   0.00001   0.00001  -0.00012
           D3          -0.00007   0.00000   0.00000   0.00000  -0.00007
           D4           0.00007  -0.00001  -0.00001  -0.00001   0.00004
                          A1        A2        A3        A4        A5
           A1           0.15201
           A2          -0.00799   0.15201
           A3          -0.00797  -0.00797   0.15204
           A4           0.00028   0.00028   0.00028   0.15999
           A5           0.00022   0.00022   0.00022  -0.00001   0.15999
           A6           0.00799   0.00799   0.00797  -0.00028  -0.00022
           A7           0.00020   0.00020   0.00020  -0.00001  -0.00001
           A8           0.00795   0.00796   0.00794  -0.00028  -0.00022
           A9           0.00800   0.00801   0.00799  -0.00028  -0.00022
           A10          0.00000   0.00000   0.00000  -0.00000  -0.00000
           A11         -0.00001  -0.00001  -0.00001   0.00000   0.00000
           D1           0.00671   0.00671   0.00670  -0.00025  -0.00010
           D2           0.00006   0.00006   0.00006  -0.00000  -0.00000
           D3           0.00002   0.00002   0.00002  -0.00000  -0.00000
           D4          -0.00003  -0.00003  -0.00003   0.00000   0.00000
                          A6        A7        A8        A9        A10
           A6           0.15201
           A7          -0.00020   0.16000
           A8          -0.00796  -0.00020   0.15208
           A9          -0.00801  -0.00020  -0.00797   0.15198
           A10         -0.00000  -0.00000  -0.00000  -0.00000   0.00230
           A11          0.00001   0.00000   0.00001   0.00001   0.00000
           D1          -0.00672  -0.00008  -0.00668  -0.00673  -0.00000
           D2          -0.00006  -0.00000  -0.00006  -0.00006  -0.00000
           D3          -0.00002  -0.00000  -0.00002  -0.00002  -0.00000
           D4           0.00003   0.00000   0.00003   0.00003   0.00000
                          A11       D1        D2        D3        D4
           A11          0.00230
           D1          -0.00003   0.02583
           D2           0.00000  -0.00014   0.00230
           D3           0.00000  -0.00008   0.00000   0.00230
           D4          -0.00000   0.00006   0.00000   0.00000   0.00230
 ITU=  0  0
 Eigenvectors of the second derivative matrix:
                           1         2         3         4         5
     Eigenvalues --     0.02126   0.06712   0.06980   0.06981   0.08113
   1         R1         0.57980   0.81382  -0.00703   0.00496  -0.00126
   2         R2        -0.01267  -0.00198   0.00001  -0.00001  -0.00000
   3         R3        -0.01265  -0.00198   0.00001  -0.00001  -0.00000
   4         R4        -0.01267  -0.00198   0.00001  -0.00001  -0.00000
   5         R5        -0.15574   0.13457  -0.00190   0.00082  -0.00041
   6         A1        -0.18856   0.13486   0.06610  -0.36887   0.03395
   7         A2        -0.18870   0.13342   0.28417   0.24487  -0.03552
   8         A3        -0.18819   0.12994  -0.35626   0.12673   0.00067
   9         A4         0.01846  -0.03367  -0.03725   0.01328  -0.02249
  10         A5         0.01091   0.00265   0.02969   0.02562   0.50933
  11         A6         0.18859  -0.13027   0.07038  -0.37207   0.01745
  12         A7         0.01043   0.00300   0.00797  -0.03910  -0.48678
  13         A8         0.18780  -0.13188   0.28918   0.24392  -0.01733
  14         A9         0.18906  -0.13609  -0.35362   0.12539   0.00060
  15         A10        0.00003   0.00460   0.13648  -0.74094   0.05139
  16         A11       -0.00102   0.00444   0.74102   0.13663  -0.03135
  17         D1         0.65218  -0.46015   0.00537  -0.00262   0.00013
  18         D2         0.00508  -0.02438  -0.05002   0.01797  -0.02252
  19         D3         0.00221  -0.01191  -0.03960  -0.03418  -0.50912
  20         D4        -0.00287   0.01247   0.01043  -0.05214  -0.48659
                           6         7         8         9        10
     Eigenvalues --     0.08117   0.09762   0.16000   0.16000   0.37264
   1         R1         0.02852   0.02010   0.00036   0.00004  -0.01528
   2         R2         0.00007   0.00642   0.00001  -0.00000  -0.57937
   3         R3         0.00007   0.00640   0.00001  -0.00000  -0.56177
   4         R4         0.00007   0.00643   0.00001  -0.00000  -0.59002
   5         R5         0.01075  -0.97850   0.00032   0.00008  -0.00792
   6         A1         0.03340   0.04851   0.06152   0.57374   0.00422
   7         A2         0.03037   0.04816  -0.52762  -0.23392   0.00421
   8         A3        -0.02927   0.04839   0.46640  -0.34029   0.00422
   9         A4         0.57366  -0.00117   0.01645  -0.01223  -0.00023
  10         A5        -0.26859  -0.00457  -0.01837  -0.00804  -0.00034
  11         A6        -0.00057  -0.04843  -0.06152  -0.57374  -0.00422
  12         A7        -0.30750  -0.00447   0.00190   0.02029  -0.00032
  13         A8        -0.00192  -0.04817   0.52762   0.23393  -0.00419
  14         A9        -0.03174  -0.04845  -0.46640   0.34028  -0.00424
  15         A10        0.03284   0.00008  -0.00000  -0.00000  -0.00000
  16         A11        0.05161   0.00003  -0.00000  -0.00000   0.00002
  17         D1        -0.01635  -0.16716   0.00034   0.00005  -0.01459
  18         D2         0.57423   0.00227  -0.00000  -0.00000   0.00007
  19         D3         0.26768   0.00121  -0.00000  -0.00000   0.00004
  20         D4        -0.30655  -0.00106   0.00000   0.00000  -0.00003
                          11        12
     Eigenvalues --     0.37334   0.37336
   1         R1         0.00016  -0.00026
   2         R2         0.62928   0.51781
   3         R3         0.15158  -0.81316
   4         R4        -0.76226   0.26578
   5         R5         0.00007  -0.00012
   6         A1        -0.00004   0.00007
   7         A2        -0.00004   0.00007
   8         A3        -0.00004   0.00007
   9         A4         0.00000  -0.00000
  10         A5         0.00000  -0.00001
  11         A6         0.00004  -0.00007
  12         A7         0.00000  -0.00001
  13         A8         0.00004  -0.00007
  14         A9         0.00004  -0.00007
  15         A10        0.00000  -0.00000
  16         A11       -0.00000   0.00000
  17         D1         0.00015  -0.00024
  18         D2        -0.00000   0.00000
  19         D3        -0.00000   0.00000
  20         D4         0.00000  -0.00000
 Eigenvalue     1 is   2.13D-02 should be less than     0.000000 Eigenvector:
                          D1        R1        A9        A2        A6
   1                    0.65218   0.57980   0.18906  -0.18870   0.18859
                          A1        A3        A8        R5        A4
   1                   -0.18856  -0.18819   0.18780  -0.15574   0.01846
 RLam0= 2.38D-02.
 Iter=   1 RLamda= 0.00000000D+00 Sum=-8.83766406D-03.
 Iter=   2 RLamda=-8.83766406D-03 Sum=-7.89687785D-03.
 Iter=   3 RLamda=-7.89687785D-03 Sum=-7.98709401D-03.
 Iter=   4 RLamda=-7.98709401D-03 Sum=-7.97835065D-03.
 Iter=   5 RLamda=-7.97835065D-03 Sum=-7.97919715D-03.
 Iter=   6 RLamda=-7.97919715D-03 Sum=-7.97911519D-03.
 Iter=   7 RLamda=-7.97911519D-03 Sum=-7.97912312D-03.
 RFO step:  Lambda0=2.381932439D-02 Lambda=-7.97911519D-03.
 Linear search not attempted -- option 19 set.
 Maximum step size (   0.100) exceeded in Quadratic search.
    -- Step size scaled by   0.317
 Iteration  1 RMS(Cart)=  0.01775373 RMS(Int)=  0.00062390
 Iteration  2 RMS(Cart)=  0.00031482 RMS(Int)=  0.00053808
 Iteration  3 RMS(Cart)=  0.00000002 RMS(Int)=  0.00053808
 ITry= 1 IFail=0 DXMaxC= 5.18D-02 DCOld= 1.00D+10 DXMaxT= 1.00D-01 DXLimC= 3.00D+00 Rises=F
 Variable       Old X    -DE/DX   Delta X   Delta X   Delta X     New X
                                 (Linear)    (Quad)   (Total)
    R1        4.32826  -0.02117   0.00000  -0.01384  -0.01384   4.31442
    R2        2.02379   0.00491   0.00000   0.00310   0.00310   2.02690
    R3        2.02377   0.00492   0.00000   0.00311   0.00311   2.02688
    R4        2.02381   0.00490   0.00000   0.00309   0.00309   2.02690
    R5        4.32786  -0.01565   0.00000  -0.06966  -0.06966   4.25820
    A1        1.59103  -0.00065   0.00000  -0.02833  -0.02831   1.56272
    A2        1.59105  -0.00066   0.00000  -0.02834  -0.02833   1.56273
    A3        1.59130  -0.00066   0.00000  -0.02833  -0.02832   1.56298
    A4        2.09371   0.00002   0.00000   0.00286   0.00147   2.09518
    A5        2.09364   0.00006   0.00000   0.00159   0.00020   2.09384
    A6        1.55059   0.00065   0.00000   0.02833   0.02831   1.57890
    A7        2.09369   0.00006   0.00000   0.00153   0.00014   2.09383
    A8        1.54994   0.00069   0.00000   0.02835   0.02833   1.57828
    A9        1.55087   0.00063   0.00000   0.02833   0.02831   1.57918
   A10        3.14161  -0.00000   0.00000  -0.00000  -0.00000   3.14161
   A11        3.14092   0.00003   0.00000   0.00001   0.00001   3.14092
    D1        3.07120   0.00227   0.00000   0.09805   0.09805  -3.11394
    D2        2.09444  -0.00003   0.00000   0.00085   0.00085   2.09529
    D3       -2.09434  -0.00002   0.00000   0.00038   0.00038  -2.09396
    D4        2.09441   0.00001   0.00000  -0.00047  -0.00047   2.09394
         Item               Value     Threshold  Converged?
 Maximum Force            0.021168     0.000450     NO 
 RMS     Force            0.006217     0.000300     NO 
 Maximum Displacement     0.051807     0.001800     NO 
 RMS     Displacement     0.017737     0.001200     NO 
 Predicted change in Energy=-1.296091D-03
 Lowest energy point so far.  Saving SCF results.
 Largest change from initial coordinates is atom    5       0.051 Angstoms.
 GradGradGradGradGradGradGradGradGradGradGradGradGradGradGradGradGradGrad

 Leave Link  103 at Wed Oct 21 14:21:16 2020, MaxMem=  2684354560 cpu:               5.9 elap:               1.2
 (Enter /udrive/faculty/rpeverati/g16/g16/l202.exe)
                          Input orientation:                          
 ---------------------------------------------------------------------
 Center     Atomic      Atomic             Coordinates (Angstroms)
 Number     Number       Type             X           Y           Z
 ---------------------------------------------------------------------
      1         17           0        0.000045    0.019039    2.273735
      2          6           0        0.000448    0.000245   -0.009279
      3          1           0        0.763954   -0.752933    0.005724
      4          1           0       -1.033913   -0.283323    0.001529
      5          1           0        0.271510    1.038019   -0.009393
      6         17           0       -0.000245   -0.019347   -2.262536
 ---------------------------------------------------------------------
                    Distance matrix (angstroms):
                    1          2          3          4          5
     1  Cl   0.000000
     2  C    2.283092   0.000000
     3  H    2.514632   1.072588   0.000000
     4  H    2.514640   1.072581   1.858192   0.000000
     5  H    2.514894   1.072590   1.857482   1.857469   0.000000
     6  Cl   4.536434   2.253342   2.503428   2.502827   2.503702
                    6
     6  Cl   0.000000
 Stoichiometry    CH3Cl2(1-)
 Framework group  C1[X(CH3Cl2)]
 Deg. of freedom    12
 Full point group                 C1      NOp   1
 RotChk:  IX=0 Diff= 6.92D-01
 Largest Abelian subgroup         C1      NOp   1
 Largest concise Abelian subgroup C1      NOp   1
                         Standard orientation:                         
 ---------------------------------------------------------------------
 Center     Atomic      Atomic             Coordinates (Angstroms)
 Number     Number       Type             X           Y           Z
 ---------------------------------------------------------------------
      1         17           0        2.270732   -0.000086   -0.000157
      2          6           0       -0.012359    0.000312    0.000494
      3          1           0       -0.003680    0.932831   -0.529390
      4          1           0       -0.004019   -0.925323   -0.541318
      5          1           0       -0.003674   -0.006583    1.073026
      6         17           0       -2.265701   -0.000079   -0.000154
 ---------------------------------------------------------------------
 Rotational constants (GHZ):         145.3024973           1.3977869           1.3977800
 Leave Link  202 at Wed Oct 21 14:21:17 2020, MaxMem=  2684354560 cpu:               2.0 elap:               0.9
 (Enter /udrive/faculty/rpeverati/g16/g16/l301.exe)
 Standard basis: VSTO-6G (5D, 7F)
 Ernie: Thresh=  0.10000D-02 Tol=  0.10000D-05 Strict=F.
  NNHCO=     0 NNPyr=     0 NCTC=     0               EPep=         0.000000000
    EC=        30.511263708  ECS=         0.419048579   EG=         0.065553826
   EHC=         0.000000000  EAt=       -28.695333776  AtH=         0.613817027
 EPDDG=         0.000000000  ECC=        30.995866114 EAtT=        29.309150803
 There are    15 symmetry adapted cartesian basis functions of A   symmetry.
 There are    15 symmetry adapted basis functions of A   symmetry.
    15 basis functions,    90 primitive gaussians,    15 cartesian basis functions
    11 alpha electrons       11 beta electrons
       nuclear repulsion energy        60.3050169170 Hartrees.
 IExCor=    0 DFT=F Ex=HF Corr=None ExCW=0 ScaHFX=  1.000000
 ScaDFX=  1.000000  1.000000  1.000000  1.000000 ScalE2=  1.000000  1.000000
 IRadAn=      5 IRanWt=     -1 IRanGd=            0 ICorTp=0 IEmpDi=  4
 Integral buffers will be    131072 words long.
 Regular integral format.
 Two-electron integral symmetry is turned off.
 Leave Link  301 at Wed Oct 21 14:21:19 2020, MaxMem=  2684354560 cpu:               5.7 elap:               1.1
 (Enter /udrive/faculty/rpeverati/g16/g16/l302.exe)
 Do NDO integrals.
 NPDir=0 NMtPBC=     1 NCelOv=     1 NCel=       1 NClECP=     1 NCelD=      1
         NCelK=      1 NCelE2=     1 NClLst=     1 CellRange=     0.0.
 One-electron integrals computed using PRISM.
 NBasis=    15 RedAO= F EigKep=  0.00D+00  NBF=    15
 NBsUse=    15 1.00D-04 EigRej=  0.00D+00 NBFU=    15
 Leave Link  302 at Wed Oct 21 14:21:20 2020, MaxMem=  2684354560 cpu:               4.0 elap:               1.0
 (Enter /udrive/faculty/rpeverati/g16/g16/l303.exe)
 DipDrv:  MaxL=1.
 Leave Link  303 at Wed Oct 21 14:21:21 2020, MaxMem=  2684354560 cpu:               3.1 elap:               0.9
 (Enter /udrive/faculty/rpeverati/g16/g16/l401.exe)
 Initial guess from the checkpoint file:  "MN_28_clch3clts_BH76_PM3_SE.chk"
 SCF N**3 symmetry information disabled.
 B after Tr=    -0.000000   -0.000000   -0.000000
         Rot=    0.969644   -0.244520    0.000000   -0.000000 Ang= -28.31 deg.
 Guess basis will be translated and rotated to current coordinates.
 JPrj=0 DoOrth=T DoCkMO=T.
 Leave Link  401 at Wed Oct 21 14:21:23 2020, MaxMem=  2684354560 cpu:               4.0 elap:               1.0
 (Enter /udrive/faculty/rpeverati/g16/g16/l502.exe)
 Keep J ints in memory in canonical form, NReq=859737.
 FoFCou: FMM=F IPFlag=           0 FMFlag=           0 FMFlg1=           0
         NFxFlg=           0 DoJE=F BraDBF=F KetDBF=F FulRan=T
         wScrn=  0.000000 ICntrl=       600 IOpCl=  2 I1Cent=           0 NGrid=           0
         NMat0=    1 NMatS0=     33 NMatT0=    0 NMatD0=    1 NMtDS0=    0 NMtDT0=    0
 Symmetry not used in FoFCou.
 Two-electron integral symmetry not used.
 Closed shell SCF:
 Using DIIS extrapolation, IDIIS=  1040.
 Overlap will be assumed to be unity.
 NGot=  2684354560 LenX=  2684293520 LenY=  2684292638
 Requested convergence on RMS density matrix=1.00D-08 within 120 cycles.
 Requested convergence on MAX density matrix=1.00D-06.
 Requested convergence on             energy=1.00D-06.
 No special actions if energy rises.

 Cycle   1  Pass 1  IDiag  1:
 E=-0.100920277746475    
 DIIS: error= 2.51D-03 at cycle   1 NSaved=   1.
 NSaved= 1 IEnMin= 1 EnMin=-0.100920277746475     IErMin= 1 ErrMin= 2.51D-03
 ErrMax= 2.51D-03  0.00D+00 EMaxC= 1.00D-01 BMatC= 9.31D-05 BMatP= 9.31D-05
 IDIUse=3 WtCom= 9.75D-01 WtEn= 2.51D-02
 Coeff-Com:  0.100D+01
 Coeff-En:   0.100D+01
 Coeff:      0.100D+01
 GapD=    2.000 DampG=2.000 DampE=1.000 DampFc=2.0000 IDamp=-1.
 RMSDP=1.34D-03 MaxDP=5.78D-03              OVMax= 0.00D+00

 Cycle   2  Pass 1  IDiag  3:
 E=-0.101247386384401     Delta-E=       -0.000327108638 Rises=F Damp=F
 DIIS: error= 8.24D-04 at cycle   2 NSaved=   2.
 NSaved= 2 IEnMin= 2 EnMin=-0.101247386384401     IErMin= 2 ErrMin= 8.24D-04
 ErrMax= 8.24D-04  0.00D+00 EMaxC= 1.00D-01 BMatC= 1.25D-05 BMatP= 9.31D-05
 IDIUse=3 WtCom= 9.92D-01 WtEn= 8.24D-03
 Coeff-Com: -0.384D+00 0.138D+01
 Coeff-En:   0.000D+00 0.100D+01
 Coeff:     -0.381D+00 0.138D+01
 Gap=     0.328 Goal=   None    Shift=    0.000
 RMSDP=9.66D-04 MaxDP=4.85D-03 DE=-3.27D-04 OVMax= 7.42D-03

 Cycle   3  Pass 1  IDiag  3:
 E=-0.101337657953145     Delta-E=       -0.000090271569 Rises=F Damp=F
 DIIS: error= 2.86D-04 at cycle   3 NSaved=   3.
 NSaved= 3 IEnMin= 3 EnMin=-0.101337657953145     IErMin= 3 ErrMin= 2.86D-04
 ErrMax= 2.86D-04  0.00D+00 EMaxC= 1.00D-01 BMatC= 1.37D-06 BMatP= 1.25D-05
 IDIUse=3 WtCom= 9.97D-01 WtEn= 2.86D-03
 Coeff-Com:  0.156D+00-0.869D+00 0.171D+01
 Coeff-En:   0.000D+00 0.000D+00 0.100D+01
 Coeff:      0.156D+00-0.867D+00 0.171D+01
 Gap=     0.328 Goal=   None    Shift=    0.000
 RMSDP=5.37D-04 MaxDP=2.95D-03 DE=-9.03D-05 OVMax= 4.60D-03

 Cycle   4  Pass 1  IDiag  3:
 E=-0.101351740154762     Delta-E=       -0.000014082202 Rises=F Damp=F
 DIIS: error= 5.30D-05 at cycle   4 NSaved=   4.
 NSaved= 4 IEnMin= 4 EnMin=-0.101351740154762     IErMin= 4 ErrMin= 5.30D-05
 ErrMax= 5.30D-05  0.00D+00 EMaxC= 1.00D-01 BMatC= 2.59D-08 BMatP= 1.37D-06
 IDIUse=1 WtCom= 1.00D+00 WtEn= 0.00D+00
 Coeff-Com: -0.499D-01 0.305D+00-0.694D+00 0.144D+01
 Coeff:     -0.499D-01 0.305D+00-0.694D+00 0.144D+01
 Gap=     0.328 Goal=   None    Shift=    0.000
 RMSDP=6.78D-05 MaxDP=4.66D-04 DE=-1.41D-05 OVMax= 6.85D-04

 Cycle   5  Pass 1  IDiag  3:
 E=-0.101351967196671     Delta-E=       -0.000000227042 Rises=F Damp=F
 DIIS: error= 9.14D-06 at cycle   5 NSaved=   5.
 NSaved= 5 IEnMin= 5 EnMin=-0.101351967196671     IErMin= 5 ErrMin= 9.14D-06
 ErrMax= 9.14D-06  0.00D+00 EMaxC= 1.00D-01 BMatC= 5.97D-10 BMatP= 2.59D-08
 IDIUse=1 WtCom= 1.00D+00 WtEn= 0.00D+00
 Coeff-Com:  0.200D-01-0.121D+00 0.275D+00-0.653D+00 0.148D+01
 Coeff:      0.200D-01-0.121D+00 0.275D+00-0.653D+00 0.148D+01
 Gap=     0.328 Goal=   None    Shift=    0.000
 RMSDP=1.01D-05 MaxDP=7.39D-05 DE=-2.27D-07 OVMax= 9.13D-05

 Cycle   6  Pass 1  IDiag  3:
 E=-0.101351972265526     Delta-E=       -0.000000005069 Rises=F Damp=F
 DIIS: error= 1.10D-06 at cycle   6 NSaved=   6.
 NSaved= 6 IEnMin= 6 EnMin=-0.101351972265526     IErMin= 6 ErrMin= 1.10D-06
 ErrMax= 1.10D-06  0.00D+00 EMaxC= 1.00D-01 BMatC= 1.77D-11 BMatP= 5.97D-10
 IDIUse=1 WtCom= 1.00D+00 WtEn= 0.00D+00
 Coeff-Com: -0.962D-02 0.585D-01-0.133D+00 0.327D+00-0.832D+00 0.159D+01
 Coeff:     -0.962D-02 0.585D-01-0.133D+00 0.327D+00-0.832D+00 0.159D+01
 Gap=     0.328 Goal=   None    Shift=    0.000
 RMSDP=1.36D-06 MaxDP=9.02D-06 DE=-5.07D-09 OVMax= 1.07D-05

 Cycle   7  Pass 1  IDiag  3:
 E=-0.101351972391981     Delta-E=       -0.000000000126 Rises=F Damp=F
 DIIS: error= 9.19D-08 at cycle   7 NSaved=   7.
 NSaved= 7 IEnMin= 7 EnMin=-0.101351972391981     IErMin= 7 ErrMin= 9.19D-08
 ErrMax= 9.19D-08  0.00D+00 EMaxC= 1.00D-01 BMatC= 2.93D-13 BMatP= 1.77D-11
 IDIUse=1 WtCom= 1.00D+00 WtEn= 0.00D+00
 Coeff-Com:  0.160D-02-0.969D-02 0.220D-01-0.537D-01 0.142D+00-0.343D+00
 Coeff-Com:  0.124D+01
 Coeff:      0.160D-02-0.969D-02 0.220D-01-0.537D-01 0.142D+00-0.343D+00
 Coeff:      0.124D+01
 Gap=     0.328 Goal=   None    Shift=    0.000
 RMSDP=1.65D-07 MaxDP=7.86D-07 DE=-1.26D-10 OVMax= 9.51D-07

 Cycle   8  Pass 1  IDiag  3:
 E=-0.101351972393999     Delta-E=       -0.000000000002 Rises=F Damp=F
 DIIS: error= 3.66D-08 at cycle   8 NSaved=   8.
 NSaved= 8 IEnMin= 8 EnMin=-0.101351972393999     IErMin= 8 ErrMin= 3.66D-08
 ErrMax= 3.66D-08  0.00D+00 EMaxC= 1.00D-01 BMatC= 2.00D-14 BMatP= 2.93D-13
 IDIUse=1 WtCom= 1.00D+00 WtEn= 0.00D+00
 Coeff-Com: -0.550D-03 0.333D-02-0.753D-02 0.181D-01-0.478D-01 0.118D+00
 Coeff-Com: -0.555D+00 0.147D+01
 Coeff:     -0.550D-03 0.333D-02-0.753D-02 0.181D-01-0.478D-01 0.118D+00
 Coeff:     -0.555D+00 0.147D+01
 Gap=     0.328 Goal=   None    Shift=    0.000
 RMSDP=4.91D-08 MaxDP=3.14D-07 DE=-2.02D-12 OVMax= 3.73D-07

 Cycle   9  Pass 1  IDiag  3:
 E=-0.101351972394198     Delta-E=       -0.000000000000 Rises=F Damp=F
 DIIS: error= 1.42D-08 at cycle   9 NSaved=   9.
 NSaved= 9 IEnMin= 9 EnMin=-0.101351972394198     IErMin= 9 ErrMin= 1.42D-08
 ErrMax= 1.42D-08  0.00D+00 EMaxC= 1.00D-01 BMatC= 1.90D-15 BMatP= 2.00D-14
 IDIUse=1 WtCom= 1.00D+00 WtEn= 0.00D+00
 Coeff-Com:  0.794D-04-0.476D-03 0.106D-02-0.250D-02 0.662D-02-0.161D-01
 Coeff-Com:  0.115D+00-0.583D+00 0.148D+01
 Coeff:      0.794D-04-0.476D-03 0.106D-02-0.250D-02 0.662D-02-0.161D-01
 Coeff:      0.115D+00-0.583D+00 0.148D+01
 Gap=     0.328 Goal=   None    Shift=    0.000
 RMSDP=2.01D-08 MaxDP=1.44D-07 DE=-1.99D-13 OVMax= 1.71D-07

 Cycle  10  Pass 1  IDiag  3:
 E=-0.101351972394269     Delta-E=       -0.000000000000 Rises=F Damp=F
 DIIS: error= 3.83D-09 at cycle  10 NSaved=  10.
 NSaved=10 IEnMin=10 EnMin=-0.101351972394269     IErMin=10 ErrMin= 3.83D-09
 ErrMax= 3.83D-09  0.00D+00 EMaxC= 1.00D-01 BMatC= 1.69D-16 BMatP= 1.90D-15
 IDIUse=1 WtCom= 1.00D+00 WtEn= 0.00D+00
 Coeff-Com: -0.319D-05 0.165D-04-0.255D-04 0.343D-04-0.745D-04-0.207D-03
 Coeff-Com: -0.235D-01 0.232D+00-0.909D+00 0.170D+01
 Coeff:     -0.319D-05 0.165D-04-0.255D-04 0.343D-04-0.745D-04-0.207D-03
 Coeff:     -0.235D-01 0.232D+00-0.909D+00 0.170D+01
 Gap=     0.328 Goal=   None    Shift=    0.000
 RMSDP=6.85D-09 MaxDP=5.02D-08 DE=-7.11D-14 OVMax= 6.15D-08

 Cycle  11  Pass 2  IDiag  1:
 SCF Done:  E(RPM3) = -0.101351972394     A.U. after   11 cycles
            NFock= 10  Conv=0.69D-08     -V/T= 0.9978
 KE=-4.552686132228D+01 PE=-6.200317858045D+01 EE= 4.712367101328D+01
 Leave Link  502 at Wed Oct 21 14:21:24 2020, MaxMem=  2684354560 cpu:               8.2 elap:               1.3
 (Enter /udrive/faculty/rpeverati/g16/g16/l508.exe)
 QCSCF skips out because SCF is already converged.
 Leave Link  508 at Wed Oct 21 14:21:25 2020, MaxMem=  2684354560 cpu:               0.7 elap:               0.7
 (Enter /udrive/faculty/rpeverati/g16/g16/l701.exe)
 ... and contract with generalized density number  0.
 Compute integral first derivatives.
 Leave Link  701 at Wed Oct 21 14:21:27 2020, MaxMem=  2684354560 cpu:               5.0 elap:               1.1
 (Enter /udrive/faculty/rpeverati/g16/g16/l702.exe)
 L702 exits ... SP integral derivatives will be done elsewhere.
 Leave Link  702 at Wed Oct 21 14:21:28 2020, MaxMem=  2684354560 cpu:               2.7 elap:               0.8
 (Enter /udrive/faculty/rpeverati/g16/g16/l703.exe)
 Integral derivatives from FoFJK, PRISM(SPDF).
 Compute integral first derivatives, UseDBF=F ICtDFT=           0.
 Calling FoFJK, ICntrl=      2127 FMM=F ISym2X=0 I1Cent= 0 IOpClX= 0 NMat=1 NMatS=1 NMatT=0.
 FoFJK:  IHMeth= 9 ICntrl=    2127 DoSepK=F KAlg= 0 I1Cent=           0 FoldK=F
 IRaf=         0 NMat=       1 IRICut=       1 DoRegI=T DoRafI=F ISym2E= 0 IDoP0=3 IntGTp=3.
 FoFCou: FMM=F IPFlag=           0 FMFlag=      100000 FMFlg1=         800
         NFxFlg=           0 DoJE=F BraDBF=F KetDBF=F FulRan=T
         wScrn=  0.000000 ICntrl=      2127 IOpCl=  0 I1Cent=           0 NGrid=           0
         NMat0=    1 NMatS0=      1 NMatT0=    0 NMatD0=    1 NMtDS0=    0 NMtDT0=    0
 Symmetry not used in FoFCou.
[...]
           A9          -0.01784   0.00058  -0.01784   0.04172
           A10          0.01644  -0.00234  -0.00822  -0.00822   0.03288
           A11         -0.00000  -0.00000   0.01424  -0.01424   0.00000
           D1           0.00697  -0.00000   0.00697   0.00697  -0.00000
           D2           0.00058  -0.00608   0.00058  -0.00117   0.00117
           D3          -0.00058   0.00608   0.00117  -0.00058  -0.00117
           D4          -0.00117   0.01217   0.00058   0.00058  -0.00234
                          A11       D1        D2        D3        D4
           A11          0.03288
           D1          -0.00000   0.02413
           D2           0.00202   0.00000   0.01216
           D3           0.00202   0.00000   0.00608   0.01217
           D4          -0.00000  -0.00000  -0.00608   0.00608   0.01217
 ITU=  0
 Eigenvectors of the second derivative matrix:
                           1         2         3         4         5
     Eigenvalues --    -0.01996   0.03508   0.03509   0.05834   0.05834
   1         R1        -0.49988   0.00000  -0.00000   0.00001  -0.00000
   2         R2        -0.00000  -0.00872  -0.01445   0.01744  -0.02827
   3         R3        -0.00000  -0.00811   0.01479   0.01575   0.02924
   4         R4        -0.00000   0.01688  -0.00035  -0.03320  -0.00098
   5         R5         0.49988  -0.00003   0.00000  -0.00001   0.00001
   6         A1         0.16672  -0.04364  -0.07212  -0.19335   0.31335
   7         A2         0.16672  -0.04061   0.07387  -0.17461  -0.32419
   8         A3         0.16671   0.08427  -0.00174   0.36802   0.01083
   9         A4         0.00001   0.56256  -0.01165  -0.12814  -0.00377
  10         A5         0.00001  -0.27119   0.49302   0.06081   0.11286
  11         A6        -0.16673  -0.04364  -0.07210  -0.19340   0.31332
  12         A7         0.00001  -0.29137  -0.48137   0.06734  -0.10908
  13         A8        -0.16673  -0.04061   0.07384  -0.17464  -0.32413
  14         A9        -0.16669   0.08428  -0.00175   0.36809   0.01083
  15         A10       -0.00000  -0.08727  -0.14422  -0.38675   0.62667
  16         A11       -0.00001  -0.14423   0.08728  -0.62670  -0.38673
  17         D1        -0.57747  -0.00001  -0.00000   0.00001   0.00001
  18         D2         0.00001   0.56256  -0.01165  -0.12814  -0.00378
  19         D3         0.00001   0.27119  -0.49302  -0.06081  -0.11287
  20         D4        -0.00000  -0.29137  -0.48137   0.06734  -0.10910
                           6         7         8         9        10
     Eigenvalues --     0.09241   0.09446   0.09446   0.11861   0.34936
   1         R1         0.50009  -0.00004  -0.00005  -0.70497   0.00002
   2         R2         0.00000   0.00000   0.00000   0.04504   0.41455
   3         R3         0.00000   0.00000   0.00000   0.04504   0.40148
   4         R4         0.00000  -0.00000   0.00000   0.04503  -0.81541
   5         R5        -0.50015   0.00001   0.00001  -0.70493   0.00002
   6         A1         0.16667  -0.32677   0.47595  -0.00001   0.00673
   7         A2         0.16660  -0.24880  -0.52097   0.00002   0.00652
   8         A3         0.16665   0.57564   0.04500  -0.00002  -0.01325
   9         A4        -0.00001  -0.00000  -0.00000  -0.00001   0.01686
  10         A5         0.00002   0.00000   0.00002   0.00001  -0.00829
  11         A6        -0.16665   0.32674  -0.47598   0.00002   0.00673
  12         A7         0.00001   0.00000  -0.00002   0.00001  -0.00856
  13         A8        -0.16660   0.24879   0.52101  -0.00002   0.00652
  14         A9        -0.16666  -0.57559  -0.04501   0.00002  -0.01325
  15         A10        0.00002  -0.00003  -0.00003   0.00000   0.01346
  16         A11        0.00000  -0.00004   0.00002   0.00000   0.02283
  17         D1        -0.57719   0.00003   0.00004   0.00002   0.00000
  18         D2        -0.00001  -0.00001   0.00000  -0.00001   0.01686
  19         D3        -0.00001  -0.00000   0.00001  -0.00001   0.00829
  20         D4         0.00000   0.00000   0.00001   0.00001  -0.00856
                          11        12
     Eigenvalues --     0.34938   0.36542
   1         R1        -0.00000   0.05516
   2         R2         0.70255   0.57547
   3         R3        -0.71013   0.57542
   4         R4         0.00753   0.57588
   5         R5        -0.00000   0.05516
   6         A1         0.01141  -0.00000
   7         A2        -0.01154  -0.00000
   8         A3         0.00012   0.00001
   9         A4        -0.00016  -0.00003
  10         A5         0.01469   0.00001
  11         A6         0.01141  -0.00000
  12         A7        -0.01453   0.00001
  13         A8        -0.01154  -0.00000
  14         A9         0.00012   0.00000
  15         A10        0.02283  -0.00000
  16         A11       -0.01346  -0.00001
  17         D1        -0.00000  -0.00000
  18         D2        -0.00016  -0.00003
  19         D3        -0.01469  -0.00001
  20         D4        -0.01453   0.00001
 Eigenvalue     1 is  -2.00D-02 should be greater than     0.000000 Eigenvector:
                          D1        R5        R1        A8        A6
   1                   -0.57747   0.49988  -0.49988  -0.16673  -0.16673
                          A1        A2        A3        A9        A11
   1                    0.16672   0.16672   0.16671  -0.16669  -0.00001
 Angle between quadratic step and forces=  27.86 degrees.
 Linear search not attempted -- first point.
 Iteration  1 RMS(Cart)=  0.00006622 RMS(Int)=  0.00000000
 Iteration  2 RMS(Cart)=  0.00000000 RMS(Int)=  0.00000000
 ITry= 1 IFail=0 DXMaxC= 1.53D-04 DCOld= 1.00D+10 DXMaxT= 3.00D-01 DXLimC= 3.00D+00 Rises=F
 Variable       Old X    -DE/DX   Delta X   Delta X   Delta X     New X
                                 (Linear)    (Quad)   (Total)
    R1        4.13617  -0.00000   0.00000  -0.00001  -0.00001   4.13615
    R2        2.04343   0.00000   0.00000   0.00001   0.00001   2.04344
    R3        2.04343   0.00000   0.00000   0.00001   0.00001   2.04344
    R4        2.04344   0.00000   0.00000  -0.00000  -0.00000   2.04344
    R5        4.13615  -0.00001   0.00000  -0.00008  -0.00008   4.13607
    A1        1.57077   0.00000   0.00000   0.00001   0.00001   1.57078
    A2        1.57078   0.00000   0.00000   0.00000   0.00000   1.57078
    A3        1.57080   0.00000   0.00000  -0.00002  -0.00002   1.57078
    A4        2.09458  -0.00001   0.00000  -0.00018  -0.00018   2.09440
    A5        2.09430   0.00000   0.00000   0.00010   0.00010   2.09440
    A6        1.57080  -0.00000   0.00000   0.00001   0.00001   1.57081
    A7        2.09431   0.00000   0.00000   0.00008   0.00008   2.09440
    A8        1.57079   0.00000   0.00000   0.00002   0.00002   1.57081
    A9        1.57084  -0.00000   0.00000  -0.00002  -0.00002   1.57081
   A10        3.14157   0.00000   0.00000   0.00002   0.00002   3.14159
   A11        3.14155   0.00000   0.00000   0.00004   0.00004   3.14159
    D1       -3.14155  -0.00000   0.00000   0.00001   0.00001  -3.14154
    D2        2.09458  -0.00001   0.00000  -0.00018  -0.00018   2.09440
    D3       -2.09430  -0.00000   0.00000  -0.00010  -0.00010  -2.09440
    D4        2.09431   0.00000   0.00000   0.00008   0.00008   2.09440
         Item               Value     Threshold  Converged?
 Maximum Force            0.000007     0.000450     YES
 RMS     Force            0.000003     0.000300     YES
 Maximum Displacement     0.000153     0.001800     YES
 RMS     Displacement     0.000066     0.001200     YES
 Predicted change in Energy=-2.183003D-09
 Optimization completed.
    -- Stationary point found.
                           ----------------------------
                           !   Optimized Parameters   !
                           ! (Angstroms and Degrees)  !
 --------------------------                            --------------------------
 ! Name  Definition              Value          Derivative Info.                !
 --------------------------------------------------------------------------------
 ! R1    R(1,2)                  2.1888         -DE/DX =    0.0                 !
 ! R2    R(2,3)                  1.0813         -DE/DX =    0.0                 !
 ! R3    R(2,4)                  1.0813         -DE/DX =    0.0                 !
 ! R4    R(2,5)                  1.0813         -DE/DX =    0.0                 !
 ! R5    R(2,6)                  2.1888         -DE/DX =    0.0                 !
 ! A1    A(1,2,3)               89.9986         -DE/DX =    0.0                 !
 ! A2    A(1,2,4)               89.999          -DE/DX =    0.0                 !
 ! A3    A(1,2,5)               90.0003         -DE/DX =    0.0                 !
 ! A4    A(3,2,4)              120.0103         -DE/DX =    0.0                 !
 ! A5    A(3,2,5)              119.9945         -DE/DX =    0.0                 !
 ! A6    A(3,2,6)               90.0003         -DE/DX =    0.0                 !
 ! A7    A(4,2,5)              119.9952         -DE/DX =    0.0                 !
 ! A8    A(4,2,6)               89.9996         -DE/DX =    0.0                 !
 ! A9    A(5,2,6)               90.0022         -DE/DX =    0.0                 !
 ! A10   L(1,2,6,3,-1)         179.9989         -DE/DX =    0.0                 !
 ! A11   L(1,2,6,3,-2)         179.9977         -DE/DX =    0.0                 !
 ! D1    D(3,2,5,4)           -179.9976         -DE/DX =    0.0                 !
 ! D2    D(3,2,6,4)            120.0103         -DE/DX =    0.0                 !
 ! D3    D(3,2,6,5)           -119.9945         -DE/DX =    0.0                 !
 ! D4    D(4,2,6,5)            119.9952         -DE/DX =    0.0                 !
 --------------------------------------------------------------------------------
 GradGradGradGradGradGradGradGradGradGradGradGradGradGradGradGradGradGrad

 Leave Link  103 at Wed Oct 21 14:23:04 2020, MaxMem=  2684354560 cpu:               6.2 elap:               1.2
 (Enter /udrive/faculty/rpeverati/g16/g16/l9999.exe)

 ----------------------------------------------------------------------

 Electric dipole moment (input orientation):
 (Debye = 10**-18 statcoulomb cm , SI units = C m)
                  (au)            (Debye)         (10**-30 SI)
   Tot        0.811165D-04      0.206178D-03      0.687734D-03
   x          0.200826D-04      0.510449D-04      0.170268D-03
   y          0.592341D-04      0.150558D-03      0.502208D-03
   z         -0.516516D-04     -0.131285D-03     -0.437921D-03

 Dipole polarizability, Alpha (input orientation).
 (esu units = cm**3 , SI units = C**2 m**2 J**-1)
 Alpha(0;0):
               (au)            (10**-24 esu)      (10**-40 SI)
   iso        0.356205D+02      0.527842D+01      0.587303D+01
   aniso      0.842685D+02      0.124873D+02      0.138940D+02
   xx         0.753170D+01      0.111608D+01      0.124181D+01
   yx        -0.314933D-03     -0.466683D-04     -0.519255D-04
   yy         0.753640D+01      0.111678D+01      0.124258D+01
   zx         0.294173D-02      0.435919D-03      0.485026D-03
   zy         0.712330D+00      0.105556D+00      0.117447D+00
   zz         0.917935D+02      0.136024D+02      0.151347D+02

 First dipole hyperpolarizability, Beta (input orientation).
 ||, _|_  parallel and perpendicular components, (z) with respect to z axis,
 vector components x,y,z.  Values do not include the 1/n! factor of 1/2.
 (esu units = statvolt**-1 cm**4 , SI units = C**3 m**3 J**-2)
 Beta(0;0,0):
               (au)            (10**-30 esu)      (10**-50 SI)
   || (z)    -0.411154D-01     -0.355205D-03     -0.131831D-03
   _|_(z)    -0.137051D-01     -0.118402D-03     -0.439437D-04
   x          0.599798D-01      0.518179D-03      0.192317D-03
   y          0.175641D+00      0.151740D-02      0.563169D-03
   z         -0.205577D+00     -0.177603D-02     -0.659155D-03
   ||         0.553929D-01      0.478552D-03      0.177610D-03
   xxx       -0.127264D+02     -0.109946D+00     -0.408054D-01
   xxy       -0.132160D+02     -0.114176D+00     -0.423754D-01
   yxy        0.127269D+02      0.109951D+00      0.408071D-01
   yyy        0.132200D+02      0.114210D+00      0.423880D-01
   xxz        0.112709D+00      0.973717D-03      0.361386D-03
   yxz       -0.106957D+00     -0.924028D-03     -0.342944D-03
   yyz       -0.110805D+00     -0.957268D-03     -0.355280D-03
   zxz        0.194443D-01      0.167984D-03      0.623455D-04
   zyz        0.546166D-01      0.471844D-03      0.175120D-03
   zzz       -0.704298D-01     -0.608459D-03     -0.225823D-03

 ----------------------------------------------------------------------

 Dipole orientation:
    17          1.02070499         -3.04399154         -2.60758353
     6          0.00046210         -0.00022139          0.00056458
     1          1.56170347          1.11944504         -0.69547389
     1         -1.83530304          0.14354682         -0.88537791
     1          0.27506030         -1.26391442          1.58275705
    17         -1.01981495          3.04364985          2.60856310

 Electric dipole moment (dipole orientation):
 (Debye = 10**-18 statcoulomb cm , SI units = C m)
                  (au)            (Debye)         (10**-30 SI)
   Tot        0.811165D-04      0.206178D-03      0.687734D-03
   x          0.000000D+00      0.000000D+00      0.000000D+00
   y          0.000000D+00      0.000000D+00      0.000000D+00
   z          0.811165D-04      0.206178D-03      0.687734D-03

 Dipole polarizability, Alpha (dipole orientation).
 (esu units = cm**3 , SI units = C**2 m**2 J**-1)
 Alpha(0;0):
               (au)            (10**-24 esu)      (10**-40 SI)
   iso        0.356205D+02      0.527842D+01      0.587303D+01
   aniso      0.842685D+02      0.124873D+02      0.138940D+02
   xx         0.126591D+02      0.187588D+01      0.208720D+01
   yx        -0.152966D+02     -0.226672D+01     -0.252206D+01
   yy         0.531669D+02      0.787852D+01      0.876604D+01
   zx        -0.131070D+02     -0.194225D+01     -0.216104D+01
   zy         0.391033D+02      0.579451D+01      0.644726D+01
   zz         0.410356D+02      0.608085D+01      0.676586D+01

 First dipole hyperpolarizability, Beta (dipole orientation).
 ||, _|_  parallel and perpendicular components, (z) with respect to z axis,
 vector components x,y,z.  Values do not include the 1/n! factor of 1/2.
 (esu units = statvolt**-1 cm**4 , SI units = C**3 m**3 J**-2)
 Beta(0;0,0):
               (au)            (10**-30 esu)      (10**-50 SI)
   || (z)     0.548024D-01      0.473450D-03      0.175716D-03
   _|_(z)     0.182675D-01      0.157817D-03      0.585721D-04
   x         -0.125633D-01     -0.108537D-03     -0.402825D-04
   y          0.383263D-01      0.331109D-03      0.122888D-03
   z          0.274012D+00      0.236725D-02      0.878582D-03
   ||         0.553929D-01      0.478552D-03      0.177610D-03
   xxx       -0.676670D+01     -0.584590D-01     -0.216965D-01
   xxy        0.893791D+01      0.772166D-01      0.286582D-01
   yxy        0.677021D+01      0.584893D-01      0.217077D-01
   yyy       -0.178109D+01     -0.153873D-01     -0.571083D-02
   xxz       -0.130816D+02     -0.113015D+00     -0.419444D-01
   yxz       -0.439783D+01     -0.379938D-01     -0.141010D-01
   yyz        0.470625D+01      0.406583D-01      0.150899D-01
   zxz       -0.769766D-02     -0.665018D-04     -0.246815D-04
   zyz       -0.714404D+01     -0.617189D-01     -0.229064D-01
   zzz        0.846672D+01      0.731459D-01      0.271474D-01

 ----------------------------------------------------------------------

 Test job not archived.
 1\1\GINC-NODE22\Freq\RPM3\ZDO\C1H3Cl2(1-)\RPEVERATI\21-Oct-2020\0\\#P 
 Freq PM3 5D 7F Integral=UltraFineGrid SCF=(NoSymm,XQC,MaxCyc=120) IOp(
 1/33=1) Geom=Check Guess=Read\\TS search on BH76.\\-1,1\Cl,0.000356955
 1,0.0187264428,2.1886428024\C,0.0002964038,0.0002701432,-0.0000441469\
 H,0.7697863566,-0.7594208281,0.0063675377\H,-1.0424352894,-0.286070254
 6,0.0024179118\H,0.2735886537,1.046471082,-0.0088795611\Cl,0.000204759
 5,-0.0182780284,-2.1887242299\\Version=ES64L-G16RevA.03\State=1-A\HF=-
 0.1038121\RMSD=8.277e-10\RMSF=5.625e-06\ZeroPoint=0.0366679\Thermal=0.
 0410749\Dipole=0.0000201,0.0000592,-0.0000517\DipoleDeriv=-0.7310231,-
 0.0000025,-0.0000538,-0.0000026,-0.7311675,-0.0162653,-0.000064,-0.016
 3029,-2.6602805,0.4061834,0.0000169,0.000169,0.0000169,0.4065996,0.042
 1476,0.0001682,0.0421473,5.3922247,0.0191471,-0.0413005,0.0003419,-0.0
 413202,0.0180675,-0.0031745,0.0003395,-0.003175,-0.3572464,0.0541428,0
 .0210917,-0.0001938,0.0211104,-0.0169224,-0.002878,-0.0001944,-0.00287
 84,-0.3572528,-0.0174379,0.0201973,-0.0001791,0.0201981,0.0545826,-0.0
 034753,-0.0001813,-0.0034767,-0.3571734,-0.7310133,-0.0000025,-0.00008
 41,-0.0000024,-0.7311596,-0.0163546,-0.0000679,-0.0163145,-2.6602818\P
 olar=7.5317036,-0.0003149,7.5363959,0.0029417,0.7123299,91.7934858\Hyp
 erPolar=-12.7263762,-13.2160468,12.7269251,13.2199774,0.1127089,-0.106
 9573,-0.1108049,0.0194443,0.0546166,-0.0704298\PG=C01 [X(C1H3Cl2)]\NIm
 ag=1\\0.01002845,-0.00000030,0.01003221,0.00000159,0.00057459,0.078177
 84,-0.01033587,-0.00000014,0.00000213,0.58742110,-0.00000014,-0.010332
 33,0.00047885,-0.00002265,0.58728573,0.00000166,0.00047638,0.04622001,
 -0.00002072,-0.00582044,-0.10133661,-0.00050615,0.00220140,0.00555766,
 -0.19074029,0.14383591,-0.00121259,0.19641043,0.00222158,-0.00056609,-
 0.00573307,0.14383344,-0.18705446,0.00160446,-0.15940870,0.19235065,0.
 00793318,-0.00807936,-0.02737982,-0.00121215,0.00160440,0.00296920,0.0
 0134517,-0.00122160,0.04750609,-0.00233210,-0.00116426,-0.00754789,-0.
 31257927,-0.07346775,0.00063323,-0.01207839,-0.00297397,0.00002568,0.3
 3144628,-0.00119150,0.00132907,-0.00231827,-0.07346539,-0.06522423,0.0
 0057944,0.01398760,0.00756552,-0.00004548,0.08142963,0.05732347,-0.010
 76758,-0.00320301,-0.02744882,0.00063336,0.00057952,0.00297843,-0.0001
 1795,-0.00004484,0.00225382,-0.00069936,-0.00008620,0.04749664,0.00140
 056,-0.00103668,0.00198840,-0.06342881,-0.07034528,0.00059547,0.007421
 41,0.01424030,-0.00012040,-0.00212571,-0.01975118,0.00016691,0.0553324
 6,-0.00102963,-0.00220483,0.00736805,-0.07034517,-0.31434130,0.0026800
 2,-0.00272362,-0.01195536,0.00012007,-0.00278736,-0.00240797,0.0000394
 4,0.07796358,0.33342502,0.00283242,0.01059970,-0.02764341,0.00059579,0
 .00268038,0.00294757,0.00002290,0.00011984,0.00225488,0.00002371,0.000
 04021,0.00225544,-0.00065819,-0.00241573,0.04751696,0.00174510,-0.0000
 0001,-0.00000189,-0.01033694,-0.00000010,0.00000295,-0.00050698,0.0020
 8732,-0.00797148,-0.00233077,-0.00100915,0.01078462,0.00140010,-0.0010
 7779,-0.00281663,0.01002947,0.,0.00174199,-0.00037011,-0.00000012,-0.0
 1033350,0.00048014,0.00210740,-0.00034023,0.00762197,-0.00103628,0.001
 41416,0.00271509,-0.00107073,-0.00251550,-0.01102440,-0.00000026,0.010
 03309,-0.00000127,-0.00036829,-0.04192569,0.00000159,0.00047729,0.0462
 2116,-0.00559519,0.00527521,-0.02760416,0.00756463,0.00183030,-0.02753
 551,-0.00197219,-0.00779184,-0.02733142,0.00000242,0.00057730,0.078175
 74\\0.00000003,-0.00000042,0.00000372,-0.00000476,-0.00001671,0.000000
 90,0.00000439,0.00000900,0.00000117,0.00000059,0.00000961,0.00000022,0
 .00000019,-0.00000078,0.00000142,-0.00000044,-0.00000071,-0.00000742\\
 \@


      HUMANKIND PERIODICALLY GOES THROUGH A SPEEDUP OF ITS AFFAIRS, 
      THEREBY EXPERIENCING THE RACE BETWEEN THE RENEWABLE VITALITY
      OF THE LIVING, AND THE BECKONING VITIATION OF DECADENCE.
      IN THIS PERIODIC RACE, ANY PAUSE BECOMES A LUXURY.
      ONLY THEN CAN ONE REFLECT THAT ALL IS PERMITTED;
      ALL IS POSSIBLE.

                              -- THE APOCRYPHA OF MUAD'DIB
                                 CHILDREN OF DUNE, BY FRANK HERBERT
 Job cpu time:       0 days  0 hours  1 minutes 46.6 seconds.
 Elapsed time:       0 days  0 hours  0 minutes 22.5 seconds.
 File lengths (MBytes):  RWF=      5 Int=      0 D2E=      0 Chk=      2 Scr=      1
 Normal termination of Gaussian 16 at Wed Oct 21 14:23:06 2020.
