 Entering Gaussian System, Link 0=g16
 Input=MN_37_fch3clts_BH76_PM3_SE.in
 Output=MN_37_fch3clts_BH76_PM3_SE.log
 Initial command:
 /udrive/faculty/rpeverati/g16/g16/l1.exe "/udrive/scratch-directories/gaussian09/rpeverati/Gau-26181.inp" -scrdir="/udrive/scratch-directories/gaussian09/rpeverati/"
 Entering Link 1 = /udrive/faculty/rpeverati/g16/g16/l1.exe PID=     26196.
  
 Copyright (c) 1988,1990,1992,1993,1995,1998,2003,2009,2016,
            Gaussian, Inc.  All Rights Reserved.
  
 This is part of the Gaussian(R) 16 program.  It is based on
 the Gaussian(R) 09 system (copyright 2009, Gaussian, Inc.),
 the Gaussian(R) 03 system (copyright 2003, Gaussian, Inc.),
 the Gaussian(R) 98 system (copyright 1998, Gaussian, Inc.),
 the Gaussian(R) 94 system (copyright 1995, Gaussian, Inc.),
 the Gaussian 92(TM) system (copyright 1992, Gaussian, Inc.),
 the Gaussian 90(TM) system (copyright 1990, Gaussian, Inc.),
 the Gaussian 88(TM) system (copyright 1988, Gaussian, Inc.),
 the Gaussian 86(TM) system (copyright 1986, Carnegie Mellon
 University), and the Gaussian 82(TM) system (copyright 1983,
 Carnegie Mellon University). Gaussian is a federally registered
 trademark of Gaussian, Inc.
  
 This software contains proprietary and confidential information,
 including trade secrets, belonging to Gaussian, Inc.
  
 This software is provided under written license and may be
 used, copied, transmitted, or stored only in accord with that
 written license.
  
 The following legend is applicable only to US Government
 contracts under FAR:
  
                    RESTRICTED RIGHTS LEGEND
  
 Use, reproduction and disclosure by the US Government is
 subject to restrictions as set forth in subparagraphs (a)
 and (c) of the Commercial Computer Software - Restricted
 Rights clause in FAR 52.227-19.
  
 Gaussian, Inc.
 340 Quinnipiac St., Bldg. 40, Wallingford CT 06492
  
  
 ---------------------------------------------------------------
 Warning -- This program may not be used in any manner that
 competes with the business of Gaussian, Inc. or will provide
 assistance to any competitor of Gaussian, Inc.  The licensee
 of this program is prohibited from giving any competitor of
 Gaussian, Inc. access to this program.  By using this program,
 the user acknowledges that Gaussian, Inc. is engaged in the
 business of creating and licensing software in the field of
 computational chemistry and represents and warrants to the
 licensee that it is not a competitor of Gaussian, Inc. and that
 it will not use this program in any manner prohibited above.
 ---------------------------------------------------------------
  

 Cite this work as:
 Gaussian 16, Revision A.03,
 M. J. Frisch, G. W. Trucks, H. B. Schlegel, G. E. Scuseria, 
 M. A. Robb, J. R. Cheeseman, G. Scalmani, V. Barone, 
 G. A. Petersson, H. Nakatsuji, X. Li, M. Caricato, A. V. Marenich, 
 J. Bloino, B. G. Janesko, R. Gomperts, B. Mennucci, H. P. Hratchian, 
 J. V. Ortiz, A. F. Izmaylov, J. L. Sonnenberg, D. Williams-Young, 
 F. Ding, F. Lipparini, F. Egidi, J. Goings, B. Peng, A. Petrone, 
 T. Henderson, D. Ranasinghe, V. G. Zakrzewski, J. Gao, N. Rega, 
 G. Zheng, W. Liang, M. Hada, M. Ehara, K. Toyota, R. Fukuda, 
 J. Hasegawa, M. Ishida, T. Nakajima, Y. Honda, O. Kitao, H. Nakai, 
 T. Vreven, K. Throssell, J. A. Montgomery, Jr., J. E. Peralta, 
 F. Ogliaro, M. J. Bearpark, J. J. Heyd, E. N. Brothers, K. N. Kudin, 
 V. N. Staroverov, T. A. Keith, R. Kobayashi, J. Normand, 
 K. Raghavachari, A. P. Rendell, J. C. Burant, S. S. Iyengar, 
 J. Tomasi, M. Cossi, J. M. Millam, M. Klene, C. Adamo, R. Cammi, 
 J. W. Ochterski, R. L. Martin, K. Morokuma, O. Farkas, 
 J. B. Foresman, and D. J. Fox, Gaussian, Inc., Wallingford CT, 2016.
 
 ******************************************
 Gaussian 16:  ES64L-G16RevA.03 25-Dec-2016
                21-Oct-2020 
 ******************************************
 %NoSave
 %nproc=12
 Will use up to   12 processors via shared memory.
 %mem=20GB
 %chk=MN_37_fch3clts_BH76_PM3_SE
 ----------------------------------------------------------------------
 #P Opt(TS,MaxCyc=50,NoEigenTest,MaxStep=10,AddRedundant) PM3 5D 7F Int
 egral=UltraFineGrid SCF=(NoSymm,XQC,MaxCyc=120) IOp(1/33=1)
 ----------------------------------------------------------------------
 1/5=1,6=50,8=10,11=1,18=120,26=1,33=1,38=1/1,3;
 2/9=110,12=2,17=6,18=5,40=1/2;
 3/5=2,8=11,25=1,41=800000,71=1,75=-5/1,2,3;
 4/9=2,35=1/1;
 5/5=2,7=120,8=3,13=1,35=1,38=5/2,8;
 6/7=2,8=2,9=2,10=2,28=1/1;
 7//1,2,3,16;
 1/5=1,6=50,8=10,11=1,18=20,26=1,33=1/3(2);
 2/9=110/2;
 99//99;
 2/9=110/2;
 3/5=2,8=11,25=1,41=800000,71=1,75=-5,135=20/1,2,3;
 4/5=5,9=2,16=3,35=1/1;
 5/5=2,7=120,8=3,13=1,35=1,38=5/2,8;
 7//1,2,3,16;
 1/5=1,6=50,8=10,11=1,18=20,26=1,33=1/3(-5);
 2/9=110/2;
 6/7=2,8=2,9=2,10=2,19=2,28=1/1;
 99/9=1/99;
 Leave Link    1 at Wed Oct 21 14:21:04 2020, MaxMem=  2684354560 cpu:               7.2 elap:               0.7
 (Enter /udrive/faculty/rpeverati/g16/g16/l101.exe)
 ONIOM data not found on unit 2.
 ------------------
 TS search on BH76.
 ------------------
 TstMul:  ICh=    -1
 TstMul:  Mul=     1
 TstMul:  ICh=    -1
 TstMul:  Mul=     1
 Symbolic Z-matrix:
 Charge = -1 Multiplicity = 1
 F                     0.        0.       -1.99681 
 C                     0.        0.        0.05275 
 H                    -0.53104   0.91979  -0.07385 
 H                    -0.53104  -0.91979  -0.07385 
 H                     1.06209   0.       -0.07385 
 Cl                    0.        0.        2.16562 
 
 RdStrC is calling ZToCFu for IStruc=1 NZ=     6.
 PrtBox:  NBox=     1 Levels=  1 BoxLen=    8.00 SMaxX=        7.87
          Shift=            1.003525            1.738156            3.773422
 Box      1 Number                   0 centers from      1 to      6:
 After GenITR:
 ITRead=  0  0  0  0  0  0
 MicOpt= -1 -1 -1 -1 -1 -1
 Add virtual bond connecting atoms C2         and F1         Dist= 3.87D+00.
 Add virtual bond connecting atoms H3         and F1         Dist= 4.15D+00.
 Add virtual bond connecting atoms H4         and F1         Dist= 4.15D+00.
 Add virtual bond connecting atoms H5         and F1         Dist= 4.15D+00.
 The following ModRedundant input section has been read:
 
 ITRead=  0  0  0  0  0  0
 MicOpt= -1 -1 -1 -1 -1 -1
 NAtoms=      6 NQM=        6 NQMF=       0 NMMI=      0 NMMIF=      0
                NMic=       0 NMicF=      0.
                    Isotopes and Nuclear Properties:
 (Nuclear quadrupole moments (NQMom) in fm**2, nuclear magnetic moments (NMagM)
  in nuclear magnetons)

  Atom         1           2           3           4           5           6
 IAtWgt=          19          12           1           1           1          35
 AtmWgt=  18.9984033  12.0000000   1.0078250   1.0078250   1.0078250  34.9688527
 NucSpn=           1           0           1           1           1           3
 AtZEff=   0.0000000   0.0000000   0.0000000   0.0000000   0.0000000   0.0000000
 NQMom=    0.0000000   0.0000000   0.0000000   0.0000000   0.0000000  -8.1650000
 NMagM=    2.6288670   0.0000000   2.7928460   2.7928460   2.7928460   0.8218740
 AtZNuc=   9.0000000   6.0000000   1.0000000   1.0000000   1.0000000  17.0000000
 No MM parameters found.
 Leave Link  101 at Wed Oct 21 14:21:05 2020, MaxMem=  2684354560 cpu:               7.1 elap:               0.9
 (Enter /udrive/faculty/rpeverati/g16/g16/l103.exe)

 GradGradGradGradGradGradGradGradGradGradGradGradGradGradGradGradGradGrad
 Berny optimization.
 Optmz: redundant internal coordinate code flag= 1
 Initialization pass.
                           ----------------------------
                           !    Initial Parameters    !
                           ! (Angstroms and Degrees)  !
 --------------------------                            --------------------------
 ! Name  Definition              Value          Derivative Info.                !
 --------------------------------------------------------------------------------
 ! R1    R(1,2)                  2.0496         estimate D2E/DX2                !
 ! R2    R(1,3)                  2.1968         estimate D2E/DX2                !
 ! R3    R(1,4)                  2.1968         estimate D2E/DX2                !
 ! R4    R(1,5)                  2.1968         estimate D2E/DX2                !
 ! R5    R(2,3)                  1.0696         estimate D2E/DX2                !
 ! R6    R(2,4)                  1.0696         estimate D2E/DX2                !
 ! R7    R(2,5)                  1.0696         estimate D2E/DX2                !
 ! R8    R(2,6)                  2.1129         estimate D2E/DX2                !
 ! A1    A(3,1,4)               49.5055         estimate D2E/DX2                !
 ! A2    A(3,1,5)               49.5055         estimate D2E/DX2                !
 ! A3    A(4,1,5)               49.5055         estimate D2E/DX2                !
 ! A4    A(3,2,4)              118.6192         estimate D2E/DX2                !
 ! A5    A(3,2,5)              118.6192         estimate D2E/DX2                !
 ! A6    A(3,2,6)               96.7976         estimate D2E/DX2                !
 ! A7    A(4,2,5)              118.6192         estimate D2E/DX2                !
 ! A8    A(4,2,6)               96.7976         estimate D2E/DX2                !
 ! A9    A(5,2,6)               96.7976         estimate D2E/DX2                !
 ! A10   L(1,2,6,3,-1)         180.0            estimate D2E/DX2                !
 ! A11   L(1,2,6,3,-2)         180.0            estimate D2E/DX2                !
 ! D1    D(3,1,5,4)             66.8145         estimate D2E/DX2                !
 ! D2    D(3,2,5,4)           -156.8288         estimate D2E/DX2                !
 ! D3    D(3,2,6,4)            120.0            estimate D2E/DX2                !
 ! D4    D(3,2,6,5)           -120.0            estimate D2E/DX2                !
 ! D5    D(4,2,6,5)            120.0            estimate D2E/DX2                !
 --------------------------------------------------------------------------------
 Maximum allowed force set to 1.00D+20.
 Trust Radius=1.00D-01 FncErr=1.00D-07 GrdErr=1.00D-07 EigMax=2.50D+02 EigMin=1.00D-04
 Number of steps in this run=     50 maximum allowed number of steps=    100.
 Search for a saddle point of order  1.
 GradGradGradGradGradGradGradGradGradGradGradGradGradGradGradGradGradGrad

 Leave Link  103 at Wed Oct 21 14:21:06 2020, MaxMem=  2684354560 cpu:               2.4 elap:               0.9
 (Enter /udrive/faculty/rpeverati/g16/g16/l202.exe)
                          Input orientation:                          
 ---------------------------------------------------------------------
 Center     Atomic      Atomic             Coordinates (Angstroms)
 Number     Number       Type             X           Y           Z
 ---------------------------------------------------------------------
      1          9           0        0.000000    0.000000   -1.996809
      2          6           0        0.000000    0.000000    0.052748
      3          1           0       -0.531043    0.919793   -0.073853
      4          1           0       -0.531043   -0.919793   -0.073853
      5          1           0        1.062085    0.000000   -0.073853
      6         17           0        0.000000    0.000000    2.165620
 ---------------------------------------------------------------------
                    Distance matrix (angstroms):
                    1          2          3          4          5
     1  F    0.000000
     2  C    2.049556   0.000000
     3  H    2.196767   1.069604   0.000000
     4  H    2.196767   1.069604   1.839585   0.000000
     5  H    2.196767   1.069604   1.839585   1.839585   0.000000
     6  Cl   4.162429   2.112872   2.478561   2.478561   2.478561
                    6
     6  Cl   0.000000
 Stoichiometry    CH3ClF(1-)
 Framework group  C3V[C3(FCCl),3SGV(H)]
 Deg. of freedom     4
 Full point group                 C3V     NOp   6
 Largest Abelian subgroup         CS      NOp   2
 Largest concise Abelian subgroup CS      NOp   2
                         Standard orientation:                         
 ---------------------------------------------------------------------
 Center     Atomic      Atomic             Coordinates (Angstroms)
 Number     Number       Type             X           Y           Z
 ---------------------------------------------------------------------
      1          9           0        0.000000    0.000000   -2.537928
      2          6           0        0.000000    0.000000   -0.488372
      3          1           0       -0.000000    1.062085   -0.614972
      4          1           0       -0.919793   -0.531043   -0.614972
      5          1           0        0.919793   -0.531043   -0.614972
      6         17           0        0.000000    0.000000    1.624500
 ---------------------------------------------------------------------
 Rotational constants (GHZ):         148.1808741           2.2934982           2.2934982
 Leave Link  202 at Wed Oct 21 14:21:07 2020, MaxMem=  2684354560 cpu:               2.2 elap:               0.8
 (Enter /udrive/faculty/rpeverati/g16/g16/l301.exe)
 Standard basis: VSTO-6G (5D, 7F)
 Ernie: Thresh=  0.10000D-02 Tol=  0.10000D-05 Strict=F.
  NNHCO=     0 NNPyr=     0 NCTC=     0               EPep=         0.000000000
    EC=        31.807710665  ECS=         0.436992173   EG=         0.085931184
   EHC=         0.000000000  EAt=       -33.190592685  AtH=         0.597721653
 EPDDG=         0.000000000  ECC=        32.330634022 EAtT=        33.788314338
 There are    11 symmetry adapted cartesian basis functions of A'  symmetry.
 There are     4 symmetry adapted cartesian basis functions of A"  symmetry.
 There are    11 symmetry adapted basis functions of A'  symmetry.
 There are     4 symmetry adapted basis functions of A"  symmetry.
    15 basis functions,    90 primitive gaussians,    15 cartesian basis functions
    11 alpha electrons       11 beta electrons
       nuclear repulsion energy        66.1189483591 Hartrees.
 IExCor=    0 DFT=F Ex=HF Corr=None ExCW=0 ScaHFX=  1.000000
 ScaDFX=  1.000000  1.000000  1.000000  1.000000 ScalE2=  1.000000  1.000000
 IRadAn=      5 IRanWt=     -1 IRanGd=            0 ICorTp=0 IEmpDi=  4
 Integral buffers will be    131072 words long.
 Regular integral format.
 Two-electron integral symmetry is turned off.
 Leave Link  301 at Wed Oct 21 14:21:08 2020, MaxMem=  2684354560 cpu:               3.3 elap:               0.9
 (Enter /udrive/faculty/rpeverati/g16/g16/l302.exe)
 Do NDO integrals.
 NPDir=0 NMtPBC=     1 NCelOv=     1 NCel=       1 NClECP=     1 NCelD=      1
         NCelK=      1 NCelE2=     1 NClLst=     1 CellRange=     0.0.
 One-electron integrals computed using PRISM.
 NBasis=    15 RedAO= T EigKep=  1.00D+00  NBF=    11     4
 NBsUse=    15 1.00D-06 EigRej= -1.00D+00 NBFU=    11     4
 Leave Link  302 at Wed Oct 21 14:21:10 2020, MaxMem=  2684354560 cpu:               3.5 elap:               0.9
 (Enter /udrive/faculty/rpeverati/g16/g16/l303.exe)
 DipDrv:  MaxL=1.
 Leave Link  303 at Wed Oct 21 14:21:11 2020, MaxMem=  2684354560 cpu:               2.8 elap:               0.8
 (Enter /udrive/faculty/rpeverati/g16/g16/l401.exe)
 SCF N**3 symmetry information disabled.
 Simple Huckel Guess.
 JPrj=0 DoOrth=F DoCkMO=F.
 Initial guess orbital symmetries:
       Occupied  (A1) (A1) (A1) (E) (E) (A1) (E) (E) (A1) (E) (E)
       Virtual   (A1) (E) (E) (A1)
 The electronic state of the initial guess is 1-A1.
 Leave Link  401 at Wed Oct 21 14:21:12 2020, MaxMem=  2684354560 cpu:               2.3 elap:               0.9
 (Enter /udrive/faculty/rpeverati/g16/g16/l502.exe)
 Keep J ints in memory in canonical form, NReq=859737.
 FoFCou: FMM=F IPFlag=           0 FMFlag=           0 FMFlg1=           0
         NFxFlg=           0 DoJE=F BraDBF=F KetDBF=F FulRan=T
         wScrn=  0.000000 ICntrl=       600 IOpCl=  2 I1Cent=           0 NGrid=           0
         NMat0=    1 NMatS0=     33 NMatT0=    0 NMatD0=    1 NMtDS0=    0 NMtDT0=    0
 Symmetry not used in FoFCou.
 Two-electron integral symmetry not used.
 Closed shell SCF:
 Using DIIS extrapolation, IDIIS=  1040.
 Overlap will be assumed to be unity.
 NGot=  2684354560 LenX=  2684293520 LenY=  2684292638
 Requested convergence on RMS density matrix=1.00D-08 within 120 cycles.
 Requested convergence on MAX density matrix=1.00D-06.
 Requested convergence on             energy=1.00D-06.
 No special actions if energy rises.

 Cycle   1  Pass 1  IDiag  1:
 E= 0.112287362267352    
 DIIS: error= 1.47D-01 at cycle   1 NSaved=   1.
 NSaved= 1 IEnMin= 1 EnMin= 0.112287362267352     IErMin= 1 ErrMin= 1.47D-01
 ErrMax= 1.47D-01  0.00D+00 EMaxC= 1.00D-01 BMatC= 1.38D-01 BMatP= 1.38D-01
 IDIUse=3 WtCom= 0.00D+00 WtEn= 1.00D+00
 Coeff-Com:  0.100D+01
 Coeff-En:   0.100D+01
 Coeff:      0.100D+01
 GapD=    2.000 DampG=2.000 DampE=0.250 DampFc=0.5000 IDamp=-1.
 Damping current iteration by 5.00D-01
 RMSDP=2.41D-02 MaxDP=1.42D-01              OVMax= 0.00D+00

 Cycle   2  Pass 1  IDiag  1:
 E= 0.247361342300678E-01 Delta-E=       -0.087551228037 Rises=F Damp=T
 DIIS: error= 7.88D-02 at cycle   2 NSaved=   2.
 NSaved= 2 IEnMin= 2 EnMin= 0.247361342300678E-01 IErMin= 2 ErrMin= 7.88D-02
 ErrMax= 7.88D-02  0.00D+00 EMaxC= 1.00D-01 BMatC= 4.11D-02 BMatP= 1.38D-01
 IDIUse=3 WtCom= 2.12D-01 WtEn= 7.88D-01
 Coeff-Com: -0.119D+01 0.219D+01
 Coeff-En:   0.000D+00 0.100D+01
 Coeff:     -0.251D+00 0.125D+01
 RMSDP=1.52D-02 MaxDP=7.76D-02 DE=-8.76D-02 OVMax= 0.00D+00

 Cycle   3  Pass 1  IDiag  1:
 E=-0.775061890489752E-01 Delta-E=       -0.102242323279 Rises=F Damp=F
 DIIS: error= 5.38D-03 at cycle   3 NSaved=   3.
 NSaved= 3 IEnMin= 3 EnMin=-0.775061890489752E-01 IErMin= 3 ErrMin= 5.38D-03
 ErrMax= 5.38D-03  0.00D+00 EMaxC= 1.00D-01 BMatC= 5.47D-04 BMatP= 4.11D-02
 IDIUse=3 WtCom= 9.46D-01 WtEn= 5.38D-02
 Coeff-Com:  0.110D+01-0.220D+01 0.210D+01
 Coeff-En:   0.000D+00 0.000D+00 0.100D+01
 Coeff:      0.105D+01-0.208D+01 0.204D+01
 RMSDP=5.52D-03 MaxDP=3.44D-02 DE=-1.02D-01 OVMax= 0.00D+00

 Cycle   4  Pass 1  IDiag  3:
 E=-0.800666268300176E-01 Delta-E=       -0.002560437781 Rises=F Damp=F
 DIIS: error= 1.24D-03 at cycle   4 NSaved=   4.
 NSaved= 4 IEnMin= 4 EnMin=-0.800666268300176E-01 IErMin= 4 ErrMin= 1.24D-03
 ErrMax= 1.24D-03  0.00D+00 EMaxC= 1.00D-01 BMatC= 1.61D-05 BMatP= 5.47D-04
 IDIUse=3 WtCom= 9.88D-01 WtEn= 1.24D-02
 Coeff-Com: -0.312D+00 0.627D+00-0.732D+00 0.142D+01
 Coeff-En:   0.000D+00 0.000D+00 0.000D+00 0.100D+01
 Coeff:     -0.308D+00 0.620D+00-0.723D+00 0.141D+01
 Gap=     0.341 Goal=   None    Shift=    0.000
 RMSDP=1.31D-03 MaxDP=8.88D-03 DE=-2.56D-03 OVMax= 9.79D-03

 Cycle   5  Pass 1  IDiag  3:
 E=-0.801954529550812E-01 Delta-E=       -0.000128826125 Rises=F Damp=F
 DIIS: error= 2.55D-04 at cycle   5 NSaved=   5.
 NSaved= 5 IEnMin= 5 EnMin=-0.801954529550812E-01 IErMin= 5 ErrMin= 2.55D-04
 ErrMax= 2.55D-04  0.00D+00 EMaxC= 1.00D-01 BMatC= 1.03D-06 BMatP= 1.61D-05
 IDIUse=3 WtCom= 9.97D-01 WtEn= 2.55D-03
 Coeff-Com:  0.244D-01-0.524D-01 0.108D+00-0.564D+00 0.148D+01
 Coeff-En:   0.000D+00 0.000D+00 0.000D+00 0.000D+00 0.100D+01
 Coeff:      0.243D-01-0.523D-01 0.108D+00-0.562D+00 0.148D+01
 Gap=     0.341 Goal=   None    Shift=    0.000
 RMSDP=3.59D-04 MaxDP=2.29D-03 DE=-1.29D-04 OVMax= 2.19D-03

 Cycle   6  Pass 1  IDiag  3:
 E=-0.802028898529699E-01 Delta-E=       -0.000007436898 Rises=F Damp=F
 DIIS: error= 2.92D-05 at cycle   6 NSaved=   6.
 NSaved= 6 IEnMin= 6 EnMin=-0.802028898529699E-01 IErMin= 6 ErrMin= 2.92D-05
 ErrMax= 2.92D-05  0.00D+00 EMaxC= 1.00D-01 BMatC= 2.06D-08 BMatP= 1.03D-06
 IDIUse=1 WtCom= 1.00D+00 WtEn= 0.00D+00
 Coeff-Com: -0.399D-02 0.934D-02-0.283D-01 0.193D+00-0.582D+00 0.141D+01
 Coeff:     -0.399D-02 0.934D-02-0.283D-01 0.193D+00-0.582D+00 0.141D+01
 Gap=     0.342 Goal=   None    Shift=    0.000
 RMSDP=3.43D-05 MaxDP=1.60D-04 DE=-7.44D-06 OVMax= 1.92D-04

 Cycle   7  Pass 1  IDiag  3:
 E=-0.802030184197235E-01 Delta-E=       -0.000000128567 Rises=F Damp=F
 DIIS: error= 1.05D-05 at cycle   7 NSaved=   7.
 NSaved= 7 IEnMin= 7 EnMin=-0.802030184197235E-01 IErMin= 7 ErrMin= 1.05D-05
 ErrMax= 1.05D-05  0.00D+00 EMaxC= 1.00D-01 BMatC= 2.06D-09 BMatP= 2.06D-08
 IDIUse=1 WtCom= 1.00D+00 WtEn= 0.00D+00
 Coeff-Com: -0.199D-02 0.363D-02 0.897D-03-0.397D-01 0.141D+00-0.675D+00
 Coeff-Com:  0.157D+01
 Coeff:     -0.199D-02 0.363D-02 0.897D-03-0.397D-01 0.141D+00-0.675D+00
 Coeff:      0.157D+01
 Gap=     0.342 Goal=   None    Shift=    0.000
 RMSDP=1.44D-05 MaxDP=7.49D-05 DE=-1.29D-07 OVMax= 9.16D-05

 Cycle   8  Pass 1  IDiag  3:
 E=-0.802030330038690E-01 Delta-E=       -0.000000014584 Rises=F Damp=F
 DIIS: error= 1.23D-06 at cycle   8 NSaved=   8.
 NSaved= 8 IEnMin= 8 EnMin=-0.802030330038690E-01 IErMin= 8 ErrMin= 1.23D-06
 ErrMax= 1.23D-06  0.00D+00 EMaxC= 1.00D-01 BMatC= 3.62D-11 BMatP= 2.06D-09
 IDIUse=1 WtCom= 1.00D+00 WtEn= 0.00D+00
 Coeff-Com: -0.228D-05 0.204D-04-0.276D-03 0.315D-02-0.108D-01 0.743D-01
 Coeff-Com: -0.284D+00 0.122D+01
 Coeff:     -0.228D-05 0.204D-04-0.276D-03 0.315D-02-0.108D-01 0.743D-01
 Coeff:     -0.284D+00 0.122D+01
 Gap=     0.342 Goal=   None    Shift=    0.000
 RMSDP=1.59D-06 MaxDP=8.29D-06 DE=-1.46D-08 OVMax= 9.57D-06

 Cycle   9  Pass 1  IDiag  3:
 E=-0.802030332167050E-01 Delta-E=       -0.000000000213 Rises=F Damp=F
 DIIS: error= 4.69D-07 at cycle   9 NSaved=   9.
 NSaved= 9 IEnMin= 9 EnMin=-0.802030332167050E-01 IErMin= 9 ErrMin= 4.69D-07
 ErrMax= 4.69D-07  0.00D+00 EMaxC= 1.00D-01 BMatC= 2.30D-12 BMatP= 3.62D-11
 IDIUse=1 WtCom= 1.00D+00 WtEn= 0.00D+00
 Coeff-Com:  0.840D-05-0.181D-04 0.641D-04-0.933D-03 0.345D-02-0.335D-01
 Coeff-Com:  0.154D+00-0.830D+00 0.171D+01
 Coeff:      0.840D-05-0.181D-04 0.641D-04-0.933D-03 0.345D-02-0.335D-01
 Coeff:      0.154D+00-0.830D+00 0.171D+01
 Gap=     0.342 Goal=   None    Shift=    0.000
 RMSDP=4.32D-07 MaxDP=3.00D-06 DE=-2.13D-10 OVMax= 3.03D-06

 Cycle  10  Pass 1  IDiag  3:
 E=-0.802030332306884E-01 Delta-E=       -0.000000000014 Rises=F Damp=F
 DIIS: error= 2.22D-08 at cycle  10 NSaved=  10.
 NSaved=10 IEnMin=10 EnMin=-0.802030332306884E-01 IErMin=10 ErrMin= 2.22D-08
 ErrMax= 2.22D-08  0.00D+00 EMaxC= 1.00D-01 BMatC= 1.02D-14 BMatP= 2.30D-12
 IDIUse=1 WtCom= 1.00D+00 WtEn= 0.00D+00
 Coeff-Com:  0.671D-05-0.130D-04-0.887D-06 0.269D-03-0.109D-02 0.113D-01
 Coeff-Com: -0.524D-01 0.282D+00-0.601D+00 0.136D+01
 Coeff:      0.671D-05-0.130D-04-0.887D-06 0.269D-03-0.109D-02 0.113D-01
 Coeff:     -0.524D-01 0.282D+00-0.601D+00 0.136D+01
 Gap=     0.342 Goal=   None    Shift=    0.000
 RMSDP=2.69D-08 MaxDP=1.53D-07 DE=-1.40D-11 OVMax= 1.53D-07

 Cycle  11  Pass 1  IDiag  3:
 E=-0.802030332308163E-01 Delta-E=       -0.000000000000 Rises=F Damp=F
 DIIS: error= 4.22D-09 at cycle  11 NSaved=  11.
 NSaved=11 IEnMin=11 EnMin=-0.802030332308163E-01 IErMin=11 ErrMin= 4.22D-09
 ErrMax= 4.22D-09  0.00D+00 EMaxC= 1.00D-01 BMatC= 4.18D-16 BMatP= 1.02D-14
 IDIUse=1 WtCom= 1.00D+00 WtEn= 0.00D+00
 Coeff-Com: -0.116D-05 0.223D-05 0.180D-05-0.809D-04 0.331D-03-0.346D-02
 Coeff-Com:  0.162D-01-0.884D-01 0.192D+00-0.588D+00 0.147D+01
 Coeff:     -0.116D-05 0.223D-05 0.180D-05-0.809D-04 0.331D-03-0.346D-02
 Coeff:      0.162D-01-0.884D-01 0.192D+00-0.588D+00 0.147D+01
 Gap=     0.342 Goal=   None    Shift=    0.000
 RMSDP=7.33D-09 MaxDP=3.37D-08 DE=-1.28D-13 OVMax= 4.55D-08

 Cycle  12  Pass 2  IDiag  1:
 SCF Done:  E(RPM3) = -0.802030332308E-01 A.U. after   12 cycles
            NFock= 11  Conv=0.73D-08     -V/T= 0.9986
 KE=-5.730920437101D+01 PE=-6.482887423932D+01 EE= 5.593892721798D+01
 Leave Link  502 at Wed Oct 21 14:21:14 2020, MaxMem=  2684354560 cpu:               8.1 elap:               1.3
 (Enter /udrive/faculty/rpeverati/g16/g16/l508.exe)
 QCSCF skips out because SCF is already converged.
 Leave Link  508 at Wed Oct 21 14:21:15 2020, MaxMem=  2684354560 cpu:               0.7 elap:               0.6
 (Enter /udrive/faculty/rpeverati/g16/g16/l601.exe)
 Copying SCF densities to generalized density rwf, IOpCl= 0 IROHF=0.

 **********************************************************************

            Population analysis using the SCF density.

 **********************************************************************

 Orbital symmetries:
       Occupied  (A1) (A1) (E) (E) (A1) (A1) (E) (E) (E) (E) (A1)
       Virtual   (A1) (A1) (E) (E)
 The electronic state is 1-A1.
 Alpha  occ. eigenvalues --   -1.83384  -0.87576  -0.37943  -0.37943  -0.35440
 Alpha  occ. eigenvalues --   -0.27930  -0.22212  -0.22212  -0.20989  -0.20989
 Alpha  occ. eigenvalues --   -0.16394
 Alpha virt. eigenvalues --    0.17754   0.29061   0.32763   0.32763
          Condensed to atoms (all electrons):
               1          2          3          4          5          6
     1  F    7.788299   0.000000   0.000000   0.000000   0.000000   0.000000
     2  C    0.000000   3.683676   0.000000   0.000000   0.000000   0.000000
     3  H    0.000000   0.000000   0.953566   0.000000   0.000000   0.000000
     4  H    0.000000   0.000000   0.000000   0.953566   0.000000   0.000000
     5  H    0.000000   0.000000   0.000000   0.000000   0.953566   0.000000
     6  Cl   0.000000   0.000000   0.000000   0.000000   0.000000   7.667327
 Mulliken charges:
               1
     1  F   -0.788299
     2  C    0.316324
     3  H    0.046434
     4  H    0.046434
     5  H    0.046434
     6  Cl  -0.667327
 Sum of Mulliken charges =  -1.00000
 Mulliken charges with hydrogens summed into heavy atoms:
               1
     1  F   -0.788299
     2  C    0.455626
     6  Cl  -0.667327
 Charge=             -1.0000 electrons
 Dipole moment (field-independent basis, Debye):
    X=             -0.0000    Y=             -0.0000    Z=              3.1340  Tot=              3.1340
 N-N= 6.611894835912D+01 E-N=-6.482887433724D+01  KE=-5.730920437101D+01
 Leave Link  601 at Wed Oct 21 14:21:16 2020, MaxMem=  2684354560 cpu:               2.8 elap:               0.8
 (Enter /udrive/faculty/rpeverati/g16/g16/l701.exe)
 ... and contract with generalized density number  0.
 Compute integral first derivatives.
 Leave Link  701 at Wed Oct 21 14:21:17 2020, MaxMem=  2684354560 cpu:               4.3 elap:               1.0
 (Enter /udrive/faculty/rpeverati/g16/g16/l702.exe)
 L702 exits ... SP integral derivatives will be done elsewhere.
 Leave Link  702 at Wed Oct 21 14:21:18 2020, MaxMem=  2684354560 cpu:               2.0 elap:               0.7
 (Enter /udrive/faculty/rpeverati/g16/g16/l703.exe)
 Integral derivatives from FoFJK, PRISM(SPDF).
 Compute integral first derivatives, UseDBF=F ICtDFT=           0.
 Calling FoFJK, ICntrl=      2127 FMM=F ISym2X=1 I1Cent= 0 IOpClX= 0 NMat=1 NMatS=1 NMatT=0.
 FoFJK:  IHMeth= 9 ICntrl=    2127 DoSepK=F KAlg= 0 I1Cent=           0 FoldK=F
 IRaf=         0 NMat=       1 IRICut=       1 DoRegI=T DoRafI=F ISym2E= 1 IDoP0=3 IntGTp=3.
 FoFCou: FMM=F IPFlag=           0 FMFlag=      100000 FMFlg1=         800
         NFxFlg=           0 DoJE=F BraDBF=F KetDBF=F FulRan=T
         wScrn=  0.000000 ICntrl=      2127 IOpCl=  0 I1Cent=           0 NGrid=           0
         NMat0=    1 NMatS0=      1 NMatT0=    0 NMatD0=    1 NMtDS0=    0 NMtDT0=    0
 Petite list used in FoFCou.
 Leave Link  703 at Wed Oct 21 14:21:19 2020, MaxMem=  2684354560 cpu:               3.1 elap:               0.8
 (Enter /udrive/faculty/rpeverati/g16/g16/l716.exe)
 Dipole        =-1.11022302D-15-7.77156117D-15 1.23302031D+00
 ***** Axes restored to original set *****
 -------------------------------------------------------------------
 Center     Atomic                   Forces (Hartrees/Bohr)
 Number     Number              X              Y              Z
 -------------------------------------------------------------------
      1        9          -0.000000000    0.000000000    0.006118945
      2        6          -0.000000000    0.000000000   -0.008547912
      3        1          -0.004407806    0.007634544    0.002881195
      4        1          -0.004407806   -0.007634544    0.002881195
      5        1           0.008815612    0.000000000    0.002881195
      6       17          -0.000000000    0.000000000   -0.006214619
 -------------------------------------------------------------------
 Cartesian Forces:  Max     0.008815612 RMS     0.004756158
 Leave Link  716 at Wed Oct 21 14:21:20 2020, MaxMem=  2684354560 cpu:               2.2 elap:               0.7
 (Enter /udrive/faculty/rpeverati/g16/g16/l103.exe)

 GradGradGradGradGradGradGradGradGradGradGradGradGradGradGradGradGradGrad
 Berny optimization.
 Optmz: redundant internal coordinate code flag= 1
 FormGI is forming the generalized inverse of G from B-inverse, IUseBI=4.
 Internal  Forces:  Max     0.007099637 RMS     0.003468359
 Search for a saddle point.
 Step number   1 out of a maximum of   50
 All quantities printed in internal units (Hartrees-Bohrs-Radians)
 Swapping is turned off.
 Second derivative matrix not updated -- first step.
 The second derivative matrix:
                          R1        R2        R3        R4        R5
           R1           0.08001
           R2           0.00000   0.03162
           R3           0.00000   0.00000   0.03162
           R4           0.00000   0.00000   0.00000   0.03162
           R5           0.00000   0.00000   0.00000   0.00000   0.37280
           R6           0.00000   0.00000   0.00000   0.00000   0.00000
           R7           0.00000   0.00000   0.00000   0.00000   0.00000
           R8           0.00000   0.00000   0.00000   0.00000   0.00000
           A1           0.00000   0.00000   0.00000   0.00000   0.00000
           A2           0.00000   0.00000   0.00000   0.00000   0.00000
           A3           0.00000   0.00000   0.00000   0.00000   0.00000
           A4           0.00000   0.00000   0.00000   0.00000   0.00000
           A5           0.00000   0.00000   0.00000   0.00000   0.00000
           A6           0.00000   0.00000   0.00000   0.00000   0.00000
           A7           0.00000   0.00000   0.00000   0.00000   0.00000
           A8           0.00000   0.00000   0.00000   0.00000   0.00000
           A9           0.00000   0.00000   0.00000   0.00000   0.00000
           A10          0.00000   0.00000   0.00000   0.00000   0.00000
           A11          0.00000   0.00000   0.00000   0.00000   0.00000
           D1           0.00000   0.00000   0.00000   0.00000   0.00000
           D2           0.00000   0.00000   0.00000   0.00000   0.00000
           D3           0.00000   0.00000   0.00000   0.00000   0.00000
           D4           0.00000   0.00000   0.00000   0.00000   0.00000
           D5           0.00000   0.00000   0.00000   0.00000   0.00000
                          R6        R7        R8        A1        A2
           R6           0.37280
           R7           0.00000   0.37280
           R8           0.00000   0.00000   0.11496
           A1           0.00000   0.00000   0.00000   0.16000
           A2           0.00000   0.00000   0.00000   0.00000   0.16000
           A3           0.00000   0.00000   0.00000   0.00000   0.00000
           A4           0.00000   0.00000   0.00000   0.00000   0.00000
           A5           0.00000   0.00000   0.00000   0.00000   0.00000
           A6           0.00000   0.00000   0.00000   0.00000   0.00000
           A7           0.00000   0.00000   0.00000   0.00000   0.00000
           A8           0.00000   0.00000   0.00000   0.00000   0.00000
           A9           0.00000   0.00000   0.00000   0.00000   0.00000
           A10          0.00000   0.00000   0.00000   0.00000   0.00000
           A11          0.00000   0.00000   0.00000   0.00000   0.00000
           D1           0.00000   0.00000   0.00000   0.00000   0.00000
           D2           0.00000   0.00000   0.00000   0.00000   0.00000
           D3           0.00000   0.00000   0.00000   0.00000   0.00000
           D4           0.00000   0.00000   0.00000   0.00000   0.00000
           D5           0.00000   0.00000   0.00000   0.00000   0.00000
                          A3        A4        A5        A6        A7
           A3           0.16000
           A4           0.00000   0.16000
           A5           0.00000   0.00000   0.16000
           A6           0.00000   0.00000   0.00000   0.16000
           A7           0.00000   0.00000   0.00000   0.00000   0.16000
           A8           0.00000   0.00000   0.00000   0.00000   0.00000
           A9           0.00000   0.00000   0.00000   0.00000   0.00000
           A10          0.00000   0.00000   0.00000   0.00000   0.00000
           A11          0.00000   0.00000   0.00000   0.00000   0.00000
           D1           0.00000   0.00000   0.00000   0.00000   0.00000
           D2           0.00000   0.00000   0.00000   0.00000   0.00000
           D3           0.00000   0.00000   0.00000   0.00000   0.00000
           D4           0.00000   0.00000   0.00000   0.00000   0.00000
           D5           0.00000   0.00000   0.00000   0.00000   0.00000
                          A8        A9        A10       A11       D1
           A8           0.16000
           A9           0.00000   0.16000
           A10          0.00000   0.00000   0.00230
           A11          0.00000   0.00000   0.00000   0.00230
           D1           0.00000   0.00000   0.00000   0.00000   0.00230
           D2           0.00000   0.00000   0.00000   0.00000   0.00000
           D3           0.00000   0.00000   0.00000   0.00000   0.00000
           D4           0.00000   0.00000   0.00000   0.00000   0.00000
           D5           0.00000   0.00000   0.00000   0.00000   0.00000
                          D2        D3        D4        D5
           D2           0.00505
           D3           0.00000   0.00230
           D4           0.00000   0.00000   0.00230
           D5           0.00000   0.00000   0.00000   0.00230
 ITU=  0
 Eigenvectors of the second derivative matrix:
                           1         2         3         4         5
     Eigenvalues --     0.02697   0.02755   0.03875   0.05665   0.07361
   1         R1         0.00169   0.00009   0.07332   0.61927  -0.16394
   2         R2         0.33009   0.64480   0.40179   0.28142  -0.00061
   3         R3         0.39373  -0.60686   0.40184   0.28157   0.00083
   4         R4        -0.71019  -0.03718   0.41823   0.27929  -0.07438
   5         R5        -0.00080   0.00167   0.01170   0.01564  -0.00798
   6         R6        -0.00066  -0.00172   0.01170   0.01564  -0.00788
   7         R7         0.00059   0.00001   0.01285   0.01803   0.00119
   8         R8         0.00000  -0.00000   0.00000  -0.00000   0.00000
   9         A1        -0.07615  -0.00399  -0.05461  -0.10071  -0.12885
  10         A2         0.03983  -0.06064  -0.07032  -0.05549   0.08015
  11         A3         0.03346   0.06447  -0.07033  -0.05551   0.07972
  12         A4         0.01670   0.00085   0.10709  -0.16559  -0.45753
  13         A5        -0.00855   0.02362   0.05538  -0.00327   0.26812
  14         A6         0.02338   0.05159  -0.18013   0.13351  -0.14845
  15         A7        -0.00611  -0.02436   0.05539  -0.00328   0.26703
  16         A8         0.02901  -0.04917  -0.18014   0.13345  -0.14992
  17         A9        -0.05747  -0.00271  -0.18214   0.16161   0.10511
  18         A10        0.19902   0.39555  -0.00219  -0.00883  -0.07053
  19         A11        0.39320  -0.20370  -0.00379  -0.01539  -0.12387
  20         D1        -0.15022  -0.00787   0.00109  -0.08155  -0.27436
  21         D2        -0.00933  -0.00050  -0.60488   0.49685  -0.09976
  22         D3         0.02798   0.00138   0.03571  -0.11512  -0.53195
  23         D4         0.01583  -0.03438   0.01786  -0.05757  -0.26668
  24         D5        -0.01216  -0.03575  -0.01786   0.05755   0.26527
                           6         7         8         9        10
     Eigenvalues --     0.07897   0.10703   0.10789   0.11496   0.32203
   1         R1        -0.00030   0.03029   0.00548   0.00000   0.06998
   2         R2         0.09678   0.08578   0.22545   0.00000  -0.07454
   3         R3        -0.09746   0.16259  -0.18044  -0.00000  -0.07459
   4         R4         0.00060  -0.25402  -0.04606   0.00000   0.01360
   5         R5         0.01245   0.01317   0.02373  -0.00000  -0.61255
   6         R6        -0.01253   0.02084  -0.01745  -0.00000  -0.61267
   7         R7         0.00005  -0.03140  -0.00579   0.00000   0.27235
   8         R8         0.00000   0.00000  -0.00000   1.00000   0.00000
   9         A1        -0.00024   0.03318   0.00611  -0.00000  -0.24206
  10         A2        -0.12828  -0.02509   0.03509   0.00000  -0.08011
  11         A3         0.12856  -0.01071  -0.04167  -0.00000  -0.08012
  12         A4        -0.00108   0.19371   0.03538  -0.00000   0.07622
  13         A5        -0.43965  -0.14477   0.18608   0.00000  -0.03390
  14         A6        -0.17497  -0.19384  -0.57501  -0.00000  -0.03733
  15         A7         0.44088  -0.06743  -0.22481  -0.00000  -0.03387
  16         A8         0.17512  -0.38525   0.46682   0.00000  -0.03749
  17         A9        -0.00053   0.62511   0.11653  -0.00000   0.05377
  18         A10       -0.12565  -0.16483  -0.46194  -0.00000   0.01330
  19         A11        0.07315  -0.46421   0.16331   0.00000   0.02301
  20         D1        -0.00050   0.06763   0.01245  -0.00000  -0.25603
  21         D2        -0.00016   0.00396   0.00066   0.00000  -0.04030
  22         D3        -0.00108   0.07958   0.01403  -0.00000   0.06291
  23         D4         0.48820   0.05979  -0.09664  -0.00000   0.03145
  24         D5         0.48929  -0.01980  -0.11067  -0.00000  -0.03146
                          11        12
     Eigenvalues --     0.33555   0.35931
   1         R1         0.08843   0.00001
   2         R2        -0.02962   0.03077
   3         R3        -0.02957  -0.03083
   4         R4        -0.08444   0.00004
   5         R5        -0.17930   0.68588
   6         R6        -0.17912  -0.68580
   7         R7        -0.88565  -0.00017
   8         R8         0.00000   0.00000
   9         A1        -0.08650   0.00002
  10         A2        -0.22188   0.14675
  11         A3        -0.22185  -0.14682
  12         A4        -0.04135   0.00000
  13         A5         0.03061  -0.02279
  14         A6         0.00791   0.06770
  15         A7         0.03058   0.02279
  16         A8         0.00807  -0.06787
  17         A9        -0.06539   0.00017
  18         A10       -0.01319  -0.05376
  19         A11       -0.02284   0.03100
  20         D1         0.12617   0.00007
  21         D2        -0.04316  -0.00000
  22         D3        -0.03920  -0.00003
  23         D4        -0.01960   0.00942
  24         D5         0.01961   0.00945
 Eigenvalue     1 is   2.70D-02 should be less than     0.000000 Eigenvector:
                          R4        R3        A11       R2        A10
   1                   -0.71019   0.39373   0.39320   0.33009   0.19902
                          D1        A1        A9        A2        A3
   1                   -0.15022  -0.07615  -0.05747   0.03983   0.03346
 RLam0= 2.70D-02.
 Iter=   1 RLamda= 0.00000000D+00 Sum=-2.21340383D-03.
 Iter=   2 RLamda=-2.21340383D-03 Sum=-2.14689372D-03.
 Iter=   3 RLamda=-2.14689372D-03 Sum=-2.14881520D-03.
 Iter=   4 RLamda=-2.14881520D-03 Sum=-2.14875962D-03.
 Iter=   5 RLamda=-2.14875962D-03 Sum=-2.14876123D-03.
 RFO step:  Lambda0=2.697059269D-02 Lambda=-2.14875962D-03.
 Linear search not attempted -- option 19 set.
 Maximum step size (   0.100) exceeded in Quadratic search.
    -- Step size scaled by   0.480
 Iteration  1 RMS(Cart)=  0.02193108 RMS(Int)=  0.00043513
 Iteration  2 RMS(Cart)=  0.00026980 RMS(Int)=  0.00021807
 Iteration  3 RMS(Cart)=  0.00000004 RMS(Int)=  0.00021807
 ITry= 1 IFail=0 DXMaxC= 5.82D-02 DCOld= 1.00D+10 DXMaxT= 1.00D-01 DXLimC= 3.00D+00 Rises=F
 ClnCor:  largest displacement from symmetrization is 5.83D-02 for atom     1.
 Variable       Old X    -DE/DX   Delta X   Delta X   Delta X     New X
                                 (Linear)    (Quad)   (Total)
    R1        3.87310  -0.00581   0.00000  -0.03553  -0.03632   3.83678
    R2        4.15129   0.00063   0.00000  -0.02191  -0.00978   4.14151
    R3        4.15129   0.00063   0.00000  -0.02713  -0.00978   4.14151
    R4        4.15129   0.00057   0.00000   0.06351  -0.00978   4.14151
    R5        2.02126   0.00689   0.00000   0.00983  -0.00045   2.02081
    R6        2.02126   0.00689   0.00000   0.00982  -0.00045   2.02081
    R7        2.02126   0.00710   0.00000   0.00971  -0.00045   2.02081
    R8        3.99275  -0.00621   0.00000  -0.02549  -0.02594   3.96681
    A1        0.86403   0.00305   0.00000   0.01136   0.00321   0.86725
    A2        0.86403   0.00331   0.00000   0.00199   0.00321   0.86725
    A3        0.86403   0.00331   0.00000   0.00251   0.00321   0.86725
    A4        2.07030   0.00016   0.00000   0.00523   0.00454   2.07484
    A5        2.07030   0.00091   0.00000   0.00786   0.00454   2.07484
    A6        1.68944  -0.00162   0.00000  -0.01927  -0.01188   1.67756
    A7        2.07030   0.00091   0.00000   0.00766   0.00454   2.07484
    A8        1.68944  -0.00162   0.00000  -0.01974  -0.01188   1.67756
    A9        1.68944  -0.00169   0.00000  -0.01264  -0.01188   1.67756
   A10        3.14159   0.00005   0.00000  -0.01634   0.00000   3.14159
   A11        3.14159   0.00008   0.00000  -0.03228   0.00000   3.14159
    D1        1.16613   0.00064   0.00000   0.01372   0.00098   1.16711
    D2       -2.73718  -0.00531   0.00000  -0.05644  -0.03938  -2.77656
    D3        2.09440  -0.00050   0.00000  -0.00268   0.00000   2.09440
    D4       -2.09440  -0.00025   0.00000  -0.00149   0.00000  -2.09440
    D5        2.09440   0.00025   0.00000   0.00119   0.00000   2.09440
         Item               Value     Threshold  Converged?
 Maximum Force            0.007100     0.000450     NO 
 RMS     Force            0.003468     0.000300     NO 
 Maximum Displacement     0.044417     0.001800     NO 
 RMS     Displacement     0.010677     0.001200     NO 
 Predicted change in Energy=-5.119212D-04
 Lowest energy point so far.  Saving SCF results.
 Largest change from initial coordinates is atom    6       0.024 Angstoms.
 GradGradGradGradGradGradGradGradGradGradGradGradGradGradGradGradGradGrad

 Leave Link  103 at Wed Oct 21 14:21:22 2020, MaxMem=  2684354560 cpu:               5.8 elap:               1.1
 (Enter /udrive/faculty/rpeverati/g16/g16/l202.exe)
                          Input orientation:                          
 ---------------------------------------------------------------------
 Center     Atomic      Atomic             Coordinates (Angstroms)
 Number     Number       Type             X           Y           Z
 ---------------------------------------------------------------------
      1          9           0       -0.000000    0.000000   -1.987369
      2          6           0       -0.000000   -0.000000    0.042968
      3          1           0       -0.531638    0.920825   -0.070985
      4          1           0       -0.531638   -0.920825   -0.070985
      5          1           0        1.063277   -0.000000   -0.070985
      6         17           0       -0.000000    0.000000    2.142115
 ---------------------------------------------------------------------
                    Distance matrix (angstroms):
                    1          2          3          4          5
     1  F    0.000000
     2  C    2.030336   0.000000
     3  H    2.191594   1.069366   0.000000
     4  H    2.191594   1.069366   1.841649   0.000000
     5  H    2.191594   1.069366   1.841649   1.841649   0.000000
     6  Cl   4.129484   2.099148   2.455274   2.455274   2.455274
                    6
     6  Cl   0.000000
 Stoichiometry    CH3ClF(1-)
 Framework group  C3V[C3(FCCl),3SGV(H)]
 Deg. of freedom     4
 Full point group                 C3V     NOp   6
 RotChk:  IX=0 Diff= 0.00D+00
 Largest Abelian subgroup         CS      NOp   2
 Largest concise Abelian subgroup CS      NOp   2
                         Standard orientation:                         
 ---------------------------------------------------------------------
 Center     Atomic      Atomic             Coordinates (Angstroms)
 Number     Number       Type             X           Y           Z
 ---------------------------------------------------------------------
      1          9           0        0.000000    0.000000   -2.518068
      2          6           0        0.000000    0.000000   -0.487732
      3          1           0       -0.000000    1.063277   -0.601685
      4          1           0       -0.920825   -0.531638   -0.601685
      5          1           0        0.920825   -0.531638   -0.601685
      6         17           0        0.000000    0.000000    1.611415
 ---------------------------------------------------------------------
 Rotational constants (GHZ):         147.8489203           2.3298710           2.3298710
 Leave Link  202 at Wed Oct 21 14:21:23 2020, MaxMem=  2684354560 cpu:               2.3 elap:               0.7
 (Enter /udrive/faculty/rpeverati/g16/g16/l301.exe)
 Standard basis: VSTO-6G (5D, 7F)
 Ernie: Thresh=  0.10000D-02 Tol=  0.10000D-05 Strict=F.
  NNHCO=     0 NNPyr=     0 NCTC=     0               EPep=         0.000000000
    EC=        31.967340317  ECS=         0.442022307   EG=         0.087538402
   EHC=         0.000000000  EAt=       -33.190592685  AtH=         0.597721653
 EPDDG=         0.000000000  ECC=        32.496901025 EAtT=        33.788314338
 There are    11 symmetry adapted cartesian basis functions of A'  symmetry.
 There are     4 symmetry adapted cartesian basis functions of A"  symmetry.
 There are    11 symmetry adapted basis functions of A'  symmetry.
 There are     4 symmetry adapted basis functions of A"  symmetry.
    15 basis functions,    90 primitive gaussians,    15 cartesian basis functions
    11 alpha electrons       11 beta electrons
       nuclear repulsion energy        66.2852153625 Hartrees.
 IExCor=    0 DFT=F Ex=HF Corr=None ExCW=0 ScaHFX=  1.000000
 ScaDFX=  1.000000  1.000000  1.000000  1.000000 ScalE2=  1.000000  1.000000
 IRadAn=      5 IRanWt=     -1 IRanGd=            0 ICorTp=0 IEmpDi=  4
 Integral buffers will be    131072 words long.
 Regular integral format.
 Two-electron integral symmetry is turned off.
 Leave Link  301 at Wed Oct 21 14:21:24 2020, MaxMem=  2684354560 cpu:               5.3 elap:               1.1
 (Enter /udrive/faculty/rpeverati/g16/g16/l302.exe)
 Do NDO integrals.
 NPDir=0 NMtPBC=     1 NCelOv=     1 NCel=       1 NClECP=     1 NCelD=      1
         NCelK=      1 NCelE2=     1 NClLst=     1 CellRange=     0.0.
 One-electron integrals computed using PRISM.
 NBasis=    15 RedAO= T EigKep=  1.00D+00  NBF=    11     4
 NBsUse=    15 1.00D-06 EigRej= -1.00D+00 NBFU=    11     4
 Leave Link  302 at Wed Oct 21 14:21:25 2020, MaxMem=  2684354560 cpu:               2.9 elap:               0.9
 (Enter /udrive/faculty/rpeverati/g16/g16/l303.exe)
 DipDrv:  MaxL=1.
 Leave Link  303 at Wed Oct 21 14:21:27 2020, MaxMem=  2684354560 cpu:               3.2 elap:               0.9
 (Enter /udrive/faculty/rpeverati/g16/g16/l401.exe)
 Initial guess from the checkpoint file:  "MN_37_fch3clts_BH76_PM3_SE.chk"
 SCF N**3 symmetry information disabled.
 B after Tr=     0.000000   -0.000000    0.000000
         Rot=    1.000000    0.000000   -0.000000    0.000000 Ang=   0.00 deg.
 Guess basis will be translated and rotated to current coordinates.
 JPrj=0 DoOrth=T DoCkMO=T.
 Initial guess orbital symmetries:
       Occupied  (A1) (A1) (E) (E) (A1) (A1) (E) (E) (E) (E) (A1)
       Virtual   (A1) (A1) (E) (E)
 The electronic state of the initial guess is 1-A1.
 Leave Link  401 at Wed Oct 21 14:21:28 2020, MaxMem=  2684354560 cpu:               2.9 elap:               0.9
 (Enter /udrive/faculty/rpeverati/g16/g16/l502.exe)
 Keep J ints in memory in canonical form, NReq=859737.
 FoFCou: FMM=F IPFlag=           0 FMFlag=           0 FMFlg1=           0
         NFxFlg=           0 DoJE=F BraDBF=F KetDBF=F FulRan=T
         wScrn=  0.000000 ICntrl=       600 IOpCl=  2 I1Cent=           0 NGrid=           0
         NMat0=    1 NMatS0=     33 NMatT0=    0 NMatD0=    1 NMtDS0=    0 NMtDT0=    0
 Symmetry not used in FoFCou.
 Two-electron integral symmetry not used.
 Closed shell SCF:
 Using DIIS extrapolation, IDIIS=  1040.
 Overlap will be assumed to be unity.
 NGot=  2684354560 LenX=  2684293520 LenY=  2684292638
 Requested convergence on RMS density matrix=1.00D-08 within 120 cycles.
 Requested convergence on MAX density matrix=1.00D-06.
 Requested convergence on             energy=1.00D-06.
 No special actions if energy rises.

 Cycle   1  Pass 1  IDiag  1:
 E=-0.806644078074754E-01
 DIIS: error= 9.32D-04 at cycle   1 NSaved=   1.
 NSaved= 1 IEnMin= 1 EnMin=-0.806644078074754E-01 IErMin= 1 ErrMin= 9.32D-04
 ErrMax= 9.32D-04  0.00D+00 EMaxC= 1.00D-01 BMatC= 1.65D-05 BMatP= 1.65D-05
 IDIUse=3 WtCom= 9.91D-01 WtEn= 9.32D-03
 Coeff-Com:  0.100D+01
 Coeff-En:   0.100D+01
 Coeff:      0.100D+01
 RMSDP=5.62D-04 MaxDP=2.50D-03              OVMax= 0.00D+00

 Cycle   2  Pass 1  IDiag  3:
 E=-0.807223055690116E-01 Delta-E=       -0.000057897762 Rises=F Damp=F
 DIIS: error= 3.14D-04 at cycle   2 NSaved=   2.
 NSaved= 2 IEnMin= 2 EnMin=-0.807223055690116E-01 IErMin= 2 ErrMin= 3.14D-04
 ErrMax= 3.14D-04  0.00D+00 EMaxC= 1.00D-01 BMatC= 2.08D-06 BMatP= 1.65D-05
 IDIUse=3 WtCom= 9.97D-01 WtEn= 3.14D-03
 Coeff-Com: -0.336D+00 0.134D+01
 Coeff-En:   0.000D+00 0.100D+01
 Coeff:     -0.335D+00 0.133D+01
 Gap=     0.346 Goal=   None    Shift=    0.000
 RMSDP=3.47D-04 MaxDP=1.54D-03 DE=-5.79D-05 OVMax= 1.93D-03

 Cycle   3  Pass 1  IDiag  3:
 E=-0.807356710056126E-01 Delta-E=       -0.000013365437 Rises=F Damp=F
 DIIS: error= 8.51D-05 at cycle   3 NSaved=   3.
 NSaved= 3 IEnMin= 3 EnMin=-0.807356710056126E-01 IErMin= 3 ErrMin= 8.51D-05
 ErrMax= 8.51D-05  0.00D+00 EMaxC= 1.00D-01 BMatC= 2.03D-07 BMatP= 2.08D-06
 IDIUse=1 WtCom= 1.00D+00 WtEn= 0.00D+00
 Coeff-Com:  0.111D+00-0.713D+00 0.160D+01
 Coeff:      0.111D+00-0.713D+00 0.160D+01
 Gap=     0.346 Goal=   None    Shift=    0.000
 RMSDP=1.59D-04 MaxDP=7.16D-04 DE=-1.34D-05 OVMax= 9.65D-04

 Cycle   4  Pass 1  IDiag  3:
 E=-0.807372598326026E-01 Delta-E=       -0.000001588827 Rises=F Damp=F
 DIIS: error= 2.29D-05 at cycle   4 NSaved=   4.
 NSaved= 4 IEnMin= 4 EnMin=-0.807372598326026E-01 IErMin= 4 ErrMin= 2.29D-05
 ErrMax= 2.29D-05  0.00D+00 EMaxC= 1.00D-01 BMatC= 4.31D-09 BMatP= 2.03D-07
 IDIUse=1 WtCom= 1.00D+00 WtEn= 0.00D+00
 Coeff-Com: -0.526D-01 0.380D+00-0.943D+00 0.162D+01
 Coeff:     -0.526D-01 0.380D+00-0.943D+00 0.162D+01
 Gap=     0.346 Goal=   None    Shift=    0.000
 RMSDP=2.22D-05 MaxDP=1.27D-04 DE=-1.59D-06 OVMax= 1.36D-04

 Cycle   5  Pass 1  IDiag  3:
 E=-0.807372924297312E-01 Delta-E=       -0.000000032597 Rises=F Damp=F
 DIIS: error= 3.12D-06 at cycle   5 NSaved=   5.
 NSaved= 5 IEnMin= 5 EnMin=-0.807372924297312E-01 IErMin= 5 ErrMin= 3.12D-06
 ErrMax= 3.12D-06  0.00D+00 EMaxC= 1.00D-01 BMatC= 1.64D-10 BMatP= 4.31D-09
 IDIUse=1 WtCom= 1.00D+00 WtEn= 0.00D+00
 Coeff-Com:  0.246D-01-0.180D+00 0.451D+00-0.874D+00 0.158D+01
 Coeff:      0.246D-01-0.180D+00 0.451D+00-0.874D+00 0.158D+01
 Gap=     0.346 Goal=   None    Shift=    0.000
 RMSDP=3.61D-06 MaxDP=1.91D-05 DE=-3.26D-08 OVMax= 1.74D-05

 Cycle   6  Pass 1  IDiag  3:
 E=-0.807372934447130E-01 Delta-E=       -0.000000001015 Rises=F Damp=F
 DIIS: error= 7.65D-07 at cycle   6 NSaved=   6.
 NSaved= 6 IEnMin= 6 EnMin=-0.807372934447130E-01 IErMin= 6 ErrMin= 7.65D-07
 ErrMax= 7.65D-07  0.00D+00 EMaxC= 1.00D-01 BMatC= 8.34D-12 BMatP= 1.64D-10
 IDIUse=1 WtCom= 1.00D+00 WtEn= 0.00D+00
 Coeff-Com: -0.130D-01 0.944D-01-0.236D+00 0.471D+00-0.101D+01 0.169D+01
 Coeff:     -0.130D-01 0.944D-01-0.236D+00 0.471D+00-0.101D+01 0.169D+01
 Gap=     0.346 Goal=   None    Shift=    0.000
 RMSDP=7.97D-07 MaxDP=5.50D-06 DE=-1.01D-09 OVMax= 5.00D-06

 Cycle   7  Pass 1  IDiag  3:
 E=-0.807372934939252E-01 Delta-E=       -0.000000000049 Rises=F Damp=F
 DIIS: error= 5.01D-08 at cycle   7 NSaved=   7.
 NSaved= 7 IEnMin= 7 EnMin=-0.807372934939252E-01 IErMin= 7 ErrMin= 5.01D-08
 ErrMax= 5.01D-08  0.00D+00 EMaxC= 1.00D-01 BMatC= 4.51D-14 BMatP= 8.34D-12
 IDIUse=1 WtCom= 1.00D+00 WtEn= 0.00D+00
 Coeff-Com:  0.454D-02-0.331D-01 0.826D-01-0.164D+00 0.351D+00-0.601D+00
 Coeff-Com:  0.136D+01
 Coeff:      0.454D-02-0.331D-01 0.826D-01-0.164D+00 0.351D+00-0.601D+00
 Coeff:      0.136D+01
 Gap=     0.346 Goal=   None    Shift=    0.000
 RMSDP=4.98D-08 MaxDP=2.36D-07 DE=-4.92D-11 OVMax= 3.02D-07

 Cycle   8  Pass 1  IDiag  3:
 E=-0.807372934940958E-01 Delta-E=       -0.000000000000 Rises=F Damp=F
 DIIS: error= 1.16D-08 at cycle   8 NSaved=   8.
 NSaved= 8 IEnMin= 8 EnMin=-0.807372934940958E-01 IErMin= 8 ErrMin= 1.16D-08
 ErrMax= 1.16D-08  0.00D+00 EMaxC= 1.00D-01 BMatC= 2.38D-15 BMatP= 4.51D-14
 IDIUse=1 WtCom= 1.00D+00 WtEn= 0.00D+00
 Coeff-Com: -0.494D-03 0.360D-02-0.894D-02 0.173D-01-0.359D-01 0.603D-01
 Coeff-Com: -0.351D+00 0.132D+01
 Coeff:     -0.494D-03 0.360D-02-0.894D-02 0.173D-01-0.359D-01 0.603D-01
 Coeff:     -0.351D+00 0.132D+01
 Gap=     0.346 Goal=   None    Shift=    0.000
 RMSDP=1.40D-08 MaxDP=6.14D-08 DE=-1.71D-13 OVMax= 8.26D-08

 Cycle   9  Pass 1  IDiag  3:
 E=-0.807372934941242E-01 Delta-E=       -0.000000000000 Rises=F Damp=F
 DIIS: error= 1.88D-09 at cycle   9 NSaved=   9.
 NSaved= 9 IEnMin= 9 EnMin=-0.807372934941242E-01 IErMin= 9 ErrMin= 1.88D-09
 ErrMax= 1.88D-09  0.00D+00 EMaxC= 1.00D-01 BMatC= 4.93D-17 BMatP= 2.38D-15
 IDIUse=1 WtCom= 1.00D+00 WtEn= 0.00D+00
 Coeff-Com:  0.218D-04-0.158D-03 0.378D-03-0.608D-03 0.802D-03-0.837D-03
 Coeff-Com:  0.630D-01-0.362D+00 0.130D+01
 Coeff:      0.218D-04-0.158D-03 0.378D-03-0.608D-03 0.802D-03-0.837D-03
 Coeff:      0.630D-01-0.362D+00 0.130D+01
 Gap=     0.346 Goal=   None    Shift=    0.000
 RMSDP=1.88D-09 MaxDP=1.06D-08 DE=-2.84D-14 OVMax= 1.26D-08

 Cycle  10  Pass 2  IDiag  1:
 SCF Done:  E(RPM3) = -0.807372934941E-01 A.U. after   10 cycles
            NFock=  9  Conv=0.19D-08     -V/T= 0.9986
 KE=-5.729626941736D+01 PE=-6.516383812154D+01 EE= 5.609415488293D+01
 Leave Link  502 at Wed Oct 21 14:21:29 2020, MaxMem=  2684354560 cpu:               6.2 elap:               1.1
 (Enter /udrive/faculty/rpeverati/g16/g16/l508.exe)
 QCSCF skips out because SCF is already converged.
 Leave Link  508 at Wed Oct 21 14:21:30 2020, MaxMem=  2684354560 cpu:               0.6 elap:               0.6
 (Enter /udrive/faculty/rpeverati/g16/g16/l701.exe)
 ... and contract with generalized density number  0.
 Compute integral first derivatives.
 Leave Link  701 at Wed Oct 21 14:21:31 2020, MaxMem=  2684354560 cpu:               3.3 elap:               0.7
 (Enter /udrive/faculty/rpeverati/g16/g16/l702.exe)
 L702 exits ... SP integral derivatives will be done elsewhere.
 Leave Link  702 at Wed Oct 21 14:21:33 2020, MaxMem=  2684354560 cpu:               1.9 elap:               0.7
 (Enter /udrive/faculty/rpeverati/g16/g16/l703.exe)
 Integral derivatives from FoFJK, PRISM(SPDF).
 Compute integral first derivatives, UseDBF=F ICtDFT=           0.
 Calling FoFJK, ICntrl=      2127 FMM=F ISym2X=1 I1Cent= 0 IOpClX= 0 NMat=1 NMatS=1 NMatT=0.
 FoFJK:  IHMeth= 9 ICntrl=    2127 DoSepK=F KAlg= 0 I1Cent=           0 FoldK=F
 IRaf=         0 NMat=       1 IRICut=       1 DoRegI=T DoRafI=F ISym2E= 1 IDoP0=3 IntGTp=3.
 FoFCou: FMM=F IPFlag=           0 FMFlag=      100000 FMFlg1=         800
         NFxFlg=           0 DoJE=F BraDBF=F KetDBF=F FulRan=T
         wScrn=  0.000000 ICntrl=      2127 IOpCl=  0 I1Cent=           0 NGrid=           0
         NMat0=    1 NMatS0=      1 NMatT0=    0 NMatD0=    1 NMtDS0=    0 NMtDT0=    0
 Petite list used in FoFCou.
 Leave Link  703 at Wed Oct 21 14:21:34 2020, MaxMem=  2684354560 cpu:               3.4 elap:               0.9
 (Enter /udrive/faculty/rpeverati/g16/g16/l716.exe)
 Dipole        = 0.00000000D+00 8.88178420D-16 1.18068806D+00
 ***** Axes restored to original set *****
 -------------------------------------------------------------------
 Center     Atomic                   Forces (Hartrees/Bohr)
 Number     Number              X              Y              Z
 -------------------------------------------------------------------
      1        9           0.000000000    0.000000000    0.006021966
      2        6          -0.000000000   -0.000000000   -0.011383610
      3        1          -0.004578787    0.007930691    0.001847824
      4        1          -0.004578787   -0.007930691    0.001847824
      5        1           0.009157573   -0.000000000    0.001847824
      6       17          -0.000000000   -0.000000000   -0.000181826
 -------------------------------------------------------------------
 Cartesian Forces:  Max     0.011383610 RMS     0.004874597
 Leave Link  716 at Wed Oct 21 14:21:35 2020, MaxMem=  2684354560 cpu:               2.0 elap:               0.8
 (Enter /udrive/faculty/rpeverati/g16/g16/l103.exe)

 GradGradGradGradGradGradGradGradGradGradGradGradGradGradGradGradGradGrad
 Berny optimization.
 Optmz: redundant internal coordinate code flag= 1
 Red2BG:  D1=  3.71D-01 OD1=  3.81D-02 B2RMS=  0.00D+00 IAprox=0
 FormGI is forming the generalized inverse of G from B-inverse, IUseBI=4.
 Internal  Forces:  Max     0.007593394 RMS     0.003235462
 Search for a saddle point.
 Step number   2 out of a maximum of   50
 All quantities printed in internal units (Hartrees-Bohrs-Radians)
 Swapping is turned off.
 Update second derivatives using D2CorX and points    1    2
 The second derivative matrix:
                          R1        R2        R3        R4        R5
           R1           0.04095
           R2          -0.00819   0.03001
           R3          -0.00819  -0.00161   0.03001
           R4          -0.00846  -0.00168  -0.00167   0.02987
           R5           0.00228   0.00061   0.00061   0.00061   0.37283
           R6           0.00228   0.00061   0.00061   0.00061   0.00003
           R7           0.00277   0.00074   0.00074   0.00074   0.00003
           R8           0.01582   0.00545   0.00545   0.00531   0.00162
           A1           0.00808   0.00192   0.00192   0.00195  -0.00020
           A2           0.00782   0.00185   0.00185   0.00188  -0.00020
           A3           0.00782   0.00185   0.00185   0.00188  -0.00020
           A4           0.00779   0.00178   0.00178   0.00181  -0.00029
           A5           0.00629   0.00139   0.00139   0.00142  -0.00029
           A6          -0.01921  -0.00434  -0.00434  -0.00444   0.00075
           A7           0.00629   0.00139   0.00139   0.00142  -0.00029
           A8          -0.01921  -0.00434  -0.00434  -0.00444   0.00075
           A9          -0.01885  -0.00425  -0.00425  -0.00435   0.00075
           A10         -0.00003  -0.00001  -0.00001  -0.00001   0.00000
           A11         -0.00005  -0.00001  -0.00001  -0.00001   0.00000
           D1           0.00141   0.00031   0.00031   0.00032  -0.00006
           D2          -0.00821  -0.00006  -0.00006  -0.00031   0.00246
           D3           0.00099   0.00026   0.00026   0.00026  -0.00000
           D4           0.00050   0.00013   0.00013   0.00013  -0.00000
           D5          -0.00050  -0.00013  -0.00013  -0.00013   0.00000
                          R6        R7        R8        A1        A2
           R6           0.37283
           R7           0.00003   0.37283
           R8           0.00162   0.00187   0.14871
           A1          -0.00020  -0.00026   0.00097   0.15878
           A2          -0.00020  -0.00026   0.00084  -0.00119   0.15884
           A3          -0.00020  -0.00026   0.00084  -0.00119  -0.00116
           A4          -0.00029  -0.00035  -0.00048  -0.00133  -0.00129
           A5          -0.00029  -0.00035  -0.00125  -0.00117  -0.00113
           A6           0.00075   0.00092   0.00187   0.00335   0.00325
           A7          -0.00029  -0.00035  -0.00125  -0.00117  -0.00113
           A8           0.00075   0.00092   0.00187   0.00335   0.00325
           A9           0.00075   0.00092   0.00205   0.00331   0.00322
           A10          0.00000   0.00000  -0.00002   0.00000   0.00000
           A11          0.00000   0.00000  -0.00003   0.00001   0.00001
           D1          -0.00006  -0.00008  -0.00024  -0.00026  -0.00025
           D2           0.00246   0.00292   0.03469   0.00502   0.00477
           D3          -0.00000  -0.00000   0.00051  -0.00011  -0.00011
           D4          -0.00000  -0.00000   0.00026  -0.00005  -0.00005
           D5           0.00000   0.00000  -0.00025   0.00005   0.00005
                          A3        A4        A5        A6        A7
           A3           0.15884
           A4          -0.00129   0.15862
           A5          -0.00113  -0.00117   0.15903
           A6           0.00325   0.00344   0.00291   0.15142
           A7          -0.00113  -0.00117  -0.00097   0.00291   0.15903
           A8           0.00325   0.00344   0.00291  -0.00858   0.00291
           A9           0.00322   0.00339   0.00286  -0.00845   0.00286
           A10          0.00000   0.00000   0.00000  -0.00001   0.00000
           A11          0.00001   0.00001   0.00001  -0.00002   0.00001
           D1          -0.00025  -0.00026  -0.00022   0.00065  -0.00022
           D2           0.00477   0.00373   0.00234  -0.00866   0.00234
           D3          -0.00011  -0.00014  -0.00013   0.00035  -0.00013
           D4          -0.00005  -0.00007  -0.00007   0.00018  -0.00007
           D5           0.00005   0.00007   0.00007  -0.00018   0.00007
                          A8        A9        A10       A11       D1
           A8           0.15142
           A9          -0.00845   0.15168
           A10         -0.00001  -0.00001   0.00230
           A11         -0.00002  -0.00002  -0.00000   0.00230
           D1           0.00065   0.00064   0.00000   0.00000   0.00225
           D2          -0.00866  -0.00833  -0.00003  -0.00005   0.00055
           D3           0.00035   0.00035   0.00000   0.00000  -0.00003
           D4           0.00018   0.00018   0.00000   0.00000  -0.00001
           D5          -0.00018  -0.00018  -0.00000  -0.00000   0.00001
                          D2        D3        D4        D5
           D2           0.02781
           D3           0.00092   0.00230
           D4           0.00046  -0.00000   0.00230
           D5          -0.00046   0.00000   0.00000   0.00230
 ITU=  0  0
 Eigenvectors of the second derivative matrix:
                           1         2         3         4         5
     Eigenvalues --    -0.00429   0.02695   0.02752   0.04109   0.07368
   1         R1         0.62371   0.00023   0.00000   0.11419  -0.05009
   2         R2         0.25501   0.33443   0.64102   0.41692   0.03993
   3         R3         0.25500   0.38661  -0.61004   0.41696   0.04098
   4         R4         0.25712  -0.71113  -0.03054   0.43132  -0.02373
   5         R5        -0.00637  -0.00083   0.00158   0.01671  -0.00435
   6         R6        -0.00637  -0.00073  -0.00163   0.01671  -0.00428
   7         R7        -0.00676   0.00070   0.00001   0.01801   0.00574
   8         R8        -0.21431   0.00115   0.00005   0.11468   0.02249
   9         A1        -0.08082  -0.07646  -0.00329  -0.06117  -0.14505
  10         A2        -0.07279   0.03982  -0.06146  -0.07387   0.07066
  11         A3        -0.07279   0.03455   0.06466  -0.07387   0.07039
  12         A4        -0.07638   0.01650   0.00069   0.08923  -0.49022
  13         A5        -0.04580  -0.00830   0.02349   0.04759   0.26392
  14         A6         0.15474   0.02381   0.05131  -0.16903  -0.11216
  15         A7        -0.04580  -0.00632  -0.02410   0.04759   0.26329
  16         A8         0.15474   0.02842  -0.04933  -0.16904  -0.11319
  17         A9         0.15330  -0.05741  -0.00222  -0.16994   0.12343
  18         A10        0.00008   0.20354   0.39534  -0.00219  -0.06627
  19         A11        0.00013   0.39244  -0.20792  -0.00380  -0.11599
  20         D1        -0.03371  -0.15069  -0.00648  -0.00448  -0.28584
  21         D2         0.51812  -0.00910  -0.00040  -0.56990  -0.00723
  22         D3        -0.02067   0.02657   0.00108   0.02850  -0.54318
  23         D4        -0.01034   0.01473  -0.03314   0.01425  -0.27201
  24         D5         0.01033  -0.01184  -0.03422  -0.01425   0.27117
                           6         7         8         9        10
     Eigenvalues --     0.07986   0.10683   0.10753   0.15750   0.32160
   1         R1        -0.00007   0.01629  -0.00302   0.12898   0.05301
   2         R2         0.09125   0.08238  -0.22834   0.00405  -0.08171
   3         R3        -0.09170   0.16117   0.18331   0.00405  -0.08176
   4         R4         0.00053  -0.25821   0.04773   0.00178   0.00800
   5         R5         0.01243   0.01241  -0.02477  -0.02263  -0.61294
   6         R6        -0.01248   0.02060   0.01858  -0.02263  -0.61304
   7         R7         0.00004  -0.03220   0.00603  -0.02374   0.26620
   8         R8         0.00003  -0.01048   0.00197   0.96901  -0.02284
   9         A1        -0.00016   0.02983  -0.00558  -0.01493  -0.24133
  10         A2        -0.12972  -0.02110  -0.03133  -0.01749  -0.07975
  11         A3         0.12987  -0.00815   0.03681  -0.01749  -0.07976
  12         A4        -0.00073   0.18103  -0.03364  -0.01338   0.07789
  13         A5        -0.44739  -0.13250  -0.17276  -0.02272  -0.03125
  14         A6        -0.16306  -0.19850   0.58128   0.05244  -0.04484
  15         A7         0.44817  -0.05979   0.20849  -0.02272  -0.03123
  16         A8         0.16335  -0.39484  -0.46898   0.05246  -0.04497
  17         A9        -0.00044   0.62435  -0.11805   0.05713   0.04735
  18         A10       -0.11660  -0.16450   0.46521  -0.00124   0.01453
  19         A11        0.06786  -0.46739  -0.16300  -0.00214   0.02514
  20         D1        -0.00031   0.05892  -0.01103  -0.00171  -0.25479
  21         D2        -0.00000  -0.00452   0.00086   0.17859  -0.06248
  22         D3        -0.00069   0.07500  -0.01356   0.00579   0.06299
  23         D4         0.48790   0.05646   0.09070   0.00289   0.03149
  24         D5         0.48859  -0.01854   0.10426  -0.00289  -0.03150
                          11        12
     Eigenvalues --     0.33509   0.35893
   1         R1        -0.06690   0.00001
   2         R2         0.03681   0.03187
   3         R3         0.03677  -0.03191
   4         R4         0.09368   0.00004
   5         R5         0.17401   0.68534
   6         R6         0.17384  -0.68528
   7         R7         0.88631  -0.00015
   8         R8         0.02831  -0.00000
   9         A1         0.08219   0.00002
  10         A2         0.21932   0.14732
  11         A3         0.21930  -0.14738
  12         A4         0.03921   0.00000
  13         A5        -0.03303  -0.02233
  14         A6        -0.00052   0.07019
  15         A7        -0.03301   0.02233
  16         A8        -0.00067  -0.07033
  17         A9         0.07510   0.00014
  18         A10        0.01430  -0.05600
  19         A11        0.02475   0.03229
  20         D1        -0.12848   0.00006
  21         D2         0.07192  -0.00000
  22         D3         0.03988  -0.00003
  23         D4         0.01994   0.00978
  24         D5        -0.01994   0.00981
 RLam0= 4.72D-03.
 Iter=   1 RLamda= 0.00000000D+00 Sum=-8.09688195D-04.
 Iter=   2 RLamda=-8.09688195D-04 Sum=-8.04656056D-04.
 Iter=   3 RLamda=-8.04656056D-04 Sum=-8.04686904D-04.
 Iter=   4 RLamda=-8.04686904D-04 Sum=-8.04686715D-04.
 RFO step:  Lambda0=4.718939643D-03 Lambda=-8.04686904D-04.
 Linear search not attempted -- option 19 set.
 Maximum step size (   0.100) exceeded in Quadratic search.
    -- Step size scaled by   0.155
 Iteration  1 RMS(Cart)=  0.01031566 RMS(Int)=  0.00017720
 Iteration  2 RMS(Cart)=  0.00008289 RMS(Int)=  0.00014982
 Iteration  3 RMS(Cart)=  0.00000000 RMS(Int)=  0.00014982
 ITry= 1 IFail=0 DXMaxC= 3.85D-02 DCOld= 1.00D+10 DXMaxT= 1.00D-01 DXLimC= 3.00D+00 Rises=F
 ClnCor:  largest displacement from symmetrization is 2.37D-03 for atom     4.
 Variable       Old X    -DE/DX   Delta X   Delta X   Delta X     New X
                                 (Linear)    (Quad)   (Total)
    R1        3.83678  -0.00533   0.00000   0.07029   0.07036   3.90714
    R2        4.14151   0.00054   0.00000   0.03334   0.03308   4.17459
    R3        4.14151   0.00054   0.00000   0.03334   0.03308   4.17459
    R4        4.14151   0.00045   0.00000   0.03356   0.03308   4.17459
    R5        2.02081   0.00733   0.00000   0.00292   0.00250   2.02330
    R6        2.02081   0.00733   0.00000   0.00292   0.00250   2.02330
    R7        2.02081   0.00759   0.00000   0.00289   0.00250   2.02330
    R8        3.96681  -0.00018   0.00000  -0.02507  -0.02507   3.94175
    A1        0.86725   0.00325   0.00000  -0.00851  -0.00786   0.85938
    A2        0.86725   0.00348   0.00000  -0.00729  -0.00786   0.85938
    A3        0.86725   0.00348   0.00000  -0.00729  -0.00786   0.85938
    A4        2.07484   0.00006   0.00000  -0.00875  -0.00612   2.06871
    A5        2.07484   0.00064   0.00000  -0.00416  -0.00612   2.06871
    A6        1.67756  -0.00122   0.00000   0.01573   0.01576   1.69332
    A7        2.07484   0.00064   0.00000  -0.00416  -0.00612   2.06871
    A8        1.67756  -0.00122   0.00000   0.01572   0.01576   1.69332
    A9        1.67756  -0.00124   0.00000   0.01559   0.01576   1.69332
   A10        3.14159   0.00004   0.00000   0.00001   0.00000   3.14159
   A11        3.14159   0.00007   0.00000   0.00001  -0.00000   3.14159
    D1        1.16711   0.00074   0.00000  -0.00397  -0.00239   1.16472
    D2       -2.77656  -0.00400   0.00000   0.05287   0.05217  -2.72439
    D3        2.09440  -0.00039   0.00000  -0.00311  -0.00000   2.09440
    D4       -2.09440  -0.00020   0.00000  -0.00156   0.00000  -2.09440
    D5        2.09440   0.00020   0.00000   0.00156   0.00000   2.09440
         Item               Value     Threshold  Converged?
 Maximum Force            0.007593     0.000450     NO 
 RMS     Force            0.003235     0.000300     NO 
 Maximum Displacement     0.038536     0.001800     NO 
 RMS     Displacement     0.010303     0.001200     NO 
 Predicted change in Energy= 6.026382D-04
 Lowest energy point so far.  Saving SCF results.
 Largest change from initial coordinates is atom    2       0.010 Angstoms.
 GradGradGradGradGradGradGradGradGradGradGradGradGradGradGradGradGradGrad

 Leave Link  103 at Wed Oct 21 14:21:36 2020, MaxMem=  2684354560 cpu:               5.6 elap:               1.0
 (Enter /udrive/faculty/rpeverati/g16/g16/l202.exe)
                          Input orientation:                          
 ---------------------------------------------------------------------
 Center     Atomic      Atomic             Coordinates (Angstroms)
 Number     Number       Type             X           Y           Z
 ---------------------------------------------------------------------
      1          9           0       -0.000000   -0.000000   -2.007761
      2          6           0       -0.000000   -0.000000    0.059809
      3          1           0       -0.531330    0.920290   -0.071044
      4          1           0       -0.531330   -0.920290   -0.071044
      5          1           0        1.062660   -0.000000   -0.071044
      6         17           0       -0.000000   -0.000000    2.145693
 ---------------------------------------------------------------------
                    Distance matrix (angstroms):
                    1          2          3          4          5
     1  F    0.000000
     2  C    2.067570   0.000000
     3  H    2.209099   1.070686   0.000000
     4  H    2.209099   1.070686   1.840581   0.000000
     5  H    2.209099   1.070686   1.840581   1.840581   0.000000
     6  Cl   4.153453   2.085883   2.458285   2.458285   2.458285
                    6
     6  Cl   0.000000
 Stoichiometry    CH3ClF(1-)
 Framework group  C3V[C3(FCCl),3SGV(H)]
 Deg. of freedom     4
 Full point group                 C3V     NOp   6
 RotChk:  IX=0 Diff= 0.00D+00
 Largest Abelian subgroup         CS      NOp   2
 Largest concise Abelian subgroup CS      NOp   2
                         Standard orientation:                         
 ---------------------------------------------------------------------
 Center     Atomic      Atomic             Coordinates (Angstroms)
 Number     Number       Type             X           Y           Z
 ---------------------------------------------------------------------
      1          9           0        0.000000    0.000000   -2.537837
      2          6           0        0.000000    0.000000   -0.470266
      3          1           0       -0.000000    1.062660   -0.601119
      4          1           0       -0.920290   -0.531330   -0.601119
      5          1           0        0.920290   -0.531330   -0.601119
      6         17           0        0.000000    0.000000    1.615617
 ---------------------------------------------------------------------
 Rotational constants (GHZ):         148.0206146           2.3068094           2.3068094
 Leave Link  202 at Wed Oct 21 14:21:37 2020, MaxMem=  2684354560 cpu:               2.7 elap:               0.8
 (Enter /udrive/faculty/rpeverati/g16/g16/l301.exe)
 Standard basis: VSTO-6G (5D, 7F)
 Ernie: Thresh=  0.10000D-02 Tol=  0.10000D-05 Strict=F.
  NNHCO=     0 NNPyr=     0 NCTC=     0               EPep=         0.000000000
    EC=        31.854305696  ECS=         0.438661742   EG=         0.086372892
   EHC=         0.000000000  EAt=       -33.190592685  AtH=         0.597721653
 EPDDG=         0.000000000  ECC=        32.379340330 EAtT=        33.788314338
 There are    11 symmetry adapted cartesian basis functions of A'  symmetry.
 There are     4 symmetry adapted cartesian basis functions of A"  symmetry.
 There are    11 symmetry adapted basis functions of A'  symmetry.
 There are     4 symmetry adapted basis functions of A"  symmetry.
    15 basis functions,    90 primitive gaussians,    15 cartesian basis functions
    11 alpha electrons       11 beta electrons
       nuclear repulsion energy        66.1676546677 Hartrees.
 IExCor=    0 DFT=F Ex=HF Corr=None ExCW=0 ScaHFX=  1.000000
 ScaDFX=  1.000000  1.000000  1.000000  1.000000 ScalE2=  1.000000  1.000000
 IRadAn=      5 IRanWt=     -1 IRanGd=            0 ICorTp=0 IEmpDi=  4
 Integral buffers will be    131072 words long.
 Regular integral format.
 Two-electron integral symmetry is turned off.
 Leave Link  301 at Wed Oct 21 14:21:38 2020, MaxMem=  2684354560 cpu:               5.1 elap:               1.1
 (Enter /udrive/faculty/rpeverati/g16/g16/l302.exe)
 Do NDO integrals.
 NPDir=0 NMtPBC=     1 NCelOv=     1 NCel=       1 NClECP=     1 NCelD=      1
         NCelK=      1 NCelE2=     1 NClLst=     1 CellRange=     0.0.
 One-electron integrals computed using PRISM.
 NBasis=    15 RedAO= T EigKep=  1.00D+00  NBF=    11     4
 NBsUse=    15 1.00D-06 EigRej= -1.00D+00 NBFU=    11     4
 Leave Link  302 at Wed Oct 21 14:21:40 2020, MaxMem=  2684354560 cpu:               3.4 elap:               0.9
 (Enter /udrive/faculty/rpeverati/g16/g16/l303.exe)
 DipDrv:  MaxL=1.
 Leave Link  303 at Wed Oct 21 14:21:41 2020, MaxMem=  2684354560 cpu:               2.8 elap:               0.8
 (Enter /udrive/faculty/rpeverati/g16/g16/l401.exe)
 Initial guess from the checkpoint file:  "MN_37_fch3clts_BH76_PM3_SE.chk"
 SCF N**3 symmetry information disabled.
 B after Tr=    -0.000000    0.000000   -0.000000
         Rot=    1.000000    0.000000   -0.000000    0.000000 Ang=   0.00 deg.
 Guess basis will be translated and rotated to current coordinates.
 JPrj=0 DoOrth=T DoCkMO=T.
 Initial guess orbital symmetries:
       Occupied  (A1) (A1) (E) (E) (A1) (A1) (E) (E) (E) (E) (A1)
       Virtual   (A1) (A1) (E) (E)
 The electronic state of the initial guess is 1-A1.
 Leave Link  401 at Wed Oct 21 14:21:42 2020, MaxMem=  2684354560 cpu:               2.3 elap:               0.8
 (Enter /udrive/faculty/rpeverati/g16/g16/l502.exe)
 Keep J ints in memory in canonical form, NReq=859737.
 FoFCou: FMM=F IPFlag=           0 FMFlag=           0 FMFlg1=           0
         NFxFlg=           0 DoJE=F BraDBF=F KetDBF=F FulRan=T
         wScrn=  0.000000 ICntrl=       600 IOpCl=  2 I1Cent=           0 NGrid=           0
         NMat0=    1 NMatS0=     33 NMatT0=    0 NMatD0=    1 NMtDS0=    0 NMtDT0=    0
 Symmetry not used in FoFCou.
 Two-electron integral symmetry not used.
 Closed shell SCF:
 Using DIIS extrapolation, IDIIS=  1040.
 Overlap will be assumed to be unity.
 NGot=  2684354560 LenX=  2684293520 LenY=  2684292638
 Requested convergence on RMS density matrix=1.00D-08 within 120 cycles.
 Requested convergence on MAX density matrix=1.00D-06.
 Requested convergence on             energy=1.00D-06.
 No special actions if energy rises.

 Cycle   1  Pass 1  IDiag  1:
 E=-0.798184643035711E-01
 DIIS: error= 2.14D-03 at cycle   1 NSaved=   1.
 NSaved= 1 IEnMin= 1 EnMin=-0.798184643035711E-01 IErMin= 1 ErrMin= 2.14D-03
 ErrMax= 2.14D-03  0.00D+00 EMaxC= 1.00D-01 BMatC= 6.60D-05 BMatP= 6.60D-05
 IDIUse=3 WtCom= 9.79D-01 WtEn= 2.14D-02
 Coeff-Com:  0.100D+01
 Coeff-En:   0.100D+01
 Coeff:      0.100D+01
 GapD=    2.000 DampG=2.000 DampE=1.000 DampFc=2.0000 IDamp=-1.
 RMSDP=1.61D-03 MaxDP=9.50D-03              OVMax= 0.00D+00

 Cycle   2  Pass 1  IDiag  3:
 E=-0.801705745262495E-01 Delta-E=       -0.000352110223 Rises=F Damp=F
 DIIS: error= 6.91D-04 at cycle   2 NSaved=   2.
 NSaved= 2 IEnMin= 2 EnMin=-0.801705745262495E-01 IErMin= 2 ErrMin= 6.91D-04
 ErrMax= 6.91D-04  0.00D+00 EMaxC= 1.00D-01 BMatC= 1.14D-05 BMatP= 6.60D-05
 IDIUse=3 WtCom= 9.93D-01 WtEn= 6.91D-03
 Coeff-Com: -0.472D+00 0.147D+01
 Coeff-En:   0.000D+00 0.100D+01
 Coeff:     -0.468D+00 0.147D+01
 Gap=     0.340 Goal=   None    Shift=    0.000
 RMSDP=1.03D-03 MaxDP=5.46D-03 DE=-3.52D-04 OVMax= 8.26D-03

 Cycle   3  Pass 1  IDiag  3:
 E=-0.802592134150757E-01 Delta-E=       -0.000088638889 Rises=F Damp=F
 DIIS: error= 2.29D-04 at cycle   3 NSaved=   3.
 NSaved= 3 IEnMin= 3 EnMin=-0.802592134150757E-01 IErMin= 3 ErrMin= 2.29D-04
 ErrMax= 2.29D-04  0.00D+00 EMaxC= 1.00D-01 BMatC= 9.82D-07 BMatP= 1.14D-05
 IDIUse=3 WtCom= 9.98D-01 WtEn= 2.29D-03
 Coeff-Com:  0.181D+00-0.812D+00 0.163D+01
 Coeff-En:   0.000D+00 0.000D+00 0.100D+01
 Coeff:      0.181D+00-0.810D+00 0.163D+01
 Gap=     0.340 Goal=   None    Shift=    0.000
 RMSDP=3.88D-04 MaxDP=2.14D-03 DE=-8.86D-05 OVMax= 2.50D-03

 Cycle   4  Pass 1  IDiag  3:
 E=-0.802671620289459E-01 Delta-E=       -0.000007948614 Rises=F Damp=F
 DIIS: error= 2.28D-05 at cycle   4 NSaved=   4.
 NSaved= 4 IEnMin= 4 EnMin=-0.802671620289459E-01 IErMin= 4 ErrMin= 2.28D-05
 ErrMax= 2.28D-05  0.00D+00 EMaxC= 1.00D-01 BMatC= 1.29D-08 BMatP= 9.82D-07
 IDIUse=1 WtCom= 1.00D+00 WtEn= 0.00D+00
 Coeff-Com: -0.655D-01 0.305D+00-0.635D+00 0.140D+01
 Coeff:     -0.655D-01 0.305D+00-0.635D+00 0.140D+01
 Gap=     0.340 Goal=   None    Shift=    0.000
 RMSDP=2.62D-05 MaxDP=1.17D-04 DE=-7.95D-06 OVMax= 1.45D-04

 Cycle   5  Pass 1  IDiag  3:
 E=-0.802672402387259E-01 Delta-E=       -0.000000078210 Rises=F Damp=F
 DIIS: error= 8.78D-06 at cycle   5 NSaved=   5.
 NSaved= 5 IEnMin= 5 EnMin=-0.802672402387259E-01 IErMin= 5 ErrMin= 8.78D-06
 ErrMax= 8.78D-06  0.00D+00 EMaxC= 1.00D-01 BMatC= 1.39D-09 BMatP= 1.29D-08
 IDIUse=1 WtCom= 1.00D+00 WtEn= 0.00D+00
 Coeff-Com:  0.291D-01-0.139D+00 0.290D+00-0.898D+00 0.172D+01
 Coeff:      0.291D-01-0.139D+00 0.290D+00-0.898D+00 0.172D+01
 Gap=     0.340 Goal=   None    Shift=    0.000
 RMSDP=1.19D-05 MaxDP=6.35D-05 DE=-7.82D-08 OVMax= 7.33D-05

 Cycle   6  Pass 1  IDiag  3:
 E=-0.802672495818797E-01 Delta-E=       -0.000000009343 Rises=F Damp=F
 DIIS: error= 1.36D-06 at cycle   6 NSaved=   6.
 NSaved= 6 IEnMin= 6 EnMin=-0.802672495818797E-01 IErMin= 6 ErrMin= 1.36D-06
[...]
           D3           0.00176  -0.00152   0.00233   0.00402   0.00027
           D4           0.00341  -0.00075  -0.00162   0.00361   0.00014
           D5           0.00165   0.00078  -0.00396  -0.00041  -0.00013
                          D2        D3        D4        D5
           D2           0.01083
           D3          -0.00046   0.01149
           D4          -0.00023   0.00574   0.01223
           D5           0.00023  -0.00575   0.00649   0.01224
 ITU=  0
 Eigenvectors of the second derivative matrix:
                           1         2         3         4         5
     Eigenvalues --    -0.02482   0.00777   0.00804   0.01365   0.03380
   1         R1         0.57059  -0.00159  -0.00004   0.22566  -0.00208
   2         R2         0.17835   0.35360   0.66354   0.46250  -0.02732
   3         R3         0.17835   0.38508  -0.64511   0.46248  -0.02704
   4         R4         0.18033  -0.74193  -0.01852   0.45291   0.15493
   5         R5         0.00386   0.00396   0.00858  -0.00002   0.00403
   6         R6         0.00386   0.00435  -0.00837  -0.00002   0.00406
   7         R7         0.00473  -0.00884  -0.00023   0.00125  -0.01176
   8         R8        -0.40318   0.00106   0.00003   0.14522   0.04461
   9         A1        -0.05210  -0.09168  -0.00229  -0.07870  -0.13469
  10         A2        -0.05957   0.04801  -0.07787  -0.08538   0.05901
  11         A3        -0.05957   0.04421   0.08017  -0.08538   0.05892
  12         A4        -0.05548  -0.04921  -0.00124   0.07916  -0.52153
  13         A5        -0.08277   0.02561  -0.03586   0.04985   0.27313
  14         A6         0.16877  -0.02327  -0.04335  -0.13773  -0.01695
  15         A7        -0.08277   0.02386   0.03710   0.04985   0.27290
  16         A8         0.16877  -0.02516   0.04204  -0.13773  -0.01718
  17         A9         0.17074   0.04785   0.00130  -0.13584  -0.02222
  18         A10       -0.00095   0.16225   0.30322   0.00113  -0.03110
  19         A11       -0.00165   0.30033  -0.16680   0.00197  -0.05442
  20         D1        -0.00721  -0.18427  -0.00460  -0.01612  -0.26075
  21         D2         0.54991   0.01185   0.00030  -0.45366   0.07263
  22         D3         0.01850  -0.06172  -0.00158   0.01991  -0.54645
  23         D4         0.00925  -0.03197   0.04649   0.00995  -0.27337
  24         D5        -0.00925   0.02974   0.04807  -0.00995   0.27308
                           6         7         8         9        10
     Eigenvalues --     0.03673   0.08066   0.08118   0.13726   0.29598
   1         R1        -0.00000   0.00057   0.00026   0.22688   0.04034
   2         R2        -0.06540   0.01136   0.13510  -0.00124  -0.07744
   3         R3         0.06525   0.11254  -0.07884  -0.00123  -0.07747
   4         R4         0.00017  -0.13082  -0.05943  -0.00840   0.00050
   5         R5         0.01758   0.00597   0.04722  -0.05040  -0.60764
   6         R6        -0.01759   0.03987  -0.02594  -0.05040  -0.60769
   7         R7         0.00001  -0.04442  -0.02061  -0.05295   0.29802
   8         R8         0.00001  -0.01075  -0.00502   0.89771  -0.05328
   9         A1        -0.00003   0.01379   0.00650  -0.02487  -0.23766
  10         A2        -0.12041  -0.01234   0.01079  -0.03798  -0.06739
  11         A3         0.12043   0.00013  -0.01656  -0.03798  -0.06739
  12         A4        -0.00015   0.06215   0.02871  -0.00947   0.06398
  13         A5        -0.48133  -0.06113   0.04776  -0.05822  -0.02364
  14         A6        -0.00307  -0.05575  -0.63835   0.09212  -0.05009
  15         A7         0.48148  -0.00306  -0.07741  -0.05823  -0.02363
  16         A8         0.00318  -0.52161   0.37007   0.09219  -0.05018
  17         A9        -0.00012   0.58205   0.27043   0.10524   0.06184
  18         A10       -0.04075  -0.05119  -0.57659  -0.00331   0.00673
  19         A11        0.02376  -0.57756   0.05267  -0.00569   0.01164
  20         D1        -0.00005   0.02678   0.01263   0.00740  -0.26520
  21         D2         0.00002  -0.01079  -0.00500   0.30766  -0.05671
  22         D3        -0.00013  -0.06549  -0.03060   0.03162   0.04358
  23         D4         0.49798  -0.05507   0.03330   0.01581   0.02178
  24         D5         0.49810   0.01041   0.06390  -0.01581  -0.02179
                          11        12
     Eigenvalues --     0.30867   0.33112
   1         R1         0.05576   0.00000
   2         R2        -0.04522   0.02491
   3         R3        -0.04519  -0.02496
   4         R4        -0.08991   0.00004
   5         R5        -0.19615   0.68581
   6         R6        -0.19607  -0.68578
   7         R7        -0.87756  -0.00008
   8         R8        -0.07417  -0.00000
   9         A1        -0.08595   0.00001
  10         A2        -0.21738   0.14651
  11         A3        -0.21737  -0.14655
  12         A4        -0.02928   0.00001
  13         A5         0.03005  -0.01543
  14         A6         0.00455   0.07981
  15         A7         0.03003   0.01542
  16         A8         0.00465  -0.07995
  17         A9        -0.08004   0.00014
  18         A10       -0.00739  -0.03807
  19         A11       -0.01278   0.02195
  20         D1         0.12351   0.00004
  21         D2        -0.06726  -0.00000
  22         D3        -0.02818  -0.00003
  23         D4        -0.01408  -0.00202
  24         D5         0.01409  -0.00199
 Eigenvalue     1 is  -2.48D-02 should be greater than     0.000000 Eigenvector:
                          R1        D2        R8        R4        R3
   1                    0.57059   0.54991  -0.40318   0.18033   0.17835
                          R2        A9        A8        A6        A7
   1                    0.17835   0.17074   0.16877   0.16877  -0.08277
 Angle between quadratic step and forces=  44.90 degrees.
 Linear search not attempted -- first point.
 Iteration  1 RMS(Cart)=  0.00034770 RMS(Int)=  0.00000008
 Iteration  2 RMS(Cart)=  0.00000004 RMS(Int)=  0.00000006
 ITry= 1 IFail=0 DXMaxC= 1.42D-03 DCOld= 1.00D+10 DXMaxT= 3.00D-01 DXLimC= 3.00D+00 Rises=F
 ClnCor:  largest displacement from symmetrization is 8.99D-05 for atom     4.
 Variable       Old X    -DE/DX   Delta X   Delta X   Delta X     New X
                                 (Linear)    (Quad)   (Total)
    R1        3.96502  -0.00006   0.00000  -0.00216  -0.00216   3.96286
    R2        4.22143  -0.00002   0.00000  -0.00136  -0.00137   4.22006
    R3        4.22143  -0.00002   0.00000  -0.00136  -0.00137   4.22006
    R4        4.22143  -0.00002   0.00000  -0.00137  -0.00137   4.22006
    R5        2.04590   0.00004   0.00000   0.00014   0.00013   2.04603
    R6        2.04590   0.00004   0.00000   0.00014   0.00013   2.04603
    R7        2.04590   0.00005   0.00000   0.00014   0.00013   2.04603
    R8        3.86586   0.00002   0.00000   0.00081   0.00081   3.86668
    A1        0.85859   0.00002   0.00000   0.00036   0.00039   0.85898
    A2        0.85859   0.00003   0.00000   0.00040   0.00039   0.85898
    A3        0.85859   0.00003   0.00000   0.00040   0.00039   0.85898
    A4        2.06597   0.00000   0.00000   0.00000   0.00011   2.06608
    A5        2.06597   0.00001   0.00000   0.00016   0.00011   2.06608
    A6        1.69977  -0.00001   0.00000  -0.00024  -0.00025   1.69952
    A7        2.06597   0.00001   0.00000   0.00016   0.00011   2.06608
    A8        1.69977  -0.00001   0.00000  -0.00024  -0.00025   1.69952
    A9        1.69977  -0.00001   0.00000  -0.00026  -0.00025   1.69952
   A10        3.14159   0.00000   0.00000   0.00001   0.00000   3.14159
   A11        3.14159   0.00000   0.00000   0.00001   0.00000   3.14159
    D1        1.16448   0.00001   0.00000   0.00006   0.00012   1.16460
    D2       -2.70322  -0.00003   0.00000  -0.00079  -0.00081  -2.70403
    D3        2.09440  -0.00000   0.00000  -0.00011   0.00000   2.09440
    D4       -2.09440  -0.00000   0.00000  -0.00005   0.00000  -2.09440
    D5        2.09440   0.00000   0.00000   0.00005   0.00000   2.09440
         Item               Value     Threshold  Converged?
 Maximum Force            0.000058     0.000450     YES
 RMS     Force            0.000024     0.000300     YES
 Maximum Displacement     0.001419     0.001800     YES
 RMS     Displacement     0.000346     0.001200     YES
 Predicted change in Energy=-3.611750D-07
 Optimization completed.
    -- Stationary point found.
                           ----------------------------
                           !   Optimized Parameters   !
                           ! (Angstroms and Degrees)  !
 --------------------------                            --------------------------
 ! Name  Definition              Value          Derivative Info.                !
 --------------------------------------------------------------------------------
 ! R1    R(1,2)                  2.0982         -DE/DX =   -0.0001              !
 ! R2    R(1,3)                  2.2339         -DE/DX =    0.0                 !
 ! R3    R(1,4)                  2.2339         -DE/DX =    0.0                 !
 ! R4    R(1,5)                  2.2339         -DE/DX =    0.0                 !
 ! R5    R(2,3)                  1.0826         -DE/DX =    0.0                 !
 ! R6    R(2,4)                  1.0826         -DE/DX =    0.0                 !
 ! R7    R(2,5)                  1.0826         -DE/DX =    0.0                 !
 ! R8    R(2,6)                  2.0457         -DE/DX =    0.0                 !
 ! A1    A(3,1,4)               49.1937         -DE/DX =    0.0                 !
 ! A2    A(3,1,5)               49.1937         -DE/DX =    0.0                 !
 ! A3    A(4,1,5)               49.1937         -DE/DX =    0.0                 !
 ! A4    A(3,2,4)              118.3716         -DE/DX =    0.0                 !
 ! A5    A(3,2,5)              118.3716         -DE/DX =    0.0                 !
 ! A6    A(3,2,6)               97.3895         -DE/DX =    0.0                 !
 ! A7    A(4,2,5)              118.3716         -DE/DX =    0.0                 !
 ! A8    A(4,2,6)               97.3895         -DE/DX =    0.0                 !
 ! A9    A(5,2,6)               97.3895         -DE/DX =    0.0                 !
 ! A10   L(1,2,6,3,-1)         180.0            -DE/DX =    0.0                 !
 ! A11   L(1,2,6,3,-2)         180.0            -DE/DX =    0.0                 !
 ! D1    D(3,1,5,4)             66.7201         -DE/DX =    0.0                 !
 ! D2    D(3,2,5,4)           -154.8831         -DE/DX =    0.0                 !
 ! D3    D(3,2,6,4)            120.0            -DE/DX =    0.0                 !
 ! D4    D(3,2,6,5)           -120.0            -DE/DX =    0.0                 !
 ! D5    D(4,2,6,5)            120.0            -DE/DX =    0.0                 !
 --------------------------------------------------------------------------------
 GradGradGradGradGradGradGradGradGradGradGradGradGradGradGradGradGradGrad

 Leave Link  103 at Wed Oct 21 14:22:52 2020, MaxMem=  2684354560 cpu:               5.0 elap:               1.1
 (Enter /udrive/faculty/rpeverati/g16/g16/l9999.exe)

 ----------------------------------------------------------------------

 Electric dipole moment (input orientation):
 (Debye = 10**-18 statcoulomb cm , SI units = C m)
                  (au)            (Debye)         (10**-30 SI)
   Tot        0.170606D+01      0.433638D+01      0.144646D+02
   x          0.000000D+00      0.000000D+00      0.000000D+00
   y          0.000000D+00      0.000000D+00      0.000000D+00
   z          0.170606D+01      0.433638D+01      0.144646D+02

 Dipole polarizability, Alpha (input orientation).
 (esu units = cm**3 , SI units = C**2 m**2 J**-1)
 Alpha(0;0):
               (au)            (10**-24 esu)      (10**-40 SI)
   iso        0.296714D+02      0.439684D+01      0.489215D+01
   aniso      0.666306D+02      0.987363D+01      0.109859D+02
   xx         0.746116D+01      0.110563D+01      0.123018D+01
   yx         0.000000D+00      0.000000D+00      0.000000D+00
   yy         0.746116D+01      0.110563D+01      0.123018D+01
   zx         0.000000D+00      0.000000D+00      0.000000D+00
   zy         0.000000D+00      0.000000D+00      0.000000D+00
   zz         0.740917D+02      0.109793D+02      0.122161D+02

 First dipole hyperpolarizability, Beta (input orientation).
 ||, _|_  parallel and perpendicular components, (z) with respect to z axis,
 vector components x,y,z.  Values do not include the 1/n! factor of 1/2.
 (esu units = statvolt**-1 cm**4 , SI units = C**3 m**3 J**-2)
 Beta(0;0,0):
               (au)            (10**-30 esu)      (10**-50 SI)
   || (z)     0.239756D+02      0.207131D+00      0.768745D-01
   _|_(z)     0.799187D+01      0.690436D-01      0.256248D-01
   x          0.000000D+00      0.000000D+00      0.000000D+00
   y          0.000000D+00      0.000000D+00      0.000000D+00
   z          0.119878D+03      0.103565D+01      0.384373D+00
   ||         0.239756D+02      0.207131D+00      0.768745D-01
   xxx        0.176203D+02      0.152226D+00      0.564971D-01
   xxy        0.000000D+00      0.000000D+00      0.000000D+00
   yxy       -0.176203D+02     -0.152226D+00     -0.564971D-01
   yyy        0.000000D+00      0.000000D+00      0.000000D+00
   xxz       -0.627722D+01     -0.542303D-01     -0.201270D-01
   yxz        0.000000D+00      0.000000D+00      0.000000D+00
   yyz       -0.627722D+01     -0.542303D-01     -0.201270D-01
   zxz        0.000000D+00      0.000000D+00      0.000000D+00
   zyz        0.000000D+00      0.000000D+00      0.000000D+00
   zzz        0.525138D+02      0.453678D+00      0.168378D+00

 ----------------------------------------------------------------------

 Dipole orientation:
     9         -0.00000000          0.00000000         -3.82178662
     6         -0.00000000         -0.00000000          0.14323408
     1         -1.01445560          1.75708865         -0.11989635
     1         -1.01445560         -1.75708865         -0.11989635
     1          2.02891121         -0.00000000         -0.11989635
    17         -0.00000000         -0.00000000          4.00909670

 Electric dipole moment (dipole orientation):
 (Debye = 10**-18 statcoulomb cm , SI units = C m)
                  (au)            (Debye)         (10**-30 SI)
   Tot        0.170606D+01      0.433638D+01      0.144646D+02
   x          0.000000D+00      0.000000D+00      0.000000D+00
   y          0.000000D+00      0.000000D+00      0.000000D+00
   z          0.170606D+01      0.433638D+01      0.144646D+02

 Dipole polarizability, Alpha (dipole orientation).
 (esu units = cm**3 , SI units = C**2 m**2 J**-1)
 Alpha(0;0):
               (au)            (10**-24 esu)      (10**-40 SI)
   iso        0.296714D+02      0.439684D+01      0.489215D+01
   aniso      0.666306D+02      0.987363D+01      0.109859D+02
   xx         0.746116D+01      0.110563D+01      0.123018D+01
   yx         0.000000D+00      0.000000D+00      0.000000D+00
   yy         0.746116D+01      0.110563D+01      0.123018D+01
   zx         0.000000D+00      0.000000D+00      0.000000D+00
   zy         0.000000D+00      0.000000D+00      0.000000D+00
   zz         0.740917D+02      0.109793D+02      0.122161D+02

 First dipole hyperpolarizability, Beta (dipole orientation).
 ||, _|_  parallel and perpendicular components, (z) with respect to z axis,
 vector components x,y,z.  Values do not include the 1/n! factor of 1/2.
 (esu units = statvolt**-1 cm**4 , SI units = C**3 m**3 J**-2)
 Beta(0;0,0):
               (au)            (10**-30 esu)      (10**-50 SI)
   || (z)     0.239756D+02      0.207131D+00      0.768745D-01
   _|_(z)     0.799187D+01      0.690436D-01      0.256248D-01
   x          0.000000D+00      0.000000D+00      0.000000D+00
   y          0.000000D+00      0.000000D+00      0.000000D+00
   z          0.119878D+03      0.103565D+01      0.384373D+00
   ||         0.239756D+02      0.207131D+00      0.768745D-01
   xxx        0.176203D+02      0.152226D+00      0.564971D-01
   xxy        0.000000D+00      0.000000D+00      0.000000D+00
   yxy       -0.176203D+02     -0.152226D+00     -0.564971D-01
   yyy        0.000000D+00      0.000000D+00      0.000000D+00
   xxz       -0.627722D+01     -0.542303D-01     -0.201270D-01
   yxz        0.000000D+00      0.000000D+00      0.000000D+00
   yyz       -0.627722D+01     -0.542303D-01     -0.201270D-01
   zxz        0.000000D+00      0.000000D+00      0.000000D+00
   zyz        0.000000D+00      0.000000D+00      0.000000D+00
   zzz        0.525138D+02      0.453678D+00      0.168378D+00

 ----------------------------------------------------------------------

 Test job not archived.
 1\1\GINC-NODE38\Freq\RPM3\ZDO\C1H3Cl1F1(1-)\RPEVERATI\21-Oct-2020\0\\#
 P Freq PM3 5D 7F Integral=UltraFineGrid SCF=(NoSymm,XQC,MaxCyc=120) IO
 p(1/33=1) Geom=Check Guess=Read\\TS search on BH76.\\-1,1\F,0.,0.,-2.0
 224023828\C,0.,0.,0.0757962108\H,-0.5368267868,0.9298112695,-0.0634464
 135\H,-0.5368267868,-0.9298112695,-0.0634464135\H,1.0736535735,0.,-0.0
 634464135\Cl,0.,0.,2.1215226114\\Version=ES64L-G16RevA.03\State=1-A1\H
 F=-0.0805269\RMSD=1.067e-09\RMSF=4.385e-05\ZeroPoint=0.0355017\Thermal
 =0.0400844\Dipole=0.,0.,1.7060632\DipoleDeriv=-0.7852989,0.,0.,0.,-0.7
 852989,0.,0.,0.,-2.5260691,0.3558493,0.,0.,0.,0.3558493,0.,0.,0.,4.679
 1627,0.0015125,-0.0230722,0.0172776,-0.0230722,0.028154,-0.0299258,0.0
 24015,-0.0415952,-0.2557427,0.0015125,0.0230722,0.0172776,0.0230722,0.
 028154,0.0299258,0.024015,0.0415952,-0.2557427,0.0414747,0.,-0.0345553
 ,0.,-0.0118082,0.,-0.04803,0.,-0.2557427,-0.6150498,0.,0.,0.,-0.615049
 8,0.,0.,0.,-2.3858644\Polar=7.4611626,0.,7.4611626,0.,0.,74.0917336\Hy
 perPolar=17.6203023,0.,-17.6203023,0.,-6.2772187,0.,-6.2772187,0.,0.,5
 2.5138037\PG=C03V [C3(F1C1Cl1),3SGV(H1)]\NImag=1\\0.00363404,0.,0.0036
 3404,0.,0.,0.00940780,-0.00722103,0.,0.,0.57727146,0.,-0.00722103,0.,0
 .,0.57727146,0.,0.,0.07489606,0.,0.,-0.08751431,0.00093997,0.00074558,
 0.00190189,-0.11437815,0.12192801,-0.01979696,0.11360677,0.00074558,0.
 00007905,-0.00329418,0.12192801,-0.25516849,0.03428934,-0.13493492,0.2
 6941619,0.00110625,-0.00191608,-0.01365866,-0.01865744,0.03231563,-0.0
 0300944,0.02220152,-0.03845416,0.04109951,0.00093997,-0.00074558,0.001
 90189,-0.11437815,-0.12192801,-0.01979696,0.00864611,0.00854790,0.0016
 7879,0.11360677,-0.00074558,0.00007905,0.00329418,-0.12192801,-0.25516
 849,-0.03428934,-0.00854790,-0.01590179,-0.00212355,0.13493492,0.26941
 619,0.00110625,0.00191608,-0.01365866,-0.01865744,-0.03231563,-0.00300
 944,0.00167879,0.00212355,0.00241787,0.02220152,0.03845416,0.04109951,
 -0.00035140,0.,-0.00380379,-0.32556366,0.,0.03959392,-0.00976481,0.002
 08166,0.00099965,-0.00976481,-0.00208166,0.00099965,0.34732091,0.,0.00
 137043,0.,0.,-0.04398299,0.,0.01917745,0.00250914,-0.00251565,-0.01917
 745,0.00250914,0.00251565,0.,0.03570205,-0.00221250,0.,-0.01365866,0.0
 3731488,0.,-0.00300944,-0.00267844,-0.00039210,0.00241787,-0.00267844,
 0.00039210,0.00241787,-0.04440304,0.,0.04109951,0.00205846,0.,0.,-0.01
 573067,0.,0.,0.00095022,0.00163178,-0.00732875,0.00095022,-0.00163178,
 -0.00732875,-0.00187612,0.,0.01465751,0.01364782,0.,0.00205846,0.,0.,-
 0.01573067,0.,0.00163178,-0.00093401,0.01269377,-0.00163178,-0.0009340
 1,-0.01269377,0.,0.00189233,0.,0.,0.01364782,0.,0.,-0.04332783,0.,0.,0
 .02164647,-0.00330686,0.00572765,-0.02926723,-0.00330686,-0.00572765,-
 0.02926723,0.00661372,0.,-0.02926723,0.,0.,0.10948329\\0.,0.,-0.000119
 99,0.,0.,0.00011412,0.00002377,-0.00004117,0.00000724,0.00002377,0.000
 04117,0.00000724,-0.00004753,0.,0.00000724,0.,0.,-0.00001584\\\@


 THERE ARE PEOPLE SO ADDICTED TO EXAGERATING THEY
 CAN'T TELL THE TRUTH WITHOUT LYING. -- FORTUNE COOKIE
 Job cpu time:       0 days  0 hours  1 minutes 37.6 seconds.
 Elapsed time:       0 days  0 hours  0 minutes 21.7 seconds.
 File lengths (MBytes):  RWF=      5 Int=      0 D2E=      0 Chk=      2 Scr=      1
 Normal termination of Gaussian 16 at Wed Oct 21 14:22:54 2020.
