 Entering Gaussian System, Link 0=g16
 Input=MN_39_fch3fts_BH76_PM3_SE.in
 Output=MN_39_fch3fts_BH76_PM3_SE.log
 Initial command:
 /udrive/faculty/rpeverati/g16/g16/l1.exe "/udrive/scratch-directories/gaussian09/rpeverati/Gau-449.inp" -scrdir="/udrive/scratch-directories/gaussian09/rpeverati/"
 Entering Link 1 = /udrive/faculty/rpeverati/g16/g16/l1.exe PID=       463.
  
 Copyright (c) 1988,1990,1992,1993,1995,1998,2003,2009,2016,
            Gaussian, Inc.  All Rights Reserved.
  
 This is part of the Gaussian(R) 16 program.  It is based on
 the Gaussian(R) 09 system (copyright 2009, Gaussian, Inc.),
 the Gaussian(R) 03 system (copyright 2003, Gaussian, Inc.),
 the Gaussian(R) 98 system (copyright 1998, Gaussian, Inc.),
 the Gaussian(R) 94 system (copyright 1995, Gaussian, Inc.),
 the Gaussian 92(TM) system (copyright 1992, Gaussian, Inc.),
 the Gaussian 90(TM) system (copyright 1990, Gaussian, Inc.),
 the Gaussian 88(TM) system (copyright 1988, Gaussian, Inc.),
 the Gaussian 86(TM) system (copyright 1986, Carnegie Mellon
 University), and the Gaussian 82(TM) system (copyright 1983,
 Carnegie Mellon University). Gaussian is a federally registered
 trademark of Gaussian, Inc.
  
 This software contains proprietary and confidential information,
 including trade secrets, belonging to Gaussian, Inc.
  
 This software is provided under written license and may be
 used, copied, transmitted, or stored only in accord with that
 written license.
  
 The following legend is applicable only to US Government
 contracts under FAR:
  
                    RESTRICTED RIGHTS LEGEND
  
 Use, reproduction and disclosure by the US Government is
 subject to restrictions as set forth in subparagraphs (a)
 and (c) of the Commercial Computer Software - Restricted
 Rights clause in FAR 52.227-19.
  
 Gaussian, Inc.
 340 Quinnipiac St., Bldg. 40, Wallingford CT 06492
  
  
 ---------------------------------------------------------------
 Warning -- This program may not be used in any manner that
 competes with the business of Gaussian, Inc. or will provide
 assistance to any competitor of Gaussian, Inc.  The licensee
 of this program is prohibited from giving any competitor of
 Gaussian, Inc. access to this program.  By using this program,
 the user acknowledges that Gaussian, Inc. is engaged in the
 business of creating and licensing software in the field of
 computational chemistry and represents and warrants to the
 licensee that it is not a competitor of Gaussian, Inc. and that
 it will not use this program in any manner prohibited above.
 ---------------------------------------------------------------
  

 Cite this work as:
 Gaussian 16, Revision A.03,
 M. J. Frisch, G. W. Trucks, H. B. Schlegel, G. E. Scuseria, 
 M. A. Robb, J. R. Cheeseman, G. Scalmani, V. Barone, 
 G. A. Petersson, H. Nakatsuji, X. Li, M. Caricato, A. V. Marenich, 
 J. Bloino, B. G. Janesko, R. Gomperts, B. Mennucci, H. P. Hratchian, 
 J. V. Ortiz, A. F. Izmaylov, J. L. Sonnenberg, D. Williams-Young, 
 F. Ding, F. Lipparini, F. Egidi, J. Goings, B. Peng, A. Petrone, 
 T. Henderson, D. Ranasinghe, V. G. Zakrzewski, J. Gao, N. Rega, 
 G. Zheng, W. Liang, M. Hada, M. Ehara, K. Toyota, R. Fukuda, 
 J. Hasegawa, M. Ishida, T. Nakajima, Y. Honda, O. Kitao, H. Nakai, 
 T. Vreven, K. Throssell, J. A. Montgomery, Jr., J. E. Peralta, 
 F. Ogliaro, M. J. Bearpark, J. J. Heyd, E. N. Brothers, K. N. Kudin, 
 V. N. Staroverov, T. A. Keith, R. Kobayashi, J. Normand, 
 K. Raghavachari, A. P. Rendell, J. C. Burant, S. S. Iyengar, 
 J. Tomasi, M. Cossi, J. M. Millam, M. Klene, C. Adamo, R. Cammi, 
 J. W. Ochterski, R. L. Martin, K. Morokuma, O. Farkas, 
 J. B. Foresman, and D. J. Fox, Gaussian, Inc., Wallingford CT, 2016.
 
 ******************************************
 Gaussian 16:  ES64L-G16RevA.03 25-Dec-2016
                21-Oct-2020 
 ******************************************
 %NoSave
 %nproc=12
 Will use up to   12 processors via shared memory.
 %mem=20GB
 %chk=MN_39_fch3fts_BH76_PM3_SE
 ----------------------------------------------------------------------
 #P Opt(TS,MaxCyc=50,NoEigenTest,MaxStep=10,AddRedundant) PM3 5D 7F Int
 egral=UltraFineGrid SCF=(NoSymm,XQC,MaxCyc=120) IOp(1/33=1)
 ----------------------------------------------------------------------
 1/5=1,6=50,8=10,11=1,18=120,26=1,33=1,38=1/1,3;
 2/9=110,12=2,17=6,18=5,40=1/2;
 3/5=2,8=11,25=1,41=800000,71=1,75=-5/1,2,3;
 4/9=2,35=1/1;
 5/5=2,7=120,8=3,13=1,35=1,38=5/2,8;
 6/7=2,8=2,9=2,10=2,28=1/1;
 7//1,2,3,16;
 1/5=1,6=50,8=10,11=1,18=20,26=1,33=1/3(2);
 2/9=110/2;
 99//99;
 2/9=110/2;
 3/5=2,8=11,25=1,41=800000,71=1,75=-5,135=20/1,2,3;
 4/5=5,9=2,16=3,35=1/1;
 5/5=2,7=120,8=3,13=1,35=1,38=5/2,8;
 7//1,2,3,16;
 1/5=1,6=50,8=10,11=1,18=20,26=1,33=1/3(-5);
 2/9=110/2;
 6/7=2,8=2,9=2,10=2,19=2,28=1/1;
 99/9=1/99;
 Leave Link    1 at Wed Oct 21 14:21:15 2020, MaxMem=  2684354560 cpu:               7.1 elap:               0.7
 (Enter /udrive/faculty/rpeverati/g16/g16/l101.exe)
 ONIOM data not found on unit 2.
 ------------------
 TS search on BH76.
 ------------------
 TstMul:  ICh=    -1
 TstMul:  Mul=     1
 TstMul:  ICh=    -1
 TstMul:  Mul=     1
 Symbolic Z-matrix:
 Charge = -1 Multiplicity = 1
 F                     1.82365   0.00022   0.00008 
 C                     0.00024  -0.00039  -0.00021 
 H                     0.00016  -0.30519   1.02504 
 H                     0.00038   1.03988  -0.24896 
 H                    0.        -0.73656  -0.77621 
 F                    -1.82387   0.00024   0.00008 
 
 RdStrC is calling ZToCFu for IStruc=1 NZ=     6.
 PrtBox:  NBox=     1 Levels=  1 BoxLen=    8.00 SMaxX=        6.89
          Shift=            3.446610            1.391890            1.466820
 Box      1 Number                   0 centers from      1 to      6:
 After GenITR:
 ITRead=  0  0  0  0  0  0
 MicOpt= -1 -1 -1 -1 -1 -1
 Add virtual bond connecting atoms C2         and F1         Dist= 3.45D+00.
 Add virtual bond connecting atoms F6         and C2         Dist= 3.45D+00.
 The following ModRedundant input section has been read:
 
 ITRead=  0  0  0  0  0  0
 MicOpt= -1 -1 -1 -1 -1 -1
 NAtoms=      6 NQM=        6 NQMF=       0 NMMI=      0 NMMIF=      0
                NMic=       0 NMicF=      0.
                    Isotopes and Nuclear Properties:
 (Nuclear quadrupole moments (NQMom) in fm**2, nuclear magnetic moments (NMagM)
  in nuclear magnetons)

  Atom         1           2           3           4           5           6
 IAtWgt=          19          12           1           1           1          19
 AtmWgt=  18.9984033  12.0000000   1.0078250   1.0078250   1.0078250  18.9984033
 NucSpn=           1           0           1           1           1           1
 AtZEff=   0.0000000   0.0000000   0.0000000   0.0000000   0.0000000   0.0000000
 NQMom=    0.0000000   0.0000000   0.0000000   0.0000000   0.0000000   0.0000000
 NMagM=    2.6288670   0.0000000   2.7928460   2.7928460   2.7928460   2.6288670
 AtZNuc=   9.0000000   6.0000000   1.0000000   1.0000000   1.0000000   9.0000000
 No MM parameters found.
 Leave Link  101 at Wed Oct 21 14:21:16 2020, MaxMem=  2684354560 cpu:               9.9 elap:               1.1
 (Enter /udrive/faculty/rpeverati/g16/g16/l103.exe)

 GradGradGradGradGradGradGradGradGradGradGradGradGradGradGradGradGradGrad
 Berny optimization.
 Optmz: redundant internal coordinate code flag= 1
 Initialization pass.
                           ----------------------------
                           !    Initial Parameters    !
                           ! (Angstroms and Degrees)  !
 --------------------------                            --------------------------
 ! Name  Definition              Value          Derivative Info.                !
 --------------------------------------------------------------------------------
 ! R1    R(1,2)                  1.8234         estimate D2E/DX2                !
 ! R2    R(2,3)                  1.0696         estimate D2E/DX2                !
 ! R3    R(2,4)                  1.0696         estimate D2E/DX2                !
 ! R4    R(2,5)                  1.0696         estimate D2E/DX2                !
 ! R5    R(2,6)                  1.8241         estimate D2E/DX2                !
 ! A1    A(1,2,3)               90.001          estimate D2E/DX2                !
 ! A2    A(1,2,4)               89.9759         estimate D2E/DX2                !
 ! A3    A(1,2,5)               90.0326         estimate D2E/DX2                !
 ! A4    A(3,2,4)              120.0049         estimate D2E/DX2                !
 ! A5    A(3,2,5)              119.9518         estimate D2E/DX2                !
 ! A6    A(3,2,6)               89.9925         estimate D2E/DX2                !
 ! A7    A(4,2,5)              120.0433         estimate D2E/DX2                !
 ! A8    A(4,2,6)               89.9906         estimate D2E/DX2                !
 ! A9    A(5,2,6)               90.0075         estimate D2E/DX2                !
 ! A10   L(1,2,6,3,-1)         179.9934         estimate D2E/DX2                !
 ! A11   L(1,2,6,3,-2)         179.9574         estimate D2E/DX2                !
 ! D1    D(3,2,5,4)            179.9891         estimate D2E/DX2                !
 ! D2    D(3,2,6,4)            120.0049         estimate D2E/DX2                !
 ! D3    D(3,2,6,5)           -119.9518         estimate D2E/DX2                !
 ! D4    D(4,2,6,5)            120.0433         estimate D2E/DX2                !
 --------------------------------------------------------------------------------
 Maximum allowed force set to 1.00D+20.
 Trust Radius=1.00D-01 FncErr=1.00D-07 GrdErr=1.00D-07 EigMax=2.50D+02 EigMin=1.00D-04
 Number of steps in this run=     50 maximum allowed number of steps=    100.
 Search for a saddle point of order  1.
 GradGradGradGradGradGradGradGradGradGradGradGradGradGradGradGradGradGrad

 Leave Link  103 at Wed Oct 21 14:21:18 2020, MaxMem=  2684354560 cpu:               2.1 elap:               0.8
 (Enter /udrive/faculty/rpeverati/g16/g16/l202.exe)
                          Input orientation:                          
 ---------------------------------------------------------------------
 Center     Atomic      Atomic             Coordinates (Angstroms)
 Number     Number       Type             X           Y           Z
 ---------------------------------------------------------------------
      1          9           0        1.823651    0.000222    0.000077
      2          6           0        0.000236   -0.000387   -0.000214
      3          1           0        0.000156   -0.305186    1.025037
      4          1           0        0.000379    1.039881   -0.248964
      5          1           0       -0.000003   -0.736556   -0.776208
      6          9           0       -1.823867    0.000243    0.000081
 ---------------------------------------------------------------------
                    Distance matrix (angstroms):
                    1          2          3          4          5
     1  F    0.000000
     2  C    1.823415   0.000000
     3  H    2.113989   1.069599   0.000000
     4  H    2.113582   1.069595   1.852643   0.000000
     5  H    2.114515   1.069632   1.852178   1.853029   0.000000
     6  F    3.647518   1.824104   2.114447   2.114414   2.114705
                    6
     6  F    0.000000
 Stoichiometry    CH3F2(1-)
 Framework group  C1[X(CH3F2)]
 Deg. of freedom    12
 Full point group                 C1      NOp   1
 Largest Abelian subgroup         C1      NOp   1
 Largest concise Abelian subgroup C1      NOp   1
                         Standard orientation:                         
 ---------------------------------------------------------------------
 Center     Atomic      Atomic             Coordinates (Angstroms)
 Number     Number       Type             X           Y           Z
 ---------------------------------------------------------------------
      1          9           0        1.823651    0.000222    0.000077
      2          6           0        0.000236   -0.000387   -0.000214
      3          1           0        0.000156   -0.304327    1.025293
      4          1           0        0.000379    1.039672   -0.249835
      5          1           0       -0.000003   -0.737207   -0.775590
      6          9           0       -1.823867    0.000243    0.000081
 ---------------------------------------------------------------------
 Rotational constants (GHZ):         146.1033732           3.9448937           3.9448370
 Leave Link  202 at Wed Oct 21 14:21:19 2020, MaxMem=  2684354560 cpu:               2.1 elap:               0.8
 (Enter /udrive/faculty/rpeverati/g16/g16/l301.exe)
 Standard basis: VSTO-6G (5D, 7F)
 Ernie: Thresh=  0.10000D-02 Tol=  0.10000D-05 Strict=F.
  NNHCO=     0 NNPyr=     0 NCTC=     0               EPep=         0.000000000
    EC=        33.821036452  ECS=         0.479211792   EG=         0.125374638
   EHC=         0.000000000  EAt=       -37.685851594  AtH=         0.581626278
 EPDDG=         0.000000000  ECC=        34.425622882 EAtT=        38.267477872
 There are    15 symmetry adapted cartesian basis functions of A   symmetry.
 There are    15 symmetry adapted basis functions of A   symmetry.
    15 basis functions,    90 primitive gaussians,    15 cartesian basis functions
    11 alpha electrons       11 beta electrons
       nuclear repulsion energy        72.6931007541 Hartrees.
 IExCor=    0 DFT=F Ex=HF Corr=None ExCW=0 ScaHFX=  1.000000
 ScaDFX=  1.000000  1.000000  1.000000  1.000000 ScalE2=  1.000000  1.000000
 IRadAn=      5 IRanWt=     -1 IRanGd=            0 ICorTp=0 IEmpDi=  4
 Integral buffers will be    131072 words long.
 Regular integral format.
 Two-electron integral symmetry is turned off.
 Leave Link  301 at Wed Oct 21 14:21:20 2020, MaxMem=  2684354560 cpu:               3.1 elap:               0.8
 (Enter /udrive/faculty/rpeverati/g16/g16/l302.exe)
 Do NDO integrals.
 NPDir=0 NMtPBC=     1 NCelOv=     1 NCel=       1 NClECP=     1 NCelD=      1
         NCelK=      1 NCelE2=     1 NClLst=     1 CellRange=     0.0.
 One-electron integrals computed using PRISM.
 NBasis=    15 RedAO= F EigKep=  0.00D+00  NBF=    15
 NBsUse=    15 1.00D-04 EigRej=  0.00D+00 NBFU=    15
 Leave Link  302 at Wed Oct 21 14:21:21 2020, MaxMem=  2684354560 cpu:               4.2 elap:               1.0
 (Enter /udrive/faculty/rpeverati/g16/g16/l303.exe)
 DipDrv:  MaxL=1.
 Leave Link  303 at Wed Oct 21 14:21:22 2020, MaxMem=  2684354560 cpu:               2.7 elap:               0.8
 (Enter /udrive/faculty/rpeverati/g16/g16/l401.exe)
 SCF N**3 symmetry information disabled.
 Simple Huckel Guess.
 JPrj=0 DoOrth=F DoCkMO=F.
 Leave Link  401 at Wed Oct 21 14:21:23 2020, MaxMem=  2684354560 cpu:               2.0 elap:               0.7
 (Enter /udrive/faculty/rpeverati/g16/g16/l502.exe)
 Keep J ints in memory in canonical form, NReq=859737.
 FoFCou: FMM=F IPFlag=           0 FMFlag=           0 FMFlg1=           0
         NFxFlg=           0 DoJE=F BraDBF=F KetDBF=F FulRan=T
         wScrn=  0.000000 ICntrl=       600 IOpCl=  2 I1Cent=           0 NGrid=           0
         NMat0=    1 NMatS0=     33 NMatT0=    0 NMatD0=    1 NMtDS0=    0 NMtDT0=    0
 Symmetry not used in FoFCou.
 Two-electron integral symmetry not used.
 Closed shell SCF:
 Using DIIS extrapolation, IDIIS=  1040.
 Overlap will be assumed to be unity.
 NGot=  2684354560 LenX=  2684293520 LenY=  2684292638
 Requested convergence on RMS density matrix=1.00D-08 within 120 cycles.
 Requested convergence on MAX density matrix=1.00D-06.
 Requested convergence on             energy=1.00D-06.
 No special actions if energy rises.

 Cycle   1  Pass 1  IDiag  1:
 E=-0.249624203105725E-01
 DIIS: error= 2.72D-02 at cycle   1 NSaved=   1.
 NSaved= 1 IEnMin= 1 EnMin=-0.249624203105725E-01 IErMin= 1 ErrMin= 2.72D-02
 ErrMax= 2.72D-02  0.00D+00 EMaxC= 1.00D-01 BMatC= 1.34D-02 BMatP= 1.34D-02
 IDIUse=3 WtCom= 7.28D-01 WtEn= 2.72D-01
 Coeff-Com:  0.100D+01
 Coeff-En:   0.100D+01
 Coeff:      0.100D+01
 GapD=    2.000 DampG=2.000 DampE=0.500 DampFc=1.0000 IDamp=-1.
 RMSDP=1.36D-02 MaxDP=8.28D-02              OVMax= 0.00D+00

 Cycle   2  Pass 1  IDiag  1:
 E=-0.659939943899559E-01 Delta-E=       -0.041031574079 Rises=F Damp=F
 DIIS: error= 7.07D-03 at cycle   2 NSaved=   2.
 NSaved= 2 IEnMin= 2 EnMin=-0.659939943899559E-01 IErMin= 2 ErrMin= 7.07D-03
 ErrMax= 7.07D-03  0.00D+00 EMaxC= 1.00D-01 BMatC= 1.16D-03 BMatP= 1.34D-02
 IDIUse=3 WtCom= 9.29D-01 WtEn= 7.07D-02
 Coeff-Com: -0.367D+00 0.137D+01
 Coeff-En:   0.000D+00 0.100D+01
 Coeff:     -0.341D+00 0.134D+01
 RMSDP=6.20D-03 MaxDP=3.43D-02 DE=-4.10D-02 OVMax= 0.00D+00

 Cycle   3  Pass 1  IDiag  3:
 E=-0.708090075694656E-01 Delta-E=       -0.004815013180 Rises=F Damp=F
 DIIS: error= 1.44D-03 at cycle   3 NSaved=   3.
 NSaved= 3 IEnMin= 3 EnMin=-0.708090075694656E-01 IErMin= 3 ErrMin= 1.44D-03
 ErrMax= 1.44D-03  0.00D+00 EMaxC= 1.00D-01 BMatC= 3.60D-05 BMatP= 1.16D-03
 IDIUse=3 WtCom= 9.86D-01 WtEn= 1.44D-02
 Coeff-Com:  0.210D+00-0.832D+00 0.162D+01
 Coeff-En:   0.000D+00 0.000D+00 0.100D+01
 Coeff:      0.207D+00-0.820D+00 0.161D+01
 Gap=     0.401 Goal=   None    Shift=    0.000
 RMSDP=1.53D-03 MaxDP=7.94D-03 DE=-4.82D-03 OVMax= 1.22D-02

 Cycle   4  Pass 1  IDiag  3:
 E=-0.710228303785101E-01 Delta-E=       -0.000213822809 Rises=F Damp=F
 DIIS: error= 1.95D-04 at cycle   4 NSaved=   4.
 NSaved= 4 IEnMin= 4 EnMin=-0.710228303785101E-01 IErMin= 4 ErrMin= 1.95D-04
 ErrMax= 1.95D-04  0.00D+00 EMaxC= 1.00D-01 BMatC= 5.78D-07 BMatP= 3.60D-05
 IDIUse=3 WtCom= 9.98D-01 WtEn= 1.95D-03
 Coeff-Com: -0.458D-01 0.176D+00-0.437D+00 0.131D+01
 Coeff-En:   0.000D+00 0.000D+00 0.000D+00 0.100D+01
 Coeff:     -0.457D-01 0.175D+00-0.436D+00 0.131D+01
 Gap=     0.402 Goal=   None    Shift=    0.000
 RMSDP=2.02D-04 MaxDP=1.08D-03 DE=-2.14D-04 OVMax= 1.54D-03

 Cycle   5  Pass 1  IDiag  3:
 E=-0.710260011368717E-01 Delta-E=       -0.000003170758 Rises=F Damp=F
 DIIS: error= 2.88D-05 at cycle   5 NSaved=   5.
 NSaved= 5 IEnMin= 5 EnMin=-0.710260011368717E-01 IErMin= 5 ErrMin= 2.88D-05
 ErrMax= 2.88D-05  0.00D+00 EMaxC= 1.00D-01 BMatC= 1.73D-08 BMatP= 5.78D-07
 IDIUse=1 WtCom= 1.00D+00 WtEn= 0.00D+00
 Coeff-Com:  0.120D-01-0.436D-01 0.147D+00-0.644D+00 0.153D+01
 Coeff:      0.120D-01-0.436D-01 0.147D+00-0.644D+00 0.153D+01
 Gap=     0.402 Goal=   None    Shift=    0.000
 RMSDP=3.51D-05 MaxDP=2.17D-04 DE=-3.17D-06 OVMax= 2.63D-04

 Cycle   6  Pass 1  IDiag  3:
 E=-0.710260981574322E-01 Delta-E=       -0.000000097021 Rises=F Damp=F
 DIIS: error= 9.28D-06 at cycle   6 NSaved=   6.
 NSaved= 6 IEnMin= 6 EnMin=-0.710260981574322E-01 IErMin= 6 ErrMin= 9.28D-06
 ErrMax= 9.28D-06  0.00D+00 EMaxC= 1.00D-01 BMatC= 1.51D-09 BMatP= 1.73D-08
 IDIUse=1 WtCom= 1.00D+00 WtEn= 0.00D+00
 Coeff-Com:  0.101D-03-0.273D-02-0.267D-01 0.256D+00-0.930D+00 0.170D+01
 Coeff:      0.101D-03-0.273D-02-0.267D-01 0.256D+00-0.930D+00 0.170D+01
 Gap=     0.402 Goal=   None    Shift=    0.000
 RMSDP=1.17D-05 MaxDP=6.23D-05 DE=-9.70D-08 OVMax= 6.14D-05

 Cycle   7  Pass 1  IDiag  3:
 E=-0.710261074753191E-01 Delta-E=       -0.000000009318 Rises=F Damp=F
 DIIS: error= 6.04D-07 at cycle   7 NSaved=   7.
 NSaved= 7 IEnMin= 7 EnMin=-0.710261074753191E-01 IErMin= 7 ErrMin= 6.04D-07
 ErrMax= 6.04D-07  0.00D+00 EMaxC= 1.00D-01 BMatC= 1.75D-11 BMatP= 1.51D-09
 IDIUse=1 WtCom= 1.00D+00 WtEn= 0.00D+00
 Coeff-Com: -0.255D-03 0.234D-02 0.136D-01-0.141D+00 0.506D+00-0.946D+00
 Coeff-Com:  0.157D+01
 Coeff:     -0.255D-03 0.234D-02 0.136D-01-0.141D+00 0.506D+00-0.946D+00
 Coeff:      0.157D+01
 Gap=     0.402 Goal=   None    Shift=    0.000
 RMSDP=1.17D-06 MaxDP=5.31D-06 DE=-9.32D-09 OVMax= 7.25D-06

 Cycle   8  Pass 1  IDiag  3:
 E=-0.710261075557526E-01 Delta-E=       -0.000000000080 Rises=F Damp=F
 DIIS: error= 3.80D-07 at cycle   8 NSaved=   8.
 NSaved= 8 IEnMin= 8 EnMin=-0.710261075557526E-01 IErMin= 8 ErrMin= 3.80D-07
 ErrMax= 3.80D-07  0.00D+00 EMaxC= 1.00D-01 BMatC= 1.45D-12 BMatP= 1.75D-11
 IDIUse=1 WtCom= 1.00D+00 WtEn= 0.00D+00
 Coeff-Com:  0.114D-03-0.881D-03-0.408D-02 0.442D-01-0.154D+00 0.281D+00
 Coeff-Com: -0.504D+00 0.134D+01
 Coeff:      0.114D-03-0.881D-03-0.408D-02 0.442D-01-0.154D+00 0.281D+00
 Coeff:     -0.504D+00 0.134D+01
 Gap=     0.402 Goal=   None    Shift=    0.000
 RMSDP=3.77D-07 MaxDP=2.84D-06 DE=-8.04D-11 OVMax= 3.80D-06

 Cycle   9  Pass 1  IDiag  3:
 E=-0.710261075629148E-01 Delta-E=       -0.000000000007 Rises=F Damp=F
 DIIS: error= 1.05D-07 at cycle   9 NSaved=   9.
 NSaved= 9 IEnMin= 9 EnMin=-0.710261075629148E-01 IErMin= 9 ErrMin= 1.05D-07
 ErrMax= 1.05D-07  0.00D+00 EMaxC= 1.00D-01 BMatC= 1.16D-13 BMatP= 1.45D-12
 IDIUse=1 WtCom= 1.00D+00 WtEn= 0.00D+00
 Coeff-Com: -0.131D-04 0.114D-03 0.593D-03-0.603D-02 0.178D-01-0.282D-01
 Coeff-Com:  0.559D-01-0.393D+00 0.135D+01
 Coeff:     -0.131D-04 0.114D-03 0.593D-03-0.603D-02 0.178D-01-0.282D-01
 Coeff:      0.559D-01-0.393D+00 0.135D+01
 Gap=     0.402 Goal=   None    Shift=    0.000
 RMSDP=9.91D-08 MaxDP=7.09D-07 DE=-7.16D-12 OVMax= 9.70D-07

 Cycle  10  Pass 1  IDiag  3:
 E=-0.710261075634548E-01 Delta-E=       -0.000000000001 Rises=F Damp=F
 DIIS: error= 1.66D-08 at cycle  10 NSaved=  10.
 NSaved=10 IEnMin=10 EnMin=-0.710261075634548E-01 IErMin=10 ErrMin= 1.66D-08
 ErrMax= 1.66D-08  0.00D+00 EMaxC= 1.00D-01 BMatC= 3.36D-15 BMatP= 1.16D-13
 IDIUse=1 WtCom= 1.00D+00 WtEn= 0.00D+00
 Coeff-Com:  0.298D-05-0.304D-04-0.179D-03 0.171D-02-0.414D-02 0.505D-02
 Coeff-Com: -0.111D-01 0.134D+00-0.669D+00 0.154D+01
 Coeff:      0.298D-05-0.304D-04-0.179D-03 0.171D-02-0.414D-02 0.505D-02
 Coeff:     -0.111D-01 0.134D+00-0.669D+00 0.154D+01
 Gap=     0.402 Goal=   None    Shift=    0.000
 RMSDP=1.90D-08 MaxDP=1.27D-07 DE=-5.40D-13 OVMax= 1.71D-07

 Cycle  11  Pass 1  IDiag  3:
 E=-0.710261075633696E-01 Delta-E=        0.000000000000 Rises=F Damp=F
 DIIS: error= 5.30D-09 at cycle  11 NSaved=  11.
 NSaved=11 IEnMin=10 EnMin=-0.710261075634548E-01 IErMin=11 ErrMin= 5.30D-09
 ErrMax= 5.30D-09  0.00D+00 EMaxC= 1.00D-01 BMatC= 3.08D-16 BMatP= 3.36D-15
 IDIUse=1 WtCom= 1.00D+00 WtEn= 0.00D+00
 Coeff-Com:  0.209D-07-0.603D-06-0.115D-04 0.153D-03-0.120D-02 0.317D-02
 Coeff-Com: -0.475D-02-0.227D-01 0.214D+00-0.704D+00 0.152D+01
 Coeff:      0.209D-07-0.603D-06-0.115D-04 0.153D-03-0.120D-02 0.317D-02
 Coeff:     -0.475D-02-0.227D-01 0.214D+00-0.704D+00 0.152D+01
 Gap=     0.402 Goal=   None    Shift=    0.000
 RMSDP=4.36D-09 MaxDP=2.98D-08 DE= 8.53D-14 OVMax= 3.95D-08

 Cycle  12  Pass 2  IDiag  1:
 SCF Done:  E(RPM3) = -0.710261075634E-01 A.U. after   12 cycles
            NFock= 11  Conv=0.44D-08     -V/T= 0.9990
 KE=-6.873737012512D+01 PE=-6.916764645669D+01 EE= 6.514088972020D+01
 Leave Link  502 at Wed Oct 21 14:21:25 2020, MaxMem=  2684354560 cpu:               8.5 elap:               1.4
 (Enter /udrive/faculty/rpeverati/g16/g16/l508.exe)
 QCSCF skips out because SCF is already converged.
 Leave Link  508 at Wed Oct 21 14:21:26 2020, MaxMem=  2684354560 cpu:               0.8 elap:               0.6
 (Enter /udrive/faculty/rpeverati/g16/g16/l601.exe)
 Copying SCF densities to generalized density rwf, IOpCl= 0 IROHF=0.

 **********************************************************************

            Population analysis using the SCF density.

 **********************************************************************

 Orbital symmetries:
       Occupied  (A) (A) (A) (A) (A) (A) (A) (A) (A) (A) (A)
       Virtual   (A) (A) (A) (A)
 The electronic state is 1-A.
 Alpha  occ. eigenvalues --   -0.89563  -0.41048  -0.36949  -0.36825  -0.36812
 Alpha  occ. eigenvalues --   -0.30406  -0.24580  -0.24580  -0.22482  -0.22481
 Alpha  occ. eigenvalues --   -0.15435
 Alpha virt. eigenvalues --    0.24733   0.31352   0.35496   0.35504
          Condensed to atoms (all electrons):
               1          2          3          4          5          6
     1  F    7.690875   0.000000   0.000000   0.000000   0.000000   0.000000
     2  C    0.000000   3.717948   0.000000   0.000000   0.000000   0.000000
     3  H    0.000000   0.000000   0.966598   0.000000   0.000000   0.000000
     4  H    0.000000   0.000000   0.000000   0.966443   0.000000   0.000000
     5  H    0.000000   0.000000   0.000000   0.000000   0.966572   0.000000
     6  F    0.000000   0.000000   0.000000   0.000000   0.000000   7.691563
 Mulliken charges:
               1
     1  F   -0.690875
     2  C    0.282052
     3  H    0.033402
     4  H    0.033557
     5  H    0.033428
     6  F   -0.691563
 Sum of Mulliken charges =  -1.00000
 Mulliken charges with hydrogens summed into heavy atoms:
               1
     1  F   -0.690875
     2  C    0.382439
     6  F   -0.691563
 Charge=             -1.0000 electrons
 Dipole moment (field-independent basis, Debye):
    X=              0.0070    Y=             -0.0021    Z=             -0.0010  Tot=              0.0074
 N-N= 7.269310075405D+01 E-N=-6.916764649460D+01  KE=-6.873737012512D+01
 Leave Link  601 at Wed Oct 21 14:21:27 2020, MaxMem=  2684354560 cpu:               2.7 elap:               0.8
 (Enter /udrive/faculty/rpeverati/g16/g16/l701.exe)
 ... and contract with generalized density number  0.
 Compute integral first derivatives.
 Leave Link  701 at Wed Oct 21 14:21:28 2020, MaxMem=  2684354560 cpu:               3.8 elap:               0.9
 (Enter /udrive/faculty/rpeverati/g16/g16/l702.exe)
 L702 exits ... SP integral derivatives will be done elsewhere.
 Leave Link  702 at Wed Oct 21 14:21:29 2020, MaxMem=  2684354560 cpu:               2.4 elap:               0.7
 (Enter /udrive/faculty/rpeverati/g16/g16/l703.exe)
 Integral derivatives from FoFJK, PRISM(SPDF).
 Compute integral first derivatives, UseDBF=F ICtDFT=           0.
 Calling FoFJK, ICntrl=      2127 FMM=F ISym2X=0 I1Cent= 0 IOpClX= 0 NMat=1 NMatS=1 NMatT=0.
 FoFJK:  IHMeth= 9 ICntrl=    2127 DoSepK=F KAlg= 0 I1Cent=           0 FoldK=F
 IRaf=         0 NMat=       1 IRICut=       1 DoRegI=T DoRafI=F ISym2E= 0 IDoP0=3 IntGTp=3.
 FoFCou: FMM=F IPFlag=           0 FMFlag=      100000 FMFlg1=         800
         NFxFlg=           0 DoJE=F BraDBF=F KetDBF=F FulRan=T
         wScrn=  0.000000 ICntrl=      2127 IOpCl=  0 I1Cent=           0 NGrid=           0
         NMat0=    1 NMatS0=      1 NMatT0=    0 NMatD0=    1 NMtDS0=    0 NMtDT0=    0
 Symmetry not used in FoFCou.
 Leave Link  703 at Wed Oct 21 14:21:31 2020, MaxMem=  2684354560 cpu:               3.6 elap:               0.8
 (Enter /udrive/faculty/rpeverati/g16/g16/l716.exe)
 Dipole        = 2.76324899D-03-8.29653252D-04-3.73858267D-04
 ***** Axes restored to original set *****
 -------------------------------------------------------------------
 Center     Atomic                   Forces (Hartrees/Bohr)
 Number     Number              X              Y              Z
 -------------------------------------------------------------------
      1        9          -0.009784667   -0.000015981   -0.000010470
      2        6           0.000206511   -0.000026236    0.000048554
      3        1          -0.000015283   -0.002784009    0.009462825
      4        1          -0.000020209    0.009564050   -0.002316907
      5        1          -0.000011753   -0.006727772   -0.007174718
      6        9           0.009625401   -0.000010052   -0.000009285
 -------------------------------------------------------------------
 Cartesian Forces:  Max     0.009784667 RMS     0.005160262
 Leave Link  716 at Wed Oct 21 14:21:31 2020, MaxMem=  2684354560 cpu:               2.2 elap:               0.7
 (Enter /udrive/faculty/rpeverati/g16/g16/l103.exe)

 GradGradGradGradGradGradGradGradGradGradGradGradGradGradGradGradGradGrad
 Berny optimization.
 Optmz: redundant internal coordinate code flag= 1
 FormGI is forming the generalized inverse of G from B-inverse, IUseBI=4.
 Internal  Forces:  Max     0.009863823 RMS     0.004895216
 Search for a saddle point.
 Step number   1 out of a maximum of   50
 All quantities printed in internal units (Hartrees-Bohrs-Radians)
 Swapping is turned off.
 Second derivative matrix not updated -- first step.
 The second derivative matrix:
                          R1        R2        R3        R4        R5
           R1           0.13179
           R2           0.00000   0.37281
           R3           0.00000   0.00000   0.37281
           R4           0.00000   0.00000   0.00000   0.37277
           R5           0.00000   0.00000   0.00000   0.00000   0.13158
           A1           0.00000   0.00000   0.00000   0.00000   0.00000
           A2           0.00000   0.00000   0.00000   0.00000   0.00000
           A3           0.00000   0.00000   0.00000   0.00000   0.00000
           A4           0.00000   0.00000   0.00000   0.00000   0.00000
           A5           0.00000   0.00000   0.00000   0.00000   0.00000
           A6           0.00000   0.00000   0.00000   0.00000   0.00000
           A7           0.00000   0.00000   0.00000   0.00000   0.00000
           A8           0.00000   0.00000   0.00000   0.00000   0.00000
           A9           0.00000   0.00000   0.00000   0.00000   0.00000
           A10          0.00000   0.00000   0.00000   0.00000   0.00000
           A11          0.00000   0.00000   0.00000   0.00000   0.00000
           D1           0.00000   0.00000   0.00000   0.00000   0.00000
           D2           0.00000   0.00000   0.00000   0.00000   0.00000
           D3           0.00000   0.00000   0.00000   0.00000   0.00000
           D4           0.00000   0.00000   0.00000   0.00000   0.00000
                          A1        A2        A3        A4        A5
           A1           0.16000
           A2           0.00000   0.16000
           A3           0.00000   0.00000   0.16000
           A4           0.00000   0.00000   0.00000   0.16000
           A5           0.00000   0.00000   0.00000   0.00000   0.16000
           A6           0.00000   0.00000   0.00000   0.00000   0.00000
           A7           0.00000   0.00000   0.00000   0.00000   0.00000
           A8           0.00000   0.00000   0.00000   0.00000   0.00000
           A9           0.00000   0.00000   0.00000   0.00000   0.00000
           A10          0.00000   0.00000   0.00000   0.00000   0.00000
           A11          0.00000   0.00000   0.00000   0.00000   0.00000
           D1           0.00000   0.00000   0.00000   0.00000   0.00000
           D2           0.00000   0.00000   0.00000   0.00000   0.00000
           D3           0.00000   0.00000   0.00000   0.00000   0.00000
           D4           0.00000   0.00000   0.00000   0.00000   0.00000
                          A6        A7        A8        A9        A10
           A6           0.16000
           A7           0.00000   0.16000
           A8           0.00000   0.00000   0.16000
           A9           0.00000   0.00000   0.00000   0.16000
           A10          0.00000   0.00000   0.00000   0.00000   0.00230
           A11          0.00000   0.00000   0.00000   0.00000   0.00000
           D1           0.00000   0.00000   0.00000   0.00000   0.00000
           D2           0.00000   0.00000   0.00000   0.00000   0.00000
           D3           0.00000   0.00000   0.00000   0.00000   0.00000
           D4           0.00000   0.00000   0.00000   0.00000   0.00000
                          A11       D1        D2        D3        D4
           A11          0.00230
           D1           0.00000   0.00504
           D2           0.00000   0.00000   0.00230
           D3           0.00000   0.00000   0.00000   0.00230
           D4           0.00000   0.00000   0.00000   0.00000   0.00230
 ITU=  0
 Eigenvectors of the second derivative matrix:
                           1         2         3         4         5
     Eigenvalues --     0.05670   0.06987   0.06991   0.08115   0.08115
   1         R1         0.00000  -0.00000  -0.00000  -0.00000  -0.00000
   2         R2         0.00000  -0.00000   0.00000   0.00000   0.00000
   3         R3         0.00000   0.00000   0.00000  -0.00000  -0.00000
   4         R4        -0.00000   0.00000  -0.00000   0.00000   0.00000
   5         R5        -0.00000  -0.00000  -0.00000  -0.00000  -0.00000
   6         A1         0.23561  -0.36015  -0.11479   0.00004  -0.00002
   7         A2         0.23582   0.08067   0.36922   0.00010  -0.00055
   8         A3         0.23570   0.27930  -0.25466   0.00014   0.00035
   9         A4        -0.00012   0.00003  -0.00055   0.21524  -0.53573
  10         A5         0.00004   0.00011   0.00008  -0.57158   0.08146
  11         A6        -0.23561  -0.36015  -0.11479  -0.00012   0.00010
  12         A7        -0.00006  -0.00013   0.00047   0.35633   0.45427
  13         A8        -0.23582   0.08067   0.36922   0.00001  -0.00041
  14         A9        -0.23570   0.27930  -0.25466   0.00009   0.00026
  15         A10       -0.00000  -0.72030  -0.22959  -0.00008   0.00008
  16         A11       -0.00000  -0.22964   0.72013  -0.00003  -0.00077
  17         D1        -0.81648   0.00000  -0.00000  -0.00005  -0.00002
  18         D2         0.00000   0.00010  -0.00061   0.21524  -0.53573
  19         D3        -0.00004  -0.00006  -0.00009   0.57158  -0.08146
  20         D4        -0.00005  -0.00016   0.00052   0.35633   0.45427
                           6         7         8         9        10
     Eigenvalues --     0.13158   0.13179   0.16000   0.16000   0.37277
   1         R1        -0.00000  -1.00000   0.00000   0.00000   0.00000
   2         R2         0.00000  -0.00000  -0.00000   0.00000  -0.00000
   3         R3         0.00000  -0.00000   0.00000  -0.00000   0.00000
   4         R4         0.00000  -0.00000  -0.00000   0.00000  -1.00000
   5         R5        -1.00000   0.00000   0.00000   0.00000   0.00000
   6         A1        -0.00000  -0.00000  -0.09474  -0.56965  -0.00000
   7         A2         0.00000   0.00000  -0.44574   0.36672   0.00000
   8         A3         0.00000   0.00000   0.54068   0.20251   0.00000
   9         A4         0.00000   0.00000   0.00014   0.00006   0.00000
  10         A5         0.00000   0.00000  -0.00005  -0.00006  -0.00000
  11         A6         0.00000   0.00000   0.09474   0.56965   0.00000
  12         A7        -0.00000  -0.00000  -0.00009  -0.00000  -0.00000
  13         A8        -0.00000  -0.00000   0.44574  -0.36672  -0.00000
  14         A9        -0.00000  -0.00000  -0.54068  -0.20251   0.00000
  15         A10        0.00000   0.00000   0.00000   0.00000  -0.00000
  16         A11       -0.00000   0.00000  -0.00000  -0.00000  -0.00000
  17         D1         0.00000  -0.00000   0.00000  -0.00000   0.00000
  18         D2         0.00000   0.00000   0.00000   0.00000   0.00000
  19         D3        -0.00000  -0.00000   0.00000  -0.00000   0.00000
  20         D4        -0.00000  -0.00000  -0.00000  -0.00000  -0.00000
                          11        12
     Eigenvalues --     0.37281   0.37281
   1         R1        -0.00000  -0.00000
   2         R2        -1.00000  -0.00000
   3         R3        -0.00000   1.00000
   4         R4         0.00000   0.00000
   5         R5        -0.00000   0.00000
   6         A1        -0.00000  -0.00000
   7         A2         0.00000   0.00000
   8         A3        -0.00000   0.00000
   9         A4        -0.00000   0.00000
  10         A5         0.00000  -0.00000
  11         A6         0.00000   0.00000
  12         A7         0.00000   0.00000
  13         A8        -0.00000  -0.00000
  14         A9        -0.00000   0.00000
  15         A10       -0.00000   0.00000
  16         A11        0.00000  -0.00000
  17         D1        -0.00000   0.00000
  18         D2        -0.00000  -0.00000
  19         D3         0.00000   0.00000
  20         D4         0.00000   0.00000
 Eigenvalue     1 is   5.67D-02 should be less than     0.000000 Eigenvector:
                          D1        A8        A2        A3        A9
   1                   -0.81648  -0.23582   0.23582   0.23570  -0.23570
                          A6        A1        A4        A7        D4
   1                   -0.23561   0.23561  -0.00012  -0.00006  -0.00005
 RLam0= 5.67D-02.
 Iter=   1 RLamda= 0.00000000D+00 Sum=-2.21087024D-03.
 Iter=   2 RLamda=-2.21087024D-03 Sum=-2.18264763D-03.
 Iter=   3 RLamda=-2.18264763D-03 Sum=-2.18300264D-03.
 Iter=   4 RLamda=-2.18300264D-03 Sum=-2.18299818D-03.
 RFO step:  Lambda0=5.669847123D-02 Lambda=-2.18300264D-03.
 Linear search not attempted -- option 19 set.
 Maximum step size (   0.100) exceeded in Quadratic search.
    -- Step size scaled by   0.770
 Iteration  1 RMS(Cart)=  0.02240269 RMS(Int)=  0.00037430
 Iteration  2 RMS(Cart)=  0.00019793 RMS(Int)=  0.00027814
 Iteration  3 RMS(Cart)=  0.00000007 RMS(Int)=  0.00027814
 ITry= 1 IFail=0 DXMaxC= 7.69D-02 DCOld= 1.00D+10 DXMaxT= 1.00D-01 DXLimC= 3.00D+00 Rises=F
 Variable       Old X    -DE/DX   Delta X   Delta X   Delta X     New X
                                 (Linear)    (Quad)   (Total)
    R1        3.44575  -0.00978   0.00000  -0.05625  -0.05625   3.38951
    R2        2.02125   0.00986   0.00000   0.02026   0.02026   2.04151
    R3        2.02124   0.00984   0.00000   0.02021   0.02021   2.04145
    R4        2.02131   0.00984   0.00000   0.02020   0.02020   2.04151
    R5        3.44706  -0.00963   0.00000  -0.05542  -0.05542   3.39163
    A1        1.57081   0.00001   0.00000  -0.02030  -0.02030   1.55051
    A2        1.57037   0.00002   0.00000  -0.02026  -0.02026   1.55011
    A3        1.57137  -0.00001   0.00000  -0.02052  -0.02052   1.55084
    A4        2.09448   0.00000   0.00000   0.00001  -0.00071   2.09377
    A5        2.09355   0.00003   0.00000   0.00026  -0.00045   2.09310
    A6        1.57066   0.00000   0.00000   0.02041   0.02041   1.59107
    A7        2.09515  -0.00003   0.00000  -0.00026  -0.00098   2.09417
    A8        1.57063  -0.00000   0.00000   0.02042   0.02042   1.59105
    A9        1.57093  -0.00001   0.00000   0.02025   0.02025   1.59118
   A10        3.14148   0.00001   0.00000   0.00011   0.00011   3.14159
   A11        3.14085   0.00002   0.00000   0.00025   0.00025   3.14110
    D1        3.14140  -0.00002   0.00000   0.07053   0.07049  -3.07129
    D2        2.09448   0.00000   0.00000   0.00000   0.00000   2.09449
    D3       -2.09355  -0.00003   0.00000  -0.00026  -0.00026  -2.09381
    D4        2.09515  -0.00003   0.00000  -0.00026  -0.00026   2.09489
         Item               Value     Threshold  Converged?
 Maximum Force            0.009864     0.000450     NO 
 RMS     Force            0.004895     0.000300     NO 
 Maximum Displacement     0.076890     0.001800     NO 
 RMS     Displacement     0.022402     0.001200     NO 
 Predicted change in Energy=-8.284758D-04
 Lowest energy point so far.  Saving SCF results.
 Largest change from initial coordinates is atom    1       0.018 Angstoms.
 GradGradGradGradGradGradGradGradGradGradGradGradGradGradGradGradGradGrad

 Leave Link  103 at Wed Oct 21 14:21:33 2020, MaxMem=  2684354560 cpu:               3.9 elap:               0.9
 (Enter /udrive/faculty/rpeverati/g16/g16/l202.exe)
                          Input orientation:                          
 ---------------------------------------------------------------------
 Center     Atomic      Atomic             Coordinates (Angstroms)
 Number     Number       Type             X           Y           Z
 ---------------------------------------------------------------------
      1          9           0        1.782962    0.000050   -0.000008
      2          6           0       -0.010688   -0.000352   -0.000132
      3          1           0        0.011220   -0.308060    1.035207
      4          1           0        0.011435    1.050074   -0.251414
      5          1           0        0.011085   -0.743593   -0.783850
      6          9           0       -1.805464    0.000098    0.000006
 ---------------------------------------------------------------------
                    Distance matrix (angstroms):
                    1          2          3          4          5
     1  F    0.000000
     2  C    1.793650   0.000000
     3  H    2.075011   1.080320   0.000000
     4  H    2.074623   1.080290   1.870808   0.000000
     5  H    2.075322   1.080322   1.870470   1.871024   0.000000
     6  F    3.588426   1.794776   2.113514   2.113477   2.113613
                    6
     6  F    0.000000
 Stoichiometry    CH3F2(1-)
 Framework group  C1[X(CH3F2)]
 Deg. of freedom    12
 Full point group                 C1      NOp   1
 RotChk:  IX=0 Diff= 5.14D-02
 Largest Abelian subgroup         C1      NOp   1
 Largest concise Abelian subgroup C1      NOp   1
                         Standard orientation:                         
 ---------------------------------------------------------------------
 Center     Atomic      Atomic             Coordinates (Angstroms)
 Number     Number       Type             X           Y           Z
 ---------------------------------------------------------------------
      1          9           0        1.791588    0.000152    0.000035
      2          6           0       -0.002062   -0.000261   -0.000109
      3          1           0        0.019845   -0.344567    1.023641
      4          1           0        0.020053    1.058431   -0.213904
      5          1           0        0.019720   -0.715182   -0.809745
      6          9           0       -1.796838    0.000169    0.000039
 ---------------------------------------------------------------------
 Rotational constants (GHZ):         143.2821850           4.0728874           4.0728474
 Leave Link  202 at Wed Oct 21 14:21:34 2020, MaxMem=  2684354560 cpu:               2.0 elap:               0.8
 (Enter /udrive/faculty/rpeverati/g16/g16/l301.exe)
 Standard basis: VSTO-6G (5D, 7F)
 Ernie: Thresh=  0.10000D-02 Tol=  0.10000D-05 Strict=F.
  NNHCO=     0 NNPyr=     0 NCTC=     0               EPep=         0.000000000
    EC=        34.099109125  ECS=         0.480540415   EG=         0.130156192
   EHC=         0.000000000  EAt=       -37.685851594  AtH=         0.581626278
 EPDDG=         0.000000000  ECC=        34.709805732 EAtT=        38.267477872
 There are    15 symmetry adapted cartesian basis functions of A   symmetry.
 There are    15 symmetry adapted basis functions of A   symmetry.
    15 basis functions,    90 primitive gaussians,    15 cartesian basis functions
    11 alpha electrons       11 beta electrons
       nuclear repulsion energy        72.9772836040 Hartrees.
 IExCor=    0 DFT=F Ex=HF Corr=None ExCW=0 ScaHFX=  1.000000
 ScaDFX=  1.000000  1.000000  1.000000  1.000000 ScalE2=  1.000000  1.000000
 IRadAn=      5 IRanWt=     -1 IRanGd=            0 ICorTp=0 IEmpDi=  4
 Integral buffers will be    131072 words long.
 Regular integral format.
 Two-electron integral symmetry is turned off.
 Leave Link  301 at Wed Oct 21 14:21:35 2020, MaxMem=  2684354560 cpu:               4.7 elap:               1.1
 (Enter /udrive/faculty/rpeverati/g16/g16/l302.exe)
 Do NDO integrals.
 NPDir=0 NMtPBC=     1 NCelOv=     1 NCel=       1 NClECP=     1 NCelD=      1
         NCelK=      1 NCelE2=     1 NClLst=     1 CellRange=     0.0.
 One-electron integrals computed using PRISM.
 NBasis=    15 RedAO= F EigKep=  0.00D+00  NBF=    15
 NBsUse=    15 1.00D-04 EigRej=  0.00D+00 NBFU=    15
 Leave Link  302 at Wed Oct 21 14:21:36 2020, MaxMem=  2684354560 cpu:               3.7 elap:               1.0
 (Enter /udrive/faculty/rpeverati/g16/g16/l303.exe)
 DipDrv:  MaxL=1.
 Leave Link  303 at Wed Oct 21 14:21:38 2020, MaxMem=  2684354560 cpu:               2.9 elap:               0.9
 (Enter /udrive/faculty/rpeverati/g16/g16/l401.exe)
 Initial guess from the checkpoint file:  "MN_39_fch3fts_BH76_PM3_SE.chk"
 SCF N**3 symmetry information disabled.
 B after Tr=    -0.000000    0.000000    0.000000
         Rot=    0.999835   -0.018190    0.000000   -0.000001 Ang=  -2.08 deg.
 Guess basis will be translated and rotated to current coordinates.
 JPrj=0 DoOrth=T DoCkMO=T.
 Leave Link  401 at Wed Oct 21 14:21:39 2020, MaxMem=  2684354560 cpu:               3.2 elap:               0.9
 (Enter /udrive/faculty/rpeverati/g16/g16/l502.exe)
 Keep J ints in memory in canonical form, NReq=859737.
 FoFCou: FMM=F IPFlag=           0 FMFlag=           0 FMFlg1=           0
         NFxFlg=           0 DoJE=F BraDBF=F KetDBF=F FulRan=T
         wScrn=  0.000000 ICntrl=       600 IOpCl=  2 I1Cent=           0 NGrid=           0
         NMat0=    1 NMatS0=     33 NMatT0=    0 NMatD0=    1 NMtDS0=    0 NMtDT0=    0
 Symmetry not used in FoFCou.
 Two-electron integral symmetry not used.
 Closed shell SCF:
 Using DIIS extrapolation, IDIIS=  1040.
 Overlap will be assumed to be unity.
 NGot=  2684354560 LenX=  2684293520 LenY=  2684292638
 Requested convergence on RMS density matrix=1.00D-08 within 120 cycles.
 Requested convergence on MAX density matrix=1.00D-06.
 Requested convergence on             energy=1.00D-06.
 No special actions if energy rises.

 Cycle   1  Pass 1  IDiag  1:
 E=-0.721429495754222E-01
 DIIS: error= 1.36D-03 at cycle   1 NSaved=   1.
 NSaved= 1 IEnMin= 1 EnMin=-0.721429495754222E-01 IErMin= 1 ErrMin= 1.36D-03
 ErrMax= 1.36D-03  0.00D+00 EMaxC= 1.00D-01 BMatC= 5.29D-05 BMatP= 5.29D-05
 IDIUse=3 WtCom= 9.86D-01 WtEn= 1.36D-02
 Coeff-Com:  0.100D+01
 Coeff-En:   0.100D+01
 Coeff:      0.100D+01
 GapD=    2.000 DampG=2.000 DampE=1.000 DampFc=2.0000 IDamp=-1.
 RMSDP=1.02D-03 MaxDP=4.65D-03              OVMax= 0.00D+00

 Cycle   2  Pass 1  IDiag  3:
 E=-0.723540618194107E-01 Delta-E=       -0.000211112244 Rises=F Damp=F
 DIIS: error= 4.80D-04 at cycle   2 NSaved=   2.
 NSaved= 2 IEnMin= 2 EnMin=-0.723540618194107E-01 IErMin= 2 ErrMin= 4.80D-04
 ErrMax= 4.80D-04  0.00D+00 EMaxC= 1.00D-01 BMatC= 7.29D-06 BMatP= 5.29D-05
 IDIUse=3 WtCom= 9.95D-01 WtEn= 4.80D-03
 Coeff-Com: -0.530D+00 0.153D+01
 Coeff-En:   0.000D+00 0.100D+01
 Coeff:     -0.527D+00 0.153D+01
 Gap=     0.410 Goal=   None    Shift=    0.000
 RMSDP=6.26D-04 MaxDP=3.02D-03 DE=-2.11D-04 OVMax= 3.36D-03

 Cycle   3  Pass 1  IDiag  3:
 E=-0.723928284903224E-01 Delta-E=       -0.000038766671 Rises=F Damp=F
 DIIS: error= 7.17D-05 at cycle   3 NSaved=   3.
 NSaved= 3 IEnMin= 3 EnMin=-0.723928284903224E-01 IErMin= 3 ErrMin= 7.17D-05
 ErrMax= 7.17D-05  0.00D+00 EMaxC= 1.00D-01 BMatC= 1.68D-07 BMatP= 7.29D-06
 IDIUse=1 WtCom= 1.00D+00 WtEn= 0.00D+00
 Coeff-Com:  0.271D+00-0.844D+00 0.157D+01
 Coeff:      0.271D+00-0.844D+00 0.157D+01
 Gap=     0.410 Goal=   None    Shift=    0.000
 RMSDP=1.20D-04 MaxDP=5.37D-04 DE=-3.88D-05 OVMax= 8.98D-04

 Cycle   4  Pass 1  IDiag  3:
 E=-0.723939197495014E-01 Delta-E=       -0.000001091259 Rises=F Damp=F
 DIIS: error= 1.23D-05 at cycle   4 NSaved=   4.
 NSaved= 4 IEnMin= 4 EnMin=-0.723939197495014E-01 IErMin= 4 ErrMin= 1.23D-05
 ErrMax= 1.23D-05  0.00D+00 EMaxC= 1.00D-01 BMatC= 4.70D-09 BMatP= 1.68D-07
 IDIUse=1 WtCom= 1.00D+00 WtEn= 0.00D+00
 Coeff-Com: -0.169D+00 0.529D+00-0.104D+01 0.168D+01
 Coeff:     -0.169D+00 0.529D+00-0.104D+01 0.168D+01
 Gap=     0.410 Goal=   None    Shift=    0.000
 RMSDP=2.14D-05 MaxDP=8.78D-05 DE=-1.09D-06 OVMax= 1.92D-04

 Cycle   5  Pass 1  IDiag  3:
 E=-0.723939553856638E-01 Delta-E=       -0.000000035636 Rises=F Damp=F
 DIIS: error= 3.48D-06 at cycle   5 NSaved=   5.
 NSaved= 5 IEnMin= 5 EnMin=-0.723939553856638E-01 IErMin= 5 ErrMin= 3.48D-06
 ErrMax= 3.48D-06  0.00D+00 EMaxC= 1.00D-01 BMatC= 2.56D-10 BMatP= 4.70D-09
 IDIUse=1 WtCom= 1.00D+00 WtEn= 0.00D+00
 Coeff-Com:  0.396D-01-0.123D+00 0.246D+00-0.597D+00 0.143D+01
 Coeff:      0.396D-01-0.123D+00 0.246D+00-0.597D+00 0.143D+01
 Gap=     0.410 Goal=   None    Shift=    0.000
 RMSDP=4.98D-06 MaxDP=2.33D-05 DE=-3.56D-08 OVMax= 3.54D-05

 Cycle   6  Pass 1  IDiag  3:
 E=-0.723939571220313E-01 Delta-E=       -0.000000001736 Rises=F Damp=F
 DIIS: error= 5.70D-07 at cycle   6 NSaved=   6.
 NSaved= 6 IEnMin= 6 EnMin=-0.723939571220313E-01 IErMin= 6 ErrMin= 5.70D-07
 ErrMax= 5.70D-07  0.00D+00 EMaxC= 1.00D-01 BMatC= 9.21D-12 BMatP= 2.56D-10
 IDIUse=1 WtCom= 1.00D+00 WtEn= 0.00D+00
 Coeff-Com: -0.153D-01 0.467D-01-0.955D-01 0.281D+00-0.855D+00 0.164D+01
 Coeff:     -0.153D-01 0.467D-01-0.955D-01 0.281D+00-0.855D+00 0.164D+01
 Gap=     0.410 Goal=   None    Shift=    0.000
 RMSDP=8.70D-07 MaxDP=4.50D-06 DE=-1.74D-09 OVMax= 0.00D+00

 Cycle   7  Pass 1  IDiag  3:
 E=-0.723939571777095E-01 Delta-E=       -0.000000000056 Rises=F Damp=F
 DIIS: error= 1.27D-07 at cycle   7 NSaved=   7.
 NSaved= 7 IEnMin= 7 EnMin=-0.723939571777095E-01 IErMin= 7 ErrMin= 1.27D-07
 ErrMax= 1.27D-07  0.00D+00 EMaxC= 1.00D-01 BMatC= 3.04D-13 BMatP= 9.21D-12
 IDIUse=1 WtCom= 1.00D+00 WtEn= 0.00D+00
 Coeff-Com:  0.439D-02-0.131D-01 0.279D-01-0.108D+00 0.394D+00-0.860D+00
 Coeff-Com:  0.156D+01
 Coeff:      0.439D-02-0.131D-01 0.279D-01-0.108D+00 0.394D+00-0.860D+00
 Coeff:      0.156D+01
 Gap=     0.410 Goal=   None    Shift=    0.000
 RMSDP=1.70D-07 MaxDP=7.12D-07 DE=-5.57D-11 OVMax= 1.16D-06

 Cycle   8  Pass 1  IDiag  3:
 E=-0.723939571795853E-01 Delta-E=       -0.000000000002 Rises=F Damp=F
 DIIS: error= 2.93D-08 at cycle   8 NSaved=   8.
 NSaved= 8 IEnMin= 8 EnMin=-0.723939571795853E-01 IErMin= 8 ErrMin= 2.93D-08
 ErrMax= 2.93D-08  0.00D+00 EMaxC= 1.00D-01 BMatC= 1.40D-14 BMatP= 3.04D-13
 IDIUse=1 WtCom= 1.00D+00 WtEn= 0.00D+00
 Coeff-Com: -0.911D-03 0.261D-02-0.596D-02 0.318D-01-0.131D+00 0.292D+00
 Coeff-Com: -0.548D+00 0.136D+01
 Coeff:     -0.911D-03 0.261D-02-0.596D-02 0.318D-01-0.131D+00 0.292D+00
 Coeff:     -0.548D+00 0.136D+01
 Gap=     0.410 Goal=   None    Shift=    0.000
 RMSDP=3.53D-08 MaxDP=1.58D-07 DE=-1.88D-12 OVMax= 2.42D-07

 Cycle   9  Pass 1  IDiag  3:
 E=-0.723939571796279E-01 Delta-E=       -0.000000000000 Rises=F Damp=F
 DIIS: error= 6.46D-09 at cycle   9 NSaved=   9.
 NSaved= 9 IEnMin= 9 EnMin=-0.723939571796279E-01 IErMin= 9 ErrMin= 6.46D-09
 ErrMax= 6.46D-09  0.00D+00 EMaxC= 1.00D-01 BMatC= 9.15D-16 BMatP= 1.40D-14
 IDIUse=1 WtCom= 1.00D+00 WtEn= 0.00D+00
 Coeff-Com:  0.263D-04-0.948D-05 0.272D-03-0.638D-02 0.327D-01-0.740D-01
 Coeff-Com:  0.127D+00-0.576D+00 0.150D+01
 Coeff:      0.263D-04-0.948D-05 0.272D-03-0.638D-02 0.327D-01-0.740D-01
 Coeff:      0.127D+00-0.576D+00 0.150D+01
 Gap=     0.410 Goal=   None    Shift=    0.000
 RMSDP=1.02D-08 MaxDP=4.59D-08 DE=-4.26D-14 OVMax= 6.19D-08

 Cycle  10  Pass 1  IDiag  3:
 E=-0.723939571796421E-01 Delta-E=       -0.000000000000 Rises=F Damp=F
 DIIS: error= 1.12D-09 at cycle  10 NSaved=  10.
 NSaved=10 IEnMin=10 EnMin=-0.723939571796421E-01 IErMin=10 ErrMin= 1.12D-09
 ErrMax= 1.12D-09  0.00D+00 EMaxC= 1.00D-01 BMatC= 2.80D-17 BMatP= 9.15D-16
 IDIUse=1 WtCom= 1.00D+00 WtEn= 0.00D+00
 Coeff-Com:  0.417D-04-0.177D-03 0.184D-03 0.336D-02-0.194D-01 0.446D-01
 Coeff-Com: -0.746D-01 0.403D+00-0.121D+01 0.186D+01
 Coeff:      0.417D-04-0.177D-03 0.184D-03 0.336D-02-0.194D-01 0.446D-01
 Coeff:     -0.746D-01 0.403D+00-0.121D+01 0.186D+01
 Gap=     0.410 Goal=   None    Shift=    0.000
 RMSDP=1.96D-09 MaxDP=1.05D-08 DE=-1.42D-14 OVMax= 1.49D-08

 Cycle  11  Pass 2  IDiag  1:
 SCF Done:  E(RPM3) = -0.723939571796E-01 A.U. after   11 cycles
            NFock= 10  Conv=0.20D-08     -V/T= 0.9989
 KE=-6.870152323686D+01 PE=-6.977419266270D+01 EE= 6.542603833840D+01
 Leave Link  502 at Wed Oct 21 14:21:41 2020, MaxMem=  2684354560 cpu:               7.3 elap:               1.3
 (Enter /udrive/faculty/rpeverati/g16/g16/l508.exe)
 QCSCF skips out because SCF is already converged.
 Leave Link  508 at Wed Oct 21 14:21:42 2020, MaxMem=  2684354560 cpu:               0.6 elap:               0.7
 (Enter /udrive/faculty/rpeverati/g16/g16/l701.exe)
 ... and contract with generalized density number  0.
 Compute integral first derivatives.
 Leave Link  701 at Wed Oct 21 14:21:43 2020, MaxMem=  2684354560 cpu:               4.3 elap:               0.9
 (Enter /udrive/faculty/rpeverati/g16/g16/l702.exe)
 L702 exits ... SP integral derivatives will be done elsewhere.
 Leave Link  702 at Wed Oct 21 14:21:44 2020, MaxMem=  2684354560 cpu:               2.2 elap:               0.8
 (Enter /udrive/faculty/rpeverati/g16/g16/l703.exe)
 Integral derivatives from FoFJK, PRISM(SPDF).
 Compute integral first derivatives, UseDBF=F ICtDFT=           0.
 Calling FoFJK, ICntrl=      2127 FMM=F ISym2X=0 I1Cent= 0 IOpClX= 0 NMat=1 NMatS=1 NMatT=0.
 FoFJK:  IHMeth= 9 ICntrl=    2127 DoSepK=F KAlg= 0 I1Cent=           0 FoldK=F
 IRaf=         0 NMat=       1 IRICut=       1 DoRegI=T DoRafI=F ISym2E= 0 IDoP0=3 IntGTp=3.
 FoFCou: FMM=F IPFlag=           0 FMFlag=      100000 FMFlg1=         800
         NFxFlg=           0 DoJE=F BraDBF=F KetDBF=F FulRan=T
         wScrn=  0.000000 ICntrl=      2127 IOpCl=  0 I1Cent=           0 NGrid=           0
         NMat0=    1 NMatS0=      1 NMatT0=    0 NMatD0=    1 NMtDS0=    0 NMtDT0=    0
 Symmetry not used in FoFCou.
 Leave Link  703 at Wed Oct 21 14:21:45 2020, MaxMem=  2684354560 cpu:               3.4 elap:               1.0
 (Enter /udrive/faculty/rpeverati/g16/g16/l716.exe)
 Dipole        =-1.42651775D-02-5.53970666D-04-1.82351088D-04
 ***** Axes restored to original set *****
 -------------------------------------------------------------------
 Center     Atomic                   Forces (Hartrees/Bohr)
 Number     Number              X              Y              Z
 -------------------------------------------------------------------
      1        9          -0.007568447   -0.000010153   -0.000004997
      2        6          -0.000717697   -0.000029031    0.000041016
      3        1          -0.000779037   -0.000729312    0.002522702
      4        1          -0.000782938    0.002553415   -0.000627309
      5        1          -0.000776667   -0.001777844   -0.001926449
      6        9           0.010624786   -0.000007075   -0.000004963
 -------------------------------------------------------------------
 Cartesian Forces:  Max     0.010624786 RMS     0.003276089
 Leave Link  716 at Wed Oct 21 14:21:46 2020, MaxMem=  2684354560 cpu:               2.1 elap:               0.9
 (Enter /udrive/faculty/rpeverati/g16/g16/l103.exe)

 GradGradGradGradGradGradGradGradGradGradGradGradGradGradGradGradGradGrad
 Berny optimization.
 Optmz: redundant internal coordinate code flag= 1
 Red2BG:  D1=  4.11D-01 OD1=  8.80D-02 B2RMS=  0.00D+00 IAprox=0
 FormGI is forming the generalized inverse of G from B-inverse, IUseBI=4.
 Internal  Forces:  Max     0.010624788 RMS     0.003098700
 Search for a saddle point.
 Step number   2 out of a maximum of   50
 All quantities printed in internal units (Hartrees-Bohrs-Radians)
 Swapping is turned off.
 Update second derivatives using D2CorX and points    1    2
 The second derivative matrix:
                          R1        R2        R3        R4        R5
           R1           0.10755
           R2           0.00197   0.37333
           R3           0.00200   0.00051   0.37331
           R4           0.00197   0.00051   0.00051   0.37328
           R5          -0.03752   0.00441   0.00445   0.00441   0.07626
           A1          -0.01346   0.00157   0.00158   0.00157  -0.01989
           A2          -0.01344   0.00156   0.00158   0.00156  -0.01985
           A3          -0.01358   0.00158   0.00159   0.00158  -0.02006
           A4          -0.00049   0.00006   0.00006   0.00006  -0.00072
           A5          -0.00026   0.00003   0.00003   0.00003  -0.00039
           A6           0.01352  -0.00157  -0.00159  -0.00157   0.01997
           A7          -0.00054   0.00006   0.00006   0.00006  -0.00082
           A8           0.01354  -0.00157  -0.00159  -0.00157   0.02000
           A9           0.01343  -0.00156  -0.00158  -0.00156   0.01983
           A10         -0.00002   0.00001   0.00001   0.00001  -0.00002
           A11         -0.00003   0.00002   0.00002   0.00002  -0.00001
           D1          -0.00023   0.00308   0.00306   0.00307   0.00583
           D2          -0.00006   0.00001   0.00001   0.00001  -0.00008
           D3           0.00000  -0.00001  -0.00001  -0.00001  -0.00002
           D4           0.00007  -0.00002  -0.00002  -0.00002   0.00007
                          A1        A2        A3        A4        A5
           A1           0.15285
           A2          -0.00714   0.15287
           A3          -0.00721  -0.00720   0.15273
           A4          -0.00026  -0.00026  -0.00026   0.15999
           A5          -0.00014  -0.00014  -0.00014  -0.00001   0.16000
           A6           0.00718   0.00717   0.00724   0.00026   0.00014
           A7          -0.00029  -0.00029  -0.00030  -0.00001  -0.00001
           A8           0.00719   0.00718   0.00725   0.00026   0.00014
           A9           0.00713   0.00712   0.00719   0.00026   0.00014
           A10         -0.00001  -0.00001  -0.00001  -0.00000  -0.00000
           A11         -0.00000  -0.00000  -0.00000  -0.00000  -0.00000
           D1           0.00201   0.00201   0.00202   0.00008   0.00003
           D2          -0.00003  -0.00003  -0.00003  -0.00000  -0.00000
           D3          -0.00001  -0.00001  -0.00001  -0.00000  -0.00000
           D4           0.00002   0.00002   0.00002   0.00000   0.00000
                          A6        A7        A8        A9        A10
           A6           0.15279
           A7           0.00029   0.15999
           A8          -0.00722   0.00029   0.15277
           A9          -0.00716   0.00029  -0.00717   0.15289
           A10          0.00001  -0.00000   0.00001   0.00001   0.00230
           A11          0.00000  -0.00000   0.00000   0.00000   0.00000
           D1          -0.00201   0.00005  -0.00202  -0.00200   0.00003
           D2           0.00003  -0.00000   0.00003   0.00003   0.00000
           D3           0.00001  -0.00000   0.00001   0.00001  -0.00000
           D4          -0.00002   0.00000  -0.00002  -0.00002  -0.00000
                          A11       D1        D2        D3        D4
           A11          0.00230
           D1           0.00006   0.01891
           D2           0.00000   0.00003   0.00230
           D3          -0.00000  -0.00005  -0.00000   0.00230
           D4          -0.00000  -0.00008  -0.00000   0.00000   0.00230
 ITU=  0  0
 Eigenvectors of the second derivative matrix:
                           1         2         3         4         5
     Eigenvalues --     0.01103   0.06980   0.06982   0.08103   0.08113
   1         R1         0.36862   0.00239   0.00105   0.05959  -0.00292
   2         R2        -0.00846  -0.00006  -0.00004  -0.00186   0.00011
   3         R3        -0.00865  -0.00006  -0.00004  -0.00187   0.00011
   4         R4        -0.00850  -0.00006  -0.00004  -0.00186   0.00011
   5         R5         0.58076   0.00346   0.00144   0.08078  -0.00371
   6         A1         0.17094  -0.30422   0.22186   0.00917   0.03001
   7         A2         0.17056  -0.04201  -0.37428  -0.00368  -0.03906
   8         A3         0.17189   0.34307   0.15089  -0.05709   0.00673
   9         A4         0.01382  -0.03674  -0.01598  -0.56184   0.10400
  10         A5         0.00978   0.00453   0.03957   0.18959  -0.54227
  11         A6        -0.17120  -0.30327   0.22384   0.03055   0.01619
  12         A7         0.01249   0.03199  -0.02371   0.36863   0.43810
  13         A8        -0.17159  -0.04009  -0.37453   0.02404  -0.01837
  14         A9        -0.17059   0.34642   0.15260  -0.00318   0.00469
  15         A10       -0.00026  -0.60750   0.44570   0.03972   0.04620
  16         A11       -0.00134  -0.44571  -0.60743   0.04663  -0.03967
  17         D1        -0.59199   0.00507   0.00263   0.08208  -0.00132
  18         D2         0.00180  -0.04882  -0.02129  -0.56038   0.10400
  19         D3         0.00224  -0.00603  -0.05285  -0.19071   0.54198
  20         D4         0.00045   0.04279  -0.03156   0.36967   0.43797
                           6         7         8         9        10
     Eigenvalues --     0.08707   0.13264   0.16000   0.16000   0.37278
   1         R1        -0.42944   0.82221   0.00028   0.00000   0.00009
   2         R2         0.01248   0.00371  -0.00000  -0.00000  -0.44023
   3         R3         0.01251   0.00369   0.00000  -0.00000  -0.36159
   4         R4         0.01246   0.00370  -0.00000  -0.00000   0.82186
   5         R5        -0.57705  -0.56794   0.00047   0.00003   0.00025
   6         A1         0.16342   0.00869   0.23387  -0.52763  -0.00001
   7         A2         0.16188   0.00871   0.33956   0.46646  -0.00001
   8         A3         0.15825   0.00877  -0.57419   0.06094  -0.00001
   9         A4        -0.06613   0.00048   0.02012  -0.00214  -0.00000
  10         A5         0.03948   0.00051  -0.01194  -0.01643  -0.00000
  11         A6        -0.16088  -0.00877  -0.23387   0.52763   0.00001
  12         A7         0.06064   0.00085  -0.00822   0.01857  -0.00000
  13         A8        -0.16199  -0.00879  -0.33956  -0.46646   0.00001
  14         A9        -0.16072  -0.00862   0.57419  -0.06094   0.00001
  15         A10        0.00254  -0.00007   0.00000   0.00000   0.00000
  16         A11        0.00137  -0.00014  -0.00000   0.00000   0.00000
  17         D1        -0.55441  -0.03018  -0.00003   0.00001   0.00005
  18         D2        -0.07752  -0.00014  -0.00000  -0.00000  -0.00000
  19         D3        -0.02820   0.00010  -0.00000  -0.00000  -0.00000
  20         D4         0.04932   0.00024   0.00000  -0.00000   0.00000
                          11        12
     Eigenvalues --     0.37281   0.37455
   1         R1         0.00011   0.00966
   2         R2        -0.68126   0.58467
   3         R3         0.73076   0.57879
   4         R4        -0.04341   0.56782
   5         R5         0.00017   0.02497
   6         A1         0.00002  -0.00106
   7         A2         0.00001  -0.00107
   8         A3         0.00002  -0.00107
   9         A4         0.00000  -0.00021
  10         A5         0.00000   0.00001
  11         A6        -0.00002   0.00108
  12         A7         0.00000  -0.00003
  13         A8        -0.00002   0.00107
  14         A9        -0.00002   0.00104
  15         A10       -0.00000   0.00002
  16         A11       -0.00000   0.00002
  17         D1        -0.00005   0.00369
  18         D2        -0.00000  -0.00013
  19         D3        -0.00000  -0.00008
  20         D4         0.00000   0.00005
 Eigenvalue     1 is   1.10D-02 should be less than     0.000000 Eigenvector:
                          D1        R5        R1        A3        A8
   1                   -0.59199   0.58076   0.36862   0.17189  -0.17159
                          A6        A1        A9        A2        A4
   1                   -0.17120   0.17094  -0.17059   0.17056   0.01382
 RLam0= 1.54D-02.
 Iter=   1 RLamda= 0.00000000D+00 Sum=-1.28998737D-03.
 Iter=   2 RLamda=-1.28998737D-03 Sum=-1.27164741D-03.
 Iter=   3 RLamda=-1.27164741D-03 Sum=-1.27190441D-03.
 Iter=   4 RLamda=-1.27190441D-03 Sum=-1.27190081D-03.
 RFO step:  Lambda0=1.536286809D-02 Lambda=-1.27190441D-03.
 Linear search not attempted -- option 19 set.
 Iteration  1 RMS(Cart)=  0.02143674 RMS(Int)=  0.00120676
 Iteration  2 RMS(Cart)=  0.00061324 RMS(Int)=  0.00103636
 Iteration  3 RMS(Cart)=  0.00000014 RMS(Int)=  0.00103636
 ITry= 1 IFail=0 DXMaxC= 4.17D-02 DCOld= 1.00D+10 DXMaxT= 1.00D-01 DXLimC= 3.00D+00 Rises=F
 Variable       Old X    -DE/DX   Delta X   Delta X   Delta X     New X
                                 (Linear)    (Quad)   (Total)
    R1        3.38951  -0.00757   0.00000  -0.00806  -0.00806   3.38145
    R2        2.04151   0.00261   0.00000   0.00689   0.00689   2.04840
    R3        2.04145   0.00261   0.00000   0.00688   0.00688   2.04833
    R4        2.04151   0.00261   0.00000   0.00688   0.00688   2.04839
    R5        3.39163  -0.01062   0.00000   0.00085   0.00085   3.39248
    A1        1.55051   0.00029   0.00000   0.03933   0.03929   1.58980
    A2        1.55011   0.00029   0.00000   0.03934   0.03930   1.58941
    A3        1.55084   0.00027   0.00000   0.03932   0.03928   1.59013
    A4        2.09377   0.00001   0.00000   0.00365   0.00098   2.09475
    A5        2.09310   0.00005   0.00000   0.00234  -0.00034   2.09276
    A6        1.59107  -0.00028   0.00000  -0.03930  -0.03925   1.55182
    A7        2.09417   0.00001   0.00000   0.00230  -0.00037   2.09380
    A8        1.59105  -0.00028   0.00000  -0.03937  -0.03933   1.55172
    A9        1.59118  -0.00029   0.00000  -0.03932  -0.03928   1.55190
   A10        3.14159   0.00000   0.00000   0.00003   0.00003   3.14162
   A11        3.14110   0.00001   0.00000  -0.00002  -0.00002   3.14108
    D1       -3.07129  -0.00098   0.00000  -0.13608  -0.13600   3.07590
    D2        2.09449  -0.00001   0.00000   0.00089   0.00089   2.09538
    D3       -2.09381  -0.00003   0.00000   0.00043   0.00043  -2.09338
    D4        2.09489  -0.00001   0.00000  -0.00046  -0.00046   2.09442
         Item               Value     Threshold  Converged?
 Maximum Force            0.010625     0.000450     NO 
 RMS     Force            0.003099     0.000300     NO 
 Maximum Displacement     0.041652     0.001800     NO 
 RMS     Displacement     0.021405     0.001200     NO 
 Predicted change in Energy= 3.955583D-04
 Lowest energy point so far.  Saving SCF results.
 Largest change from initial coordinates is atom    6       0.049 Angstoms.
 GradGradGradGradGradGradGradGradGradGradGradGradGradGradGradGradGradGrad

 Leave Link  103 at Wed Oct 21 14:21:48 2020, MaxMem=  2684354560 cpu:               6.1 elap:               1.2
 (Enter /udrive/faculty/rpeverati/g16/g16/l202.exe)
                          Input orientation:                          
 ---------------------------------------------------------------------
 Center     Atomic      Atomic             Coordinates (Angstroms)
 Number     Number       Type             X           Y           Z
 ---------------------------------------------------------------------
      1          9           0        1.800738    0.000154    0.000083
      2          6           0        0.011353   -0.000270   -0.000023
      3          1           0       -0.009235   -0.309473    1.038705
      4          1           0       -0.009060    1.053617   -0.252631
      5          1           0       -0.009376   -0.746017   -0.786409
      6          9           0       -1.783870    0.000205    0.000086
 ---------------------------------------------------------------------
                    Distance matrix (angstroms):
                    1          2          3          4          5
     1  F    0.000000
     2  C    1.789385   0.000000
     3  H    2.109646   1.083968   0.000000
     4  H    2.109270   1.083931   1.877648   0.000000
     5  H    2.109941   1.083961   1.876596   1.877126   0.000000
     6  F    3.584609   1.795223   2.079414   2.079301   2.079484
                    6
     6  F    0.000000
 Stoichiometry    CH3F2(1-)
 Framework group  C1[X(CH3F2)]
 Deg. of freedom    12
 Full point group                 C1      NOp   1
 RotChk:  IX=2 Diff= 6.43D-01
 Largest Abelian subgroup         C1      NOp   1
 Largest concise Abelian subgroup C1      NOp   1
                         Standard orientation:                         
 ---------------------------------------------------------------------
 Center     Atomic      Atomic             Coordinates (Angstroms)
 Number     Number       Type             X           Y           Z
 ---------------------------------------------------------------------
      1          9           0        1.793618    0.000138    0.000123
      2          6           0        0.004232   -0.000200   -0.000178
      3          1           0       -0.016352   -0.765088    0.767617
      4          1           0       -0.016191    1.047412    0.277306
      5          1           0       -0.016490   -0.283734   -1.046194
      6          9           0       -1.790991    0.000152    0.000136
 ---------------------------------------------------------------------
 Rotational constants (GHZ):         142.3134752           4.0810780           4.0810022
 Leave Link  202 at Wed Oct 21 14:21:49 2020, MaxMem=  2684354560 cpu:               2.3 elap:               0.8
 (Enter /udrive/faculty/rpeverati/g16/g16/l301.exe)
 Standard basis: VSTO-6G (5D, 7F)
 Ernie: Thresh=  0.10000D-02 Tol=  0.10000D-05 Strict=F.
  NNHCO=     0 NNPyr=     0 NCTC=     0               EPep=         0.000000000
    EC=        34.104977595  ECS=         0.477309034   EG=         0.130621779
   EHC=         0.000000000  EAt=       -37.685851594  AtH=         0.581626278
 EPDDG=         0.000000000  ECC=        34.712908408 EAtT=        38.267477872
 There are    15 symmetry adapted cartesian basis functions of A   symmetry.
 There are    15 symmetry adapted basis functions of A   symmetry.
    15 basis functions,    90 primitive gaussians,    15 cartesian basis functions
    11 alpha electrons       11 beta electrons
       nuclear repulsion energy        72.9803862805 Hartrees.
 IExCor=    0 DFT=F Ex=HF Corr=None ExCW=0 ScaHFX=  1.000000
 ScaDFX=  1.000000  1.000000  1.000000  1.000000 ScalE2=  1.000000  1.000000
 IRadAn=      5 IRanWt=     -1 IRanGd=            0 ICorTp=0 IEmpDi=  4
 Integral buffers will be    131072 words long.
 Regular integral format.
 Two-electron integral symmetry is turned off.
 Leave Link  301 at Wed Oct 21 14:21:50 2020, MaxMem=  2684354560 cpu:               4.7 elap:               1.0
 (Enter /udrive/faculty/rpeverati/g16/g16/l302.exe)
 Do NDO integrals.
 NPDir=0 NMtPBC=     1 NCelOv=     1 NCel=       1 NClECP=     1 NCelD=      1
         NCelK=      1 NCelE2=     1 NClLst=     1 CellRange=     0.0.
 One-electron integrals computed using PRISM.
 NBasis=    15 RedAO= F EigKep=  0.00D+00  NBF=    15
 NBsUse=    15 1.00D-04 EigRej=  0.00D+00 NBFU=    15
 Leave Link  302 at Wed Oct 21 14:21:52 2020, MaxMem=  2684354560 cpu:               3.8 elap:               1.0
 (Enter /udrive/faculty/rpeverati/g16/g16/l303.exe)
 DipDrv:  MaxL=1.
 Leave Link  303 at Wed Oct 21 14:21:53 2020, MaxMem=  2684354560 cpu:               3.2 elap:               0.8
 (Enter /udrive/faculty/rpeverati/g16/g16/l401.exe)
 Initial guess from the checkpoint file:  "MN_39_fch3fts_BH76_PM3_SE.chk"
 SCF N**3 symmetry information disabled.
 B after Tr=    -0.000000   -0.000000   -0.000000
         Rot=    0.973822   -0.227313   -0.000001    0.000000 Ang= -26.28 deg.
 Guess basis will be translated and rotated to current coordinates.
 JPrj=0 DoOrth=T DoCkMO=T.
 Leave Link  401 at Wed Oct 21 14:21:54 2020, MaxMem=  2684354560 cpu:               3.4 elap:               0.9
 (Enter /udrive/faculty/rpeverati/g16/g16/l502.exe)
 Keep J ints in memory in canonical form, NReq=859737.
 FoFCou: FMM=F IPFlag=           0 FMFlag=           0 FMFlg1=           0
         NFxFlg=           0 DoJE=F BraDBF=F KetDBF=F FulRan=T
         wScrn=  0.000000 ICntrl=       600 IOpCl=  2 I1Cent=           0 NGrid=           0
         NMat0=    1 NMatS0=     33 NMatT0=    0 NMatD0=    1 NMtDS0=    0 NMtDT0=    0
 Symmetry not used in FoFCou.
 Two-electron integral symmetry not used.
 Closed shell SCF:
 Using DIIS extrapolation, IDIIS=  1040.
 Overlap will be assumed to be unity.
 NGot=  2684354560 LenX=  2684293520 LenY=  2684292638
 Requested convergence on RMS density matrix=1.00D-08 within 120 cycles.
 Requested convergence on MAX density matrix=1.00D-06.
 Requested convergence on             energy=1.00D-06.
 No special actions if energy rises.

 Cycle   1  Pass 1  IDiag  1:
 E=-0.720465718174097E-01
 DIIS: error= 2.75D-03 at cycle   1 NSaved=   1.
 NSaved= 1 IEnMin= 1 EnMin=-0.720465718174097E-01 IErMin= 1 ErrMin= 2.75D-03
 ErrMax= 2.75D-03  0.00D+00 EMaxC= 1.00D-01 BMatC= 9.88D-05 BMatP= 9.88D-05
 IDIUse=3 WtCom= 9.72D-01 WtEn= 2.75D-02
 Coeff-Com:  0.100D+01
 Coeff-En:   0.100D+01
 Coeff:      0.100D+01
 GapD=    2.000 DampG=2.000 DampE=1.000 DampFc=2.0000 IDamp=-1.
 RMSDP=1.37D-03 MaxDP=5.45D-03              OVMax= 0.00D+00

 Cycle   2  Pass 1  IDiag  3:
 E=-0.724413711926104E-01 Delta-E=       -0.000394799375 Rises=F Damp=F
 DIIS: error= 9.75D-04 at cycle   2 NSaved=   2.
 NSaved= 2 IEnMin= 2 EnMin=-0.724413711926104E-01 IErMin= 2 ErrMin= 9.75D-04
 ErrMax= 9.75D-04  0.00D+00 EMaxC= 1.00D-01 BMatC= 1.52D-05 BMatP= 9.88D-05
 IDIUse=3 WtCom= 9.90D-01 WtEn= 9.75D-03
 Coeff-Com: -0.617D+00 0.162D+01
 Coeff-En:   0.000D+00 0.100D+01
 Coeff:     -0.611D+00 0.161D+01
 Gap=     0.411 Goal=   None    Shift=    0.000
 RMSDP=9.15D-04 MaxDP=3.52D-03 DE=-3.95D-04 OVMax= 6.01D-03

 Cycle   3  Pass 1  IDiag  3:
 E=-0.725189347580368E-01 Delta-E=       -0.000077563565 Rises=F Damp=F
 DIIS: error= 5.30D-05 at cycle   3 NSaved=   3.
 NSaved= 3 IEnMin= 3 EnMin=-0.725189347580368E-01 IErMin= 3 ErrMin= 5.30D-05
 ErrMax= 5.30D-05  0.00D+00 EMaxC= 1.00D-01 BMatC= 7.82D-08 BMatP= 1.52D-05
 IDIUse=1 WtCom= 1.00D+00 WtEn= 0.00D+00
 Coeff-Com:  0.197D+00-0.552D+00 0.135D+01
 Coeff:      0.197D+00-0.552D+00 0.135D+01
 Gap=     0.411 Goal=   None    Shift=    0.000
 RMSDP=6.55D-05 MaxDP=2.65D-04 DE=-7.76D-05 OVMax= 4.28D-04

 Cycle   4  Pass 1  IDiag  3:
 E=-0.725193014062171E-01 Delta-E=       -0.000000366648 Rises=F Damp=F
 DIIS: error= 5.00D-06 at cycle   4 NSaved=   4.
 NSaved= 4 IEnMin= 4 EnMin=-0.725193014062171E-01 IErMin= 4 ErrMin= 5.00D-06
 ErrMax= 5.00D-06  0.00D+00 EMaxC= 1.00D-01 BMatC= 7.20D-10 BMatP= 7.82D-08
 IDIUse=1 WtCom= 1.00D+00 WtEn= 0.00D+00
 Coeff-Com: -0.938D-01 0.263D+00-0.651D+00 0.148D+01
 Coeff:     -0.938D-01 0.263D+00-0.651D+00 0.148D+01
 Gap=     0.411 Goal=   None    Shift=    0.000
 RMSDP=5.51D-06 MaxDP=2.44D-05 DE=-3.67D-07 OVMax= 2.91D-05

 Cycle   5  Pass 1  IDiag  3:
 E=-0.725193049536443E-01 Delta-E=       -0.000000003547 Rises=F Damp=F
 DIIS: error= 1.52D-06 at cycle   5 NSaved=   5.
 NSaved= 5 IEnMin= 5 EnMin=-0.725193049536443E-01 IErMin= 5 ErrMin= 1.52D-06
 ErrMax= 1.52D-06  0.00D+00 EMaxC= 1.00D-01 BMatC= 2.65D-11 BMatP= 7.20D-10
 IDIUse=1 WtCom= 1.00D+00 WtEn= 0.00D+00
 Coeff-Com:  0.123D-01-0.343D-01 0.864D-01-0.343D+00 0.128D+01
 Coeff:      0.123D-01-0.343D-01 0.864D-01-0.343D+00 0.128D+01
 Gap=     0.411 Goal=   None    Shift=    0.000
 RMSDP=1.13D-06 MaxDP=6.86D-06 DE=-3.55D-09 OVMax= 6.21D-06

 Cycle   6  Pass 1  IDiag  3:
 E=-0.725193050988082E-01 Delta-E=       -0.000000000145 Rises=F Damp=F
 DIIS: error= 4.08D-07 at cycle   6 NSaved=   6.
 NSaved= 6 IEnMin= 6 EnMin=-0.725193050988082E-01 IErMin= 6 ErrMin= 4.08D-07
 ErrMax= 4.08D-07  0.00D+00 EMaxC= 1.00D-01 BMatC= 2.33D-12 BMatP= 2.65D-11
 IDIUse=1 WtCom= 1.00D+00 WtEn= 0.00D+00
 Coeff-Com:  0.183D-03-0.581D-03 0.500D-03 0.912D-01-0.737D+00 0.165D+01
 Coeff:      0.183D-03-0.581D-03 0.500D-03 0.912D-01-0.737D+00 0.165D+01
 Gap=     0.411 Goal=   None    Shift=    0.000
 RMSDP=4.38D-07 MaxDP=2.60D-06 DE=-1.45D-10 OVMax= 2.25D-06

 Cycle   7  Pass 1  IDiag  3:
 E=-0.725193051139570E-01 Delta-E=       -0.000000000015 Rises=F Damp=F
 DIIS: error= 3.79D-08 at cycle   7 NSaved=   7.
 NSaved= 7 IEnMin= 7 EnMin=-0.725193051139570E-01 IErMin= 7 ErrMin= 3.79D-08
 ErrMax= 3.79D-08  0.00D+00 EMaxC= 1.00D-01 BMatC= 5.17D-14 BMatP= 2.33D-12
 IDIUse=1 WtCom= 1.00D+00 WtEn= 0.00D+00
 Coeff-Com:  0.187D-03-0.475D-03 0.178D-02-0.646D-01 0.484D+00-0.111D+01
 Coeff-Com:  0.169D+01
 Coeff:      0.187D-03-0.475D-03 0.178D-02-0.646D-01 0.484D+00-0.111D+01
 Coeff:      0.169D+01
 Gap=     0.411 Goal=   None    Shift=    0.000
 RMSDP=6.85D-08 MaxDP=2.96D-07 DE=-1.51D-11 OVMax= 3.90D-07

 Cycle   8  Pass 1  IDiag  3:
 E=-0.725193051142128E-01 Delta-E=       -0.000000000000 Rises=F Damp=F
 DIIS: error= 6.98D-09 at cycle   8 NSaved=   8.
 NSaved= 8 IEnMin= 8 EnMin=-0.725193051142128E-01 IErMin= 8 ErrMin= 6.98D-09
 ErrMax= 6.98D-09  0.00D+00 EMaxC= 1.00D-01 BMatC= 1.88D-15 BMatP= 5.17D-14
 IDIUse=1 WtCom= 1.00D+00 WtEn= 0.00D+00
 Coeff-Com: -0.989D-05-0.186D-05-0.371D-03 0.379D-01-0.294D+00 0.682D+00
 Coeff-Com: -0.114D+01 0.171D+01
 Coeff:     -0.989D-05-0.186D-05-0.371D-03 0.379D-01-0.294D+00 0.682D+00
 Coeff:     -0.114D+01 0.171D+01
 Gap=     0.411 Goal=   None    Shift=    0.000
 RMSDP=1.53D-08 MaxDP=5.65D-08 DE=-2.56D-13 OVMax= 1.17D-07

 Cycle   9  Pass 1  IDiag  3:
 E=-0.725193051141844E-01 Delta-E=        0.000000000000 Rises=F Damp=F
 DIIS: error= 7.95D-10 at cycle   9 NSaved=   9.
 NSaved= 9 IEnMin= 8 EnMin=-0.725193051142128E-01 IErMin= 9 ErrMin= 7.95D-10
 ErrMax= 7.95D-10  0.00D+00 EMaxC= 1.00D-01 BMatC= 2.67D-17 BMatP= 1.88D-15
 IDIUse=1 WtCom= 1.00D+00 WtEn= 0.00D+00
 Coeff-Com:  0.235D-05 0.528D-05 0.137D-03-0.150D-01 0.116D+00-0.270D+00
 Coeff-Com:  0.455D+00-0.734D+00 0.145D+01
 Coeff:      0.235D-05 0.528D-05 0.137D-03-0.150D-01 0.116D+00-0.270D+00
 Coeff:      0.455D+00-0.734D+00 0.145D+01
 Gap=     0.411 Goal=   None    Shift=    0.000
 RMSDP=1.42D-09 MaxDP=5.04D-09 DE= 2.84D-14 OVMax= 8.55D-09

 Cycle  10  Pass 2  IDiag  1:
 SCF Done:  E(RPM3) = -0.725193051142E-01 A.U. after   10 cycles
            NFock=  9  Conv=0.14D-08     -V/T= 0.9989
 KE=-6.869653664618D+01 PE=-6.979049471017D+01 EE= 6.543412577074D+01
 Leave Link  502 at Wed Oct 21 14:21:56 2020, MaxMem=  2684354560 cpu:               8.0 elap:               1.2
 (Enter /udrive/faculty/rpeverati/g16/g16/l508.exe)
 QCSCF skips out because SCF is already converged.
 Leave Link  508 at Wed Oct 21 14:21:57 2020, MaxMem=  2684354560 cpu:               0.8 elap:               0.7
 (Enter /udrive/faculty/rpeverati/g16/g16/l701.exe)
 ... and contract with generalized density number  0.
 Compute integral first derivatives.
 Leave Link  701 at Wed Oct 21 14:21:58 2020, MaxMem=  2684354560 cpu:               4.2 elap:               1.0
 (Enter /udrive/faculty/rpeverati/g16/g16/l702.exe)
 L702 exits ... SP integral derivatives will be done elsewhere.
 Leave Link  702 at Wed Oct 21 14:21:59 2020, MaxMem=  2684354560 cpu:               2.2 elap:               0.7
 (Enter /udrive/faculty/rpeverati/g16/g16/l703.exe)
 Integral derivatives from FoFJK, PRISM(SPDF).
 Compute integral first derivatives, UseDBF=F ICtDFT=           0.
 Calling FoFJK, ICntrl=      2127 FMM=F ISym2X=0 I1Cent= 0 IOpClX= 0 NMat=1 NMatS=1 NMatT=0.
 FoFJK:  IHMeth= 9 ICntrl=    2127 DoSepK=F KAlg= 0 I1Cent=           0 FoldK=F
 IRaf=         0 NMat=       1 IRICut=       1 DoRegI=T DoRafI=F ISym2E= 0 IDoP0=3 IntGTp=3.
 FoFCou: FMM=F IPFlag=           0 FMFlag=      100000 FMFlg1=         800
         NFxFlg=           0 DoJE=F BraDBF=F KetDBF=F FulRan=T
         wScrn=  0.000000 ICntrl=      2127 IOpCl=  0 I1Cent=           0 NGrid=           0
         NMat0=    1 NMatS0=      1 NMatT0=    0 NMatD0=    1 NMtDS0=    0 NMtDT0=    0
 Symmetry not used in FoFCou.
 Leave Link  703 at Wed Oct 21 14:22:00 2020, MaxMem=  2684354560 cpu:               2.7 elap:               0.9
 (Enter /udrive/faculty/rpeverati/g16/g16/l716.exe)
 Dipole        = 4.04249503D-02-4.63856468D-04-4.14024021D-04
 ***** Axes restored to original set *****
 -------------------------------------------------------------------
 Center     Atomic                   Forces (Hartrees/Bohr)
 Number     Number              X              Y              Z
 -------------------------------------------------------------------
      1        9          -0.011341420   -0.000010630   -0.000002493
      2        6           0.002703794   -0.000074110   -0.000007410
      3        1           0.000596309   -0.000003182    0.000236139
      4        1           0.000589552    0.000236631   -0.000024715
      5        1           0.000601620   -0.000144519   -0.000200642
      6        9           0.006850145   -0.000004191   -0.000000879
 -------------------------------------------------------------------
 Cartesian Forces:  Max     0.011341420 RMS     0.003198152
 Leave Link  716 at Wed Oct 21 14:22:01 2020, MaxMem=  2684354560 cpu:               2.1 elap:               0.8
 (Enter /udrive/faculty/rpeverati/g16/g16/l103.exe)

 GradGradGradGradGradGradGradGradGradGradGradGradGradGradGradGradGradGrad
 Berny optimization.
 Optmz: redundant internal coordinate code flag= 1
 Red2BG:  D1=  4.14D-01 OD1=  1.70D-01 B2RMS=  0.00D+00 IAprox=0
 FormGI is forming the generalized inverse of G from B-inverse, IUseBI=4.
[...]
           D3          -0.00095   0.00189  -0.00095   0.00559  -0.01117
           D4          -0.00189   0.00095   0.00095  -0.00558  -0.00559
                          A6        A7        A8        A9        A10
           A6           0.03617
           A7          -0.00189   0.01117
           A8          -0.01580   0.00094   0.03617
           A9          -0.01579   0.00095  -0.01580   0.03617
           A10          0.01681  -0.00379  -0.00841  -0.00840   0.03357
           A11         -0.00000  -0.00000   0.01455  -0.01456  -0.00000
           D1           0.00529  -0.00000   0.00529   0.00528  -0.00000
           D2           0.00095  -0.00558   0.00095  -0.00190   0.00189
           D3          -0.00095   0.00559   0.00190  -0.00095  -0.00189
           D4          -0.00190   0.01117   0.00095   0.00095  -0.00379
                          A11       D1        D2        D3        D4
           A11          0.03357
           D1          -0.00000   0.01831
           D2           0.00328  -0.00000   0.01117
           D3           0.00328  -0.00000   0.00559   0.01117
           D4          -0.00000   0.00000  -0.00558   0.00559   0.01117
 ITU=  0
 Eigenvectors of the second derivative matrix:
                           1         2         3         4         5
     Eigenvalues --    -0.09476   0.03079   0.03080   0.04788   0.06073
   1         R1        -0.65505  -0.00003  -0.00000   0.26924  -0.00013
   2         R2         0.00001  -0.00432   0.00560  -0.00012  -0.02660
   3         R3         0.00002  -0.00263  -0.00655  -0.00011  -0.01525
   4         R4         0.00001   0.00702   0.00099  -0.00012   0.04189
   5         R5         0.65408  -0.00002  -0.00001  -0.26570  -0.00023
   6         A1         0.08917  -0.06819   0.08755   0.21816   0.22761
   7         A2         0.08919  -0.04172  -0.10281   0.21801   0.13058
   8         A3         0.08913   0.10993   0.01529   0.21844  -0.35813
   9         A4         0.00000   0.54671   0.07601  -0.00002   0.16674
  10         A5         0.00003  -0.20753  -0.51148   0.00010  -0.06078
  11         A6        -0.08917  -0.06796   0.08723  -0.21817   0.22552
  12         A7         0.00002  -0.33918   0.43547   0.00005  -0.10595
  13         A8        -0.08918  -0.04158  -0.10246  -0.21813   0.12938
  14         A9        -0.08913   0.10957   0.01523  -0.21831  -0.35506
  15         A10       -0.00000  -0.13615   0.17479  -0.00001   0.45313
  16         A11        0.00001  -0.17485  -0.13611  -0.00015   0.56191
  17         D1        -0.30884  -0.00006  -0.00003  -0.75580  -0.00015
  18         D2        -0.00001   0.54670   0.07601  -0.00005   0.16677
  19         D3        -0.00001   0.20752   0.51147  -0.00005   0.06079
  20         D4         0.00001  -0.33918   0.43546   0.00000  -0.10597
                           6         7         8         9        10
     Eigenvalues --     0.06074   0.07769   0.07869   0.07870   0.32221
   1         R1        -0.00005   0.70049   0.00185  -0.00155   0.00006
   2         R2         0.03301  -0.07187  -0.00004   0.00032   0.49755
   3         R3        -0.03955  -0.07189  -0.00010  -0.00004   0.31115
   4         R4         0.00656  -0.07182  -0.00040   0.00019  -0.80800
   5         R5        -0.00013   0.70272   0.00163  -0.00145   0.00006
   6         A1        -0.28217  -0.00039   0.35930   0.45061   0.01081
   7         A2         0.33821  -0.00208   0.21067  -0.53647   0.00676
   8         A3        -0.05598   0.00102  -0.56986   0.08581  -0.01757
   9         A4         0.02607   0.00007  -0.00026   0.00003   0.01344
  10         A5        -0.15739  -0.00005   0.00009  -0.00022  -0.00517
  11         A6        -0.27974   0.00044  -0.36060  -0.45223   0.01090
  12         A7         0.13131  -0.00002   0.00017   0.00019  -0.00827
  13         A8         0.33520   0.00223  -0.21140   0.53838   0.00682
  14         A9        -0.05557  -0.00121   0.57189  -0.08610  -0.01772
  15         A10       -0.56190   0.00004  -0.00130  -0.00162   0.02171
  16         A11        0.45312   0.00020  -0.00160   0.00127   0.02822
  17         D1        -0.00010   0.00168  -0.00022   0.00010  -0.00000
  18         D2         0.02608   0.00007  -0.00031   0.00004   0.01344
  19         D3         0.15742   0.00005  -0.00011   0.00029   0.00517
  20         D4         0.13134  -0.00002   0.00020   0.00024  -0.00827
                          11        12
     Eigenvalues --     0.32222   0.33372
   1         R1         0.00003   0.08794
   2         R2        -0.64603   0.57278
   3         R3         0.75386   0.57259
   4         R4        -0.10751   0.57322
   5         R5         0.00003   0.08808
   6         A1        -0.01406  -0.00002
   7         A2         0.01640  -0.00001
   8         A3        -0.00234  -0.00002
   9         A4         0.00179  -0.00003
  10         A5        -0.01254   0.00002
  11         A6        -0.01417   0.00002
  12         A7         0.01075   0.00001
  13         A8         0.01653   0.00001
  14         A9        -0.00236   0.00002
  15         A10       -0.02823  -0.00000
  16         A11        0.02172  -0.00000
  17         D1        -0.00000   0.00006
  18         D2         0.00179  -0.00003
  19         D3         0.01255  -0.00002
  20         D4         0.01075   0.00001
 Eigenvalue     1 is  -9.48D-02 should be greater than     0.000000 Eigenvector:
                          R1        R5        D1        A2        A8
   1                   -0.65505   0.65408  -0.30884   0.08919  -0.08918
                          A6        A1        A9        A3        A5
   1                   -0.08917   0.08917  -0.08913   0.08913   0.00003
 Angle between quadratic step and forces=  26.94 degrees.
 Linear search not attempted -- first point.
 Iteration  1 RMS(Cart)=  0.00014503 RMS(Int)=  0.00000001
 Iteration  2 RMS(Cart)=  0.00000000 RMS(Int)=  0.00000000
 ITry= 1 IFail=0 DXMaxC= 5.13D-04 DCOld= 1.00D+10 DXMaxT= 3.00D-01 DXLimC= 3.00D+00 Rises=F
 Variable       Old X    -DE/DX   Delta X   Delta X   Delta X     New X
                                 (Linear)    (Quad)   (Total)
    R1        3.07316   0.00001   0.00000  -0.00000  -0.00000   3.07316
    R2        2.05943   0.00002   0.00000   0.00009   0.00009   2.05952
    R3        2.05943   0.00002   0.00000   0.00009   0.00009   2.05952
    R4        2.05944   0.00002   0.00000   0.00009   0.00009   2.05952
    R5        3.07260  -0.00005   0.00000  -0.00065  -0.00065   3.07195
    A1        1.57073  -0.00000   0.00000  -0.00002  -0.00002   1.57071
    A2        1.57071  -0.00000   0.00000   0.00000   0.00000   1.57071
    A3        1.57077  -0.00000   0.00000  -0.00006  -0.00006   1.57071
    A4        2.09456  -0.00001   0.00000  -0.00017  -0.00017   2.09440
    A5        2.09427   0.00000   0.00000   0.00013   0.00013   2.09440
    A6        1.57085   0.00000   0.00000   0.00003   0.00003   1.57088
    A7        2.09435   0.00000   0.00000   0.00004   0.00004   2.09440
    A8        1.57084   0.00000   0.00000   0.00004   0.00004   1.57088
    A9        1.57087   0.00000   0.00000   0.00000   0.00000   1.57088
   A10        3.14158   0.00000   0.00000   0.00001   0.00001   3.14159
   A11        3.14154   0.00000   0.00000   0.00006   0.00006   3.14159
    D1       -3.14139   0.00001   0.00000   0.00009   0.00009  -3.14131
    D2        2.09456  -0.00001   0.00000  -0.00017  -0.00017   2.09440
    D3       -2.09427  -0.00000   0.00000  -0.00013  -0.00013  -2.09440
    D4        2.09435   0.00000   0.00000   0.00004   0.00004   2.09440
         Item               Value     Threshold  Converged?
 Maximum Force            0.000053     0.000450     YES
 RMS     Force            0.000015     0.000300     YES
 Maximum Displacement     0.000513     0.001800     YES
 RMS     Displacement     0.000145     0.001200     YES
 Predicted change in Energy=-4.237368D-08
 Optimization completed.
    -- Stationary point found.
                           ----------------------------
                           !   Optimized Parameters   !
                           ! (Angstroms and Degrees)  !
 --------------------------                            --------------------------
 ! Name  Definition              Value          Derivative Info.                !
 --------------------------------------------------------------------------------
 ! R1    R(1,2)                  1.6262         -DE/DX =    0.0                 !
 ! R2    R(2,3)                  1.0898         -DE/DX =    0.0                 !
 ! R3    R(2,4)                  1.0898         -DE/DX =    0.0                 !
 ! R4    R(2,5)                  1.0898         -DE/DX =    0.0                 !
 ! R5    R(2,6)                  1.6259         -DE/DX =   -0.0001              !
 ! A1    A(1,2,3)               89.9964         -DE/DX =    0.0                 !
 ! A2    A(1,2,4)               89.9951         -DE/DX =    0.0                 !
 ! A3    A(1,2,5)               89.9986         -DE/DX =    0.0                 !
 ! A4    A(3,2,4)              120.0097         -DE/DX =    0.0                 !
 ! A5    A(3,2,5)              119.9928         -DE/DX =    0.0                 !
 ! A6    A(3,2,6)               90.0029         -DE/DX =    0.0                 !
 ! A7    A(4,2,5)              119.9975         -DE/DX =    0.0                 !
 ! A8    A(4,2,6)               90.0025         -DE/DX =    0.0                 !
 ! A9    A(5,2,6)               90.0045         -DE/DX =    0.0                 !
 ! A10   L(1,2,6,3,-1)         179.9993         -DE/DX =    0.0                 !
 ! A11   L(1,2,6,3,-2)         179.9968         -DE/DX =    0.0                 !
 ! D1    D(3,2,5,4)           -179.9886         -DE/DX =    0.0                 !
 ! D2    D(3,2,6,4)            120.0097         -DE/DX =    0.0                 !
 ! D3    D(3,2,6,5)           -119.9928         -DE/DX =    0.0                 !
 ! D4    D(4,2,6,5)            119.9975         -DE/DX =    0.0                 !
 --------------------------------------------------------------------------------
 GradGradGradGradGradGradGradGradGradGradGradGradGradGradGradGradGradGrad

 Leave Link  103 at Wed Oct 21 14:24:32 2020, MaxMem=  2684354560 cpu:               5.7 elap:               1.2
 (Enter /udrive/faculty/rpeverati/g16/g16/l9999.exe)

 ----------------------------------------------------------------------

 Electric dipole moment (input orientation):
 (Debye = 10**-18 statcoulomb cm , SI units = C m)
                  (au)            (Debye)         (10**-30 SI)
   Tot        0.118946D-02      0.302332D-02      0.100847D-01
   x         -0.118795D-02     -0.301947D-02     -0.100719D-01
   y         -0.521730D-04     -0.132610D-03     -0.442341D-03
   z         -0.296495D-04     -0.753614D-04     -0.251379D-03

 Dipole polarizability, Alpha (input orientation).
 (esu units = cm**3 , SI units = C**2 m**2 J**-1)
 Alpha(0;0):
               (au)            (10**-24 esu)      (10**-40 SI)
   iso        0.161438D+02      0.239226D+01      0.266175D+01
   aniso      0.234282D+02      0.347170D+01      0.386278D+01
   xx         0.317625D+02      0.470672D+01      0.523693D+01
   yx        -0.109646D-02     -0.162478D-03     -0.180782D-03
   yy         0.833466D+01      0.123507D+01      0.137420D+01
   zx        -0.209718D-03     -0.310770D-04     -0.345778D-04
   zy        -0.846210D-03     -0.125395D-03     -0.139521D-03
   zz         0.833408D+01      0.123498D+01      0.137410D+01

 First dipole hyperpolarizability, Beta (input orientation).
 ||, _|_  parallel and perpendicular components, (z) with respect to z axis,
 vector components x,y,z.  Values do not include the 1/n! factor of 1/2.
 (esu units = statvolt**-1 cm**4 , SI units = C**3 m**3 J**-2)
 Beta(0;0,0):
               (au)            (10**-30 esu)      (10**-50 SI)
   || (z)    -0.361431D-02     -0.312248D-04     -0.115888D-04
   _|_(z)    -0.120477D-02     -0.104083D-04     -0.386293D-05
   x         -0.853840D+00     -0.737652D-02     -0.273772D-02
   y         -0.314679D-01     -0.271858D-03     -0.100897D-03
   z         -0.180715D-01     -0.156124D-03     -0.579439D-04
   ||         0.170922D+00      0.147664D-02      0.548038D-03
   xxx       -0.284550D+00     -0.245829D-02     -0.912369D-03
   xxy       -0.671471D-02     -0.580098D-04     -0.215298D-04
   yxy        0.497285D-03      0.429616D-05      0.159448D-05
   yyy        0.124100D+02      0.107213D+00      0.397910D-01
   xxz       -0.378981D-02     -0.327410D-04     -0.121515D-04
   yxz       -0.664427D-03     -0.574014D-05     -0.213039D-05
   yyz       -0.105583D+02     -0.912152D-01     -0.338536D-01
   zxz       -0.561038D-03     -0.484693D-05     -0.179889D-05
   zyz       -0.124138D+02     -0.107245D+00     -0.398031D-01
   zzz        0.105560D+02      0.911959D-01      0.338465D-01

 ----------------------------------------------------------------------

 Dipole orientation:
     9         -0.07054617         -0.13868386         -3.06924338
     6         -0.00002299         -0.00054296          0.00000479
     1          1.99797315         -0.49924973         -0.02358895
     1         -0.56893676          1.97728117         -0.07611668
     1         -1.42926519         -1.47995841          0.09938184
     9          0.07056612          0.13772728          3.06867923

 Electric dipole moment (dipole orientation):
 (Debye = 10**-18 statcoulomb cm , SI units = C m)
                  (au)            (Debye)         (10**-30 SI)
   Tot        0.118946D-02      0.302332D-02      0.100847D-01
   x          0.000000D+00      0.000000D+00      0.000000D+00
   y          0.000000D+00      0.000000D+00      0.000000D+00
   z          0.118946D-02      0.302332D-02      0.100847D-01

 Dipole polarizability, Alpha (dipole orientation).
 (esu units = cm**3 , SI units = C**2 m**2 J**-1)
 Alpha(0;0):
               (au)            (10**-24 esu)      (10**-40 SI)
   iso        0.161438D+02      0.239226D+01      0.266175D+01
   aniso      0.234282D+02      0.347170D+01      0.386278D+01
   xx         0.834651D+01      0.123682D+01      0.137615D+01
   yx         0.233247D-01      0.345636D-02      0.384572D-02
   yy         0.838197D+01      0.124208D+01      0.138200D+01
   zx         0.537279D+00      0.796165D-01      0.885853D-01
   zy         0.105232D+01      0.155937D+00      0.173504D+00
   zz         0.317028D+02      0.469787D+01      0.522708D+01

 First dipole hyperpolarizability, Beta (dipole orientation).
 ||, _|_  parallel and perpendicular components, (z) with respect to z axis,
 vector components x,y,z.  Values do not include the 1/n! factor of 1/2.
 (esu units = statvolt**-1 cm**4 , SI units = C**3 m**3 J**-2)
 Beta(0;0,0):
               (au)            (10**-30 esu)      (10**-50 SI)
   || (z)     0.170917D+00      0.147659D-02      0.548021D-03
   _|_(z)     0.569723D-01      0.492196D-03      0.182674D-03
   x          0.296394D-02      0.256061D-04      0.950345D-05
   y          0.616170D-02      0.532322D-04      0.197566D-04
   z          0.854584D+00      0.738294D-02      0.274010D-02
   ||         0.170922D+00      0.147664D-02      0.548038D-03
   xxx        0.121197D+02      0.104705D+00      0.388601D-01
   xxy       -0.108773D+02     -0.939717D-01     -0.348766D-01
   yxy       -0.120811D+02     -0.104372D+00     -0.387365D-01
   yyy        0.108821D+02      0.940133D-01      0.348921D-01
   xxz        0.211249D+00      0.182502D-02      0.677340D-03
   yxz        0.794136D+00      0.686072D-02      0.254629D-02
   yyz       -0.212341D+00     -0.183446D-02     -0.680843D-03
   zxz       -0.375647D-01     -0.324530D-03     -0.120446D-03
   zyz       -0.276260D-02     -0.238668D-04     -0.885791D-05
   zzz        0.285954D+00      0.247042D-02      0.916871D-03

 ----------------------------------------------------------------------

 Test job not archived.
 1\1\GINC-NODE34\Freq\RPM3\ZDO\C1H3F2(1-)\RPEVERATI\21-Oct-2020\0\\#P F
 req PM3 5D 7F Integral=UltraFineGrid SCF=(NoSymm,XQC,MaxCyc=120) IOp(1
 /33=1) Geom=Check Guess=Read\\TS search on BH76.\\-1,1\F,1.6262593381,
 -0.0003259421,-0.0000175603\C,0.0000106578,-0.0002863203,-0.0000248147
 \H,0.0000676237,-0.3106228355,1.0446585013\H,0.0001304027,1.0595603295
 ,-0.253786135\H,0.0000216937,-0.7499422374,-0.7910337433\F,-1.62593867
 85,-0.0001666395,0.0000133408\\Version=ES64L-G16RevA.03\State=1-A\HF=-
 0.0764634\RMSD=6.489e-10\RMSF=2.610e-05\ZeroPoint=0.035284\Thermal=0.0
 394443\Dipole=-0.0011879,-0.0000522,-0.0000296\DipoleDeriv=-2.3424587,
 0.0000825,0.0000154,0.0000373,-0.6671897,-0.0000017,-0.000009,-0.00000
 17,-0.6671913,4.2313255,-0.0001904,-0.0000374,-0.0001822,0.5055091,-0.
 0000027,-0.0000353,-0.0000027,0.5055067,-0.1822197,-0.0000116,0.000065
 8,-0.0000053,-0.0339682,0.0150994,0.0000472,0.0150865,-0.0802821,-0.18
 22297,0.0000725,-0.0000141,0.0000519,-0.0817595,0.0125154,-0.0000088,0
 .0125242,-0.032477,-0.1821951,-0.0000385,-0.0000471,-0.0000257,-0.0556
 592,-0.0276099,-0.0000342,-0.0276057,-0.0586244,-2.3422215,0.0000856,0
 .0000175,0.000124,-0.6669351,-0.0000004,0.0000401,-0.0000004,-0.666934
 8\Polar=31.762533,-0.0010965,8.33466,-0.0002097,-0.0008462,8.334077\Hy
 perPolar=-0.2845497,-0.0067147,0.0004973,12.4100124,-0.0037898,-0.0006
 644,-10.5582671,-0.000561,-12.413787,10.5560331\PG=C01 [X(C1H3F2)]\NIm
 ag=1\\0.00350996,-0.00000474,0.01711968,-0.00000243,-0.00000249,0.0171
 1769,0.14720676,-0.00000245,0.00000145,-0.32318456,-0.00000944,-0.0207
 5894,-0.00000039,0.00004667,0.57012515,-0.00000226,-0.00000039,-0.0207
 5925,0.00000922,-0.00003583,0.57010106,-0.02423935,-0.00353538,0.01190
 724,0.00965867,0.00000124,-0.00001421,0.03768202,-0.00367445,0.0029854
 1,0.00216141,0.00000424,-0.06800939,0.07048986,-0.00001120,0.05532150,
 0.01236928,0.00216071,-0.00364949,-0.00002509,0.07048792,-0.28436470,0
 .00003683,-0.07987387,0.30052043,-0.02424291,0.01208219,-0.00289199,0.
 00966291,-0.00003093,0.00000618,0.00058199,0.00000223,0.00000053,0.037
 68543,0.01255298,-0.00386463,0.00179339,-0.00004262,-0.29130491,0.0584
 7506,0.00000025,-0.00102466,0.00142112,0.00005194,0.30838057,-0.003006
 03,0.00179389,0.00319809,0.00000888,0.05847643,-0.06107145,0.00000303,
 0.01710131,-0.00002819,-0.00001254,-0.06626189,0.04745838,-0.02423050,
 -0.00854122,-0.00901367,0.00964815,-0.00000038,0.00000203,0.00058334,-
 0.00000179,-0.00000074,0.00058296,-0.00000114,-0.00000266,0.03767414,-
 0.00887073,-0.00011792,-0.00395156,0.00000688,-0.16925671,-0.12892838,
 -0.00000106,0.00774109,0.00363806,0.00000112,-0.00831325,-0.01290678,-
 0.00001921,0.17007157,-0.00936072,-0.00395136,-0.00054319,0.00000985,-
 0.12892783,-0.18311028,0.00000094,-0.01204549,-0.00881760,-0.00000118,
 0.00277570,0.00724349,-0.00002006,0.14610951,0.18577711,-0.07800399,0.
 00000160,-0.00000059,0.14700801,-0.00000716,-0.00000097,-0.02426666,0.
 00368096,-0.01238081,-0.02427036,-0.01256141,0.00300933,-0.02425808,0.
 00888299,0.00937116,0.00379109,0.00000637,0.00463654,-0.00000036,-0.00
 001272,-0.02079572,-0.00000030,0.00354615,0.00298608,0.00216600,-0.012
 10656,-0.00387304,0.00179708,0.00856375,-0.00012466,-0.00396054,0.0000
 0301,0.01717093,0.00000213,-0.00000036,0.00463629,-0.00000432,-0.00000
 030,-0.02079589,-0.01193383,0.00216679,-0.00366043,0.00289900,0.001796
 53,0.00319976,0.00903511,-0.00396078,-0.00054940,0.00000191,-0.0000018
 9,0.01716980\\-0.00000671,0.00000099,0.00000044,0.00008664,0.00001141,
 0.00000699,-0.00000915,-0.00000239,-0.00002338,-0.00000859,-0.00002288
 ,-0.00000115,-0.00000963,0.00001247,0.00001680,-0.00005256,0.00000041,
 0.00000030\\\@


 Make no judgements where you have no compassion.
                               -- Anne McCaffrey
 Job cpu time:       0 days  0 hours  1 minutes 36.1 seconds.
 Elapsed time:       0 days  0 hours  0 minutes 22.0 seconds.
 File lengths (MBytes):  RWF=      5 Int=      0 D2E=      0 Chk=      2 Scr=      1
 Normal termination of Gaussian 16 at Wed Oct 21 14:24:34 2020.
