 Entering Gaussian System, Link 0=g16
 Input=MN_50_hco_BH76_PM3_SE.in
 Output=MN_50_hco_BH76_PM3_SE.log
 Initial command:
 /udrive/faculty/rpeverati/g16/g16/l1.exe "/udrive/scratch-directories/gaussian09/rpeverati/Gau-29334.inp" -scrdir="/udrive/scratch-directories/gaussian09/rpeverati/"
 Entering Link 1 = /udrive/faculty/rpeverati/g16/g16/l1.exe PID=     29335.
  
 Copyright (c) 1988,1990,1992,1993,1995,1998,2003,2009,2016,
            Gaussian, Inc.  All Rights Reserved.
  
 This is part of the Gaussian(R) 16 program.  It is based on
 the Gaussian(R) 09 system (copyright 2009, Gaussian, Inc.),
 the Gaussian(R) 03 system (copyright 2003, Gaussian, Inc.),
 the Gaussian(R) 98 system (copyright 1998, Gaussian, Inc.),
 the Gaussian(R) 94 system (copyright 1995, Gaussian, Inc.),
 the Gaussian 92(TM) system (copyright 1992, Gaussian, Inc.),
 the Gaussian 90(TM) system (copyright 1990, Gaussian, Inc.),
 the Gaussian 88(TM) system (copyright 1988, Gaussian, Inc.),
 the Gaussian 86(TM) system (copyright 1986, Carnegie Mellon
 University), and the Gaussian 82(TM) system (copyright 1983,
 Carnegie Mellon University). Gaussian is a federally registered
 trademark of Gaussian, Inc.
  
 This software contains proprietary and confidential information,
 including trade secrets, belonging to Gaussian, Inc.
  
 This software is provided under written license and may be
 used, copied, transmitted, or stored only in accord with that
 written license.
  
 The following legend is applicable only to US Government
 contracts under FAR:
  
                    RESTRICTED RIGHTS LEGEND
  
 Use, reproduction and disclosure by the US Government is
 subject to restrictions as set forth in subparagraphs (a)
 and (c) of the Commercial Computer Software - Restricted
 Rights clause in FAR 52.227-19.
  
 Gaussian, Inc.
 340 Quinnipiac St., Bldg. 40, Wallingford CT 06492
  
  
 ---------------------------------------------------------------
 Warning -- This program may not be used in any manner that
 competes with the business of Gaussian, Inc. or will provide
 assistance to any competitor of Gaussian, Inc.  The licensee
 of this program is prohibited from giving any competitor of
 Gaussian, Inc. access to this program.  By using this program,
 the user acknowledges that Gaussian, Inc. is engaged in the
 business of creating and licensing software in the field of
 computational chemistry and represents and warrants to the
 licensee that it is not a competitor of Gaussian, Inc. and that
 it will not use this program in any manner prohibited above.
 ---------------------------------------------------------------
  

 Cite this work as:
 Gaussian 16, Revision A.03,
 M. J. Frisch, G. W. Trucks, H. B. Schlegel, G. E. Scuseria, 
 M. A. Robb, J. R. Cheeseman, G. Scalmani, V. Barone, 
 G. A. Petersson, H. Nakatsuji, X. Li, M. Caricato, A. V. Marenich, 
 J. Bloino, B. G. Janesko, R. Gomperts, B. Mennucci, H. P. Hratchian, 
 J. V. Ortiz, A. F. Izmaylov, J. L. Sonnenberg, D. Williams-Young, 
 F. Ding, F. Lipparini, F. Egidi, J. Goings, B. Peng, A. Petrone, 
 T. Henderson, D. Ranasinghe, V. G. Zakrzewski, J. Gao, N. Rega, 
 G. Zheng, W. Liang, M. Hada, M. Ehara, K. Toyota, R. Fukuda, 
 J. Hasegawa, M. Ishida, T. Nakajima, Y. Honda, O. Kitao, H. Nakai, 
 T. Vreven, K. Throssell, J. A. Montgomery, Jr., J. E. Peralta, 
 F. Ogliaro, M. J. Bearpark, J. J. Heyd, E. N. Brothers, K. N. Kudin, 
 V. N. Staroverov, T. A. Keith, R. Kobayashi, J. Normand, 
 K. Raghavachari, A. P. Rendell, J. C. Burant, S. S. Iyengar, 
 J. Tomasi, M. Cossi, J. M. Millam, M. Klene, C. Adamo, R. Cammi, 
 J. W. Ochterski, R. L. Martin, K. Morokuma, O. Farkas, 
 J. B. Foresman, and D. J. Fox, Gaussian, Inc., Wallingford CT, 2016.
 
 ******************************************
 Gaussian 16:  ES64L-G16RevA.03 25-Dec-2016
                21-Oct-2020 
 ******************************************
 %NoSave
 %nproc=12
 Will use up to   12 processors via shared memory.
 %mem=20GB
 %chk=MN_50_hco_BH76_PM3_SE
 ----------------------------------------------------------------------
 #P Opt(MaxCyc=150) PM3 5D 7F Integral=UltraFineGrid SCF=(NoSymm,XQC,Ma
 xCyc=120) IOp(1/33=1)
 ----------------------------------------------------------------------
 1/6=150,18=20,19=15,26=1,33=1,38=1/1,3;
 2/9=110,12=2,17=6,18=5,40=1/2;
 3/5=2,8=11,25=1,41=800000,71=1,75=-5/1,2,3;
 4/9=2,35=1/1;
 5/5=2,7=120,8=3,13=1,35=1,38=5/2,8;
 6/7=2,8=2,9=2,10=2,28=1/1;
 7//1,2,3,16;
 1/6=150,18=20,19=15,26=1,33=1/3(2);
 2/9=110/2;
 99//99;
 2/9=110/2;
 3/5=2,8=11,25=1,41=800000,71=1,75=-5,135=20/1,2,3;
 4/5=5,9=2,16=3,35=1/1;
 5/5=2,7=120,8=3,13=1,35=1,38=5/2,8;
 7//1,2,3,16;
 1/6=150,18=20,19=15,26=1,33=1/3(-5);
 2/9=110/2;
 6/7=2,8=2,9=2,10=2,19=2,28=1/1;
 99/9=1/99;
 Leave Link    1 at Wed Oct 21 14:21:40 2020, MaxMem=  2684354560 cpu:              11.8 elap:               1.1
 (Enter /udrive/faculty/rpeverati/g16/g16/l101.exe)
 ONIOM data not found on unit 2.
 ------------------
 TS search on BH76.
 ------------------
 TstMul:  ICh=     0
 TstMul:  Mul=     2
 TstMul:  ICh=     0
 TstMul:  Mul=     2
 Symbolic Z-matrix:
 Charge =  0 Multiplicity = 2
 H                    -0.85205   1.22789   0. 
 C                     0.06086   0.58466   0. 
 O                     0.06086  -0.59197   0. 
 
 RdStrC is calling ZToCFu for IStruc=1 NZ=     3.
 PrtBox:  NBox=     1 Levels=  1 BoxLen=    8.00 SMaxX=        3.44
          Shift=            1.610150            1.118670            0.000000
 Box      1 Number                   0 centers from      1 to      3:
 After GenITR:
 ITRead=  0  0  0
 MicOpt= -1 -1 -1
 ITRead=  0  0  0
 MicOpt= -1 -1 -1
 NAtoms=      3 NQM=        3 NQMF=       0 NMMI=      0 NMMIF=      0
                NMic=       0 NMicF=      0.
                    Isotopes and Nuclear Properties:
 (Nuclear quadrupole moments (NQMom) in fm**2, nuclear magnetic moments (NMagM)
  in nuclear magnetons)

  Atom         1           2           3
 IAtWgt=           1          12          16
 AtmWgt=   1.0078250  12.0000000  15.9949146
 NucSpn=           1           0           0
 AtZEff=   0.0000000   0.0000000   0.0000000
 NQMom=    0.0000000   0.0000000   0.0000000
 NMagM=    2.7928460   0.0000000   0.0000000
 AtZNuc=   1.0000000   6.0000000   8.0000000
 No MM parameters found.
 Leave Link  101 at Wed Oct 21 14:21:41 2020, MaxMem=  2684354560 cpu:               5.1 elap:               0.7
 (Enter /udrive/faculty/rpeverati/g16/g16/l103.exe)

 GradGradGradGradGradGradGradGradGradGradGradGradGradGradGradGradGradGrad
 Berny optimization.
 Optmz: redundant internal coordinate code flag= 1
 Initialization pass.
                           ----------------------------
                           !    Initial Parameters    !
                           ! (Angstroms and Degrees)  !
 --------------------------                            --------------------------
 ! Name  Definition              Value          Derivative Info.                !
 --------------------------------------------------------------------------------
 ! R1    R(1,2)                  1.1168         estimate D2E/DX2                !
 ! R2    R(2,3)                  1.1766         estimate D2E/DX2                !
 ! A1    A(1,2,3)              125.1683         estimate D2E/DX2                !
 --------------------------------------------------------------------------------
 Maximum allowed force set to 1.00D+20.
 Trust Radius=3.00D-01 FncErr=1.00D-07 GrdErr=1.00D-07 EigMax=2.50D+02 EigMin=1.00D-04
 Number of steps in this run=    100 maximum allowed number of steps=    100.
 GradGradGradGradGradGradGradGradGradGradGradGradGradGradGradGradGradGrad

 Leave Link  103 at Wed Oct 21 14:21:42 2020, MaxMem=  2684354560 cpu:               1.3 elap:               0.6
 (Enter /udrive/faculty/rpeverati/g16/g16/l202.exe)
                          Input orientation:                          
 ---------------------------------------------------------------------
 Center     Atomic      Atomic             Coordinates (Angstroms)
 Number     Number       Type             X           Y           Z
 ---------------------------------------------------------------------
      1          1           0       -0.852055    1.227892    0.000000
      2          6           0        0.060861    0.584656    0.000000
      3          8           0        0.060861   -0.591975    0.000000
 ---------------------------------------------------------------------
                    Distance matrix (angstroms):
                    1          2          3
     1  H    0.000000
     2  C    1.116767   0.000000
     3  O    2.036009   1.176631   0.000000
 Stoichiometry    CHO(2)
 Framework group  CS[SG(CHO)]
 Deg. of freedom     3
 Full point group                 CS      NOp   2
 Largest Abelian subgroup         CS      NOp   2
 Largest concise Abelian subgroup C1      NOp   1
                         Standard orientation:                         
 ---------------------------------------------------------------------
 Center     Atomic      Atomic             Coordinates (Angstroms)
 Number     Number       Type             X           Y           Z
 ---------------------------------------------------------------------
      1          1           0       -0.852055    1.227890    0.000000
      2          6           0        0.060861    0.584654    0.000000
      3          8           0        0.060861   -0.591977    0.000000
 ---------------------------------------------------------------------
 Rotational constants (GHZ):         742.4426916          44.7013050          42.1627521
 Leave Link  202 at Wed Oct 21 14:21:43 2020, MaxMem=  2684354560 cpu:               1.2 elap:               0.6
 (Enter /udrive/faculty/rpeverati/g16/g16/l301.exe)
 Standard basis: VSTO-6G (5D, 7F)
 Ernie: Thresh=  0.10000D-02 Tol=  0.10000D-05 Strict=F.
  NNHCO=     0 NNPyr=     0 NCTC=     0               EPep=         0.000000000
    EC=        10.633311579  ECS=         0.606773673   EG=         0.078988320
   EHC=         0.000000000  EAt=       -15.201190384  AtH=         0.450273680
 EPDDG=         0.000000000  ECC=        11.319073572 EAtT=        15.651464064
 There are     7 symmetry adapted cartesian basis functions of A'  symmetry.
 There are     2 symmetry adapted cartesian basis functions of A"  symmetry.
 There are     7 symmetry adapted basis functions of A'  symmetry.
 There are     2 symmetry adapted basis functions of A"  symmetry.
     9 basis functions,    54 primitive gaussians,     9 cartesian basis functions
     6 alpha electrons        5 beta electrons
       nuclear repulsion energy        26.9705376363 Hartrees.
 IExCor=    0 DFT=F Ex=HF Corr=None ExCW=0 ScaHFX=  1.000000
 ScaDFX=  1.000000  1.000000  1.000000  1.000000 ScalE2=  1.000000  1.000000
 IRadAn=      5 IRanWt=     -1 IRanGd=            0 ICorTp=0 IEmpDi=  4
 Integral buffers will be    131072 words long.
 Regular integral format.
 Two-electron integral symmetry is turned off.
 Leave Link  301 at Wed Oct 21 14:21:44 2020, MaxMem=  2684354560 cpu:               2.4 elap:               0.6
 (Enter /udrive/faculty/rpeverati/g16/g16/l302.exe)
 Do NDO integrals.
 NPDir=0 NMtPBC=     1 NCelOv=     1 NCel=       1 NClECP=     1 NCelD=      1
         NCelK=      1 NCelE2=     1 NClLst=     1 CellRange=     0.0.
 One-electron integrals computed using PRISM.
 NBasis=     9 RedAO= T EigKep=  1.00D+00  NBF=     7     2
 NBsUse=     9 1.00D-06 EigRej= -1.00D+00 NBFU=     7     2
 Leave Link  302 at Wed Oct 21 14:21:46 2020, MaxMem=  2684354560 cpu:               2.1 elap:               0.6
 (Enter /udrive/faculty/rpeverati/g16/g16/l303.exe)
 DipDrv:  MaxL=1.
 Leave Link  303 at Wed Oct 21 14:21:47 2020, MaxMem=  2684354560 cpu:               1.6 elap:               0.7
 (Enter /udrive/faculty/rpeverati/g16/g16/l401.exe)
 SCF N**3 symmetry information disabled.
 Simple Huckel Guess.
 JPrj=0 DoOrth=F DoCkMO=F.
 Initial guess orbital symmetries:
 Alpha Orbitals:
       Occupied  (A') (A') (A') (A") (A') (A')
       Virtual   (A") (A') (A')
 Beta  Orbitals:
       Occupied  (A') (A') (A') (A") (A')
       Virtual   (A') (A") (A') (A')
 The electronic state of the initial guess is 2-A'.
 Initial guess <Sx>= 0.0000 <Sy>= 0.0000 <Sz>= 0.5000 <S**2>= 0.7500 S= 0.5000
 Leave Link  401 at Wed Oct 21 14:21:48 2020, MaxMem=  2684354560 cpu:               1.3 elap:               0.7
 (Enter /udrive/faculty/rpeverati/g16/g16/l502.exe)
 Keep J ints in memory in canonical form, NReq=859290.
 FoFCou: FMM=F IPFlag=           0 FMFlag=           0 FMFlg1=           0
         NFxFlg=           0 DoJE=F BraDBF=F KetDBF=F FulRan=T
         wScrn=  0.000000 ICntrl=       600 IOpCl=  2 I1Cent=           0 NGrid=           0
         NMat0=    1 NMatS0=     21 NMatT0=    0 NMatD0=    1 NMtDS0=    0 NMtDT0=    0
 Symmetry not used in FoFCou.
 Two-electron integral symmetry not used.
 UHF open shell SCF:
 Using DIIS extrapolation, IDIIS=  1040.
 Overlap will be assumed to be unity.
 NGot=  2684354560 LenX=  2684293973 LenY=  2684293091
 Requested convergence on RMS density matrix=1.00D-08 within 120 cycles.
 Requested convergence on MAX density matrix=1.00D-06.
 Requested convergence on             energy=1.00D-06.
 No special actions if energy rises.

 Cycle   1  Pass 1  IDiag  1:
 E= 0.136674842846375    
 DIIS: error= 6.61D-02 at cycle   1 NSaved=   1.
 NSaved= 1 IEnMin= 1 EnMin= 0.136674842846375     IErMin= 1 ErrMin= 6.61D-02
 ErrMax= 6.61D-02  0.00D+00 EMaxC= 1.00D-01 BMatC= 1.96D-01 BMatP= 1.96D-01
 IDIUse=3 WtCom= 3.39D-01 WtEn= 6.61D-01
 Coeff-Com:  0.100D+01
 Coeff-En:   0.100D+01
 Coeff:      0.100D+01
 GapD=    2.000 DampG=2.000 DampE=0.500 DampFc=1.0000 IDamp=-1.
 RMSDP=3.68D-02 MaxDP=1.25D-01              OVMax= 0.00D+00

 Cycle   2  Pass 1  IDiag  1:
 E= 0.412054544020535E-02 Delta-E=       -0.132554297406 Rises=F Damp=F
 DIIS: error= 1.78D-02 at cycle   2 NSaved=   2.
 NSaved= 2 IEnMin= 2 EnMin= 0.412054544020535E-02 IErMin= 2 ErrMin= 1.78D-02
 ErrMax= 1.78D-02  0.00D+00 EMaxC= 1.00D-01 BMatC= 1.83D-02 BMatP= 1.96D-01
 IDIUse=3 WtCom= 8.22D-01 WtEn= 1.78D-01
 Coeff-Com: -0.381D+00 0.138D+01
 Coeff-En:   0.000D+00 0.100D+01
 Coeff:     -0.313D+00 0.131D+01
 RMSDP=1.58D-02 MaxDP=5.78D-02 DE=-1.33D-01 OVMax= 0.00D+00

 Cycle   3  Pass 1  IDiag  3:
 E=-0.114746154534657E-01 Delta-E=       -0.015595160894 Rises=F Damp=F
 DIIS: error= 4.82D-03 at cycle   3 NSaved=   3.
 NSaved= 3 IEnMin= 3 EnMin=-0.114746154534657E-01 IErMin= 3 ErrMin= 4.82D-03
 ErrMax= 4.82D-03  0.00D+00 EMaxC= 1.00D-01 BMatC= 8.90D-04 BMatP= 1.83D-02
 IDIUse=3 WtCom= 9.52D-01 WtEn= 4.82D-02
 Coeff-Com:  0.160D+00-0.713D+00 0.155D+01
 Coeff-En:   0.000D+00 0.000D+00 0.100D+01
 Coeff:      0.153D+00-0.678D+00 0.153D+01
 Gap=     0.366 Goal=   None    Shift=    0.000
 Gap=     0.523 Goal=   None    Shift=    0.000
 RMSDP=6.44D-03 MaxDP=3.57D-02 DE=-1.56D-02 OVMax= 4.69D-02

 Cycle   4  Pass 1  IDiag  3:
 E=-0.131015127107048E-01 Delta-E=       -0.001626897257 Rises=F Damp=F
 DIIS: error= 3.05D-03 at cycle   4 NSaved=   4.
 NSaved= 4 IEnMin= 4 EnMin=-0.131015127107048E-01 IErMin= 4 ErrMin= 3.05D-03
 ErrMax= 3.05D-03  0.00D+00 EMaxC= 1.00D-01 BMatC= 1.64D-04 BMatP= 8.90D-04
 IDIUse=3 WtCom= 9.69D-01 WtEn= 3.05D-02
 Coeff-Com: -0.119D+00 0.554D+00-0.152D+01 0.209D+01
 Coeff-En:   0.000D+00 0.000D+00 0.000D+00 0.100D+01
 Coeff:     -0.115D+00 0.537D+00-0.148D+01 0.205D+01
 Gap=     0.367 Goal=   None    Shift=    0.000
 Gap=     0.527 Goal=   None    Shift=    0.000
 RMSDP=4.66D-03 MaxDP=2.84D-02 DE=-1.63D-03 OVMax= 3.83D-02

 Cycle   5  Pass 1  IDiag  3:
 E=-0.135992133308562E-01 Delta-E=       -0.000497700620 Rises=F Damp=F
 DIIS: error= 1.09D-03 at cycle   5 NSaved=   5.
 NSaved= 5 IEnMin= 5 EnMin=-0.135992133308562E-01 IErMin= 5 ErrMin= 1.09D-03
 ErrMax= 1.09D-03  0.00D+00 EMaxC= 1.00D-01 BMatC= 2.83D-05 BMatP= 1.64D-04
 IDIUse=3 WtCom= 9.89D-01 WtEn= 1.09D-02
 Coeff-Com:  0.421D-01-0.215D+00 0.742D+00-0.156D+01 0.199D+01
 Coeff-En:   0.000D+00 0.000D+00 0.000D+00 0.000D+00 0.100D+01
 Coeff:      0.417D-01-0.212D+00 0.734D+00-0.154D+01 0.198D+01
 Gap=     0.368 Goal=   None    Shift=    0.000
 Gap=     0.528 Goal=   None    Shift=    0.000
 RMSDP=2.42D-03 MaxDP=1.49D-02 DE=-4.98D-04 OVMax= 1.94D-02

 Cycle   6  Pass 1  IDiag  3:
 E=-0.136832237842945E-01 Delta-E=       -0.000084010453 Rises=F Damp=F
 DIIS: error= 1.48D-04 at cycle   6 NSaved=   6.
 NSaved= 6 IEnMin= 6 EnMin=-0.136832237842945E-01 IErMin= 6 ErrMin= 1.48D-04
 ErrMax= 1.48D-04  0.00D+00 EMaxC= 1.00D-01 BMatC= 1.05D-06 BMatP= 2.83D-05
 IDIUse=3 WtCom= 9.99D-01 WtEn= 1.48D-03
 Coeff-Com: -0.600D-02 0.316D-01-0.119D+00 0.279D+00-0.494D+00 0.131D+01
 Coeff-En:   0.000D+00 0.000D+00 0.000D+00 0.000D+00 0.000D+00 0.100D+01
 Coeff:     -0.599D-02 0.316D-01-0.119D+00 0.279D+00-0.494D+00 0.131D+01
 Gap=     0.368 Goal=   None    Shift=    0.000
 Gap=     0.528 Goal=   None    Shift=    0.000
 RMSDP=3.10D-04 MaxDP=1.72D-03 DE=-8.40D-05 OVMax= 2.22D-03

 Cycle   7  Pass 1  IDiag  3:
 E=-0.136854398868493E-01 Delta-E=       -0.000002216103 Rises=F Damp=F
 DIIS: error= 7.76D-05 at cycle   7 NSaved=   7.
 NSaved= 7 IEnMin= 7 EnMin=-0.136854398868493E-01 IErMin= 7 ErrMin= 7.76D-05
 ErrMax= 7.76D-05  0.00D+00 EMaxC= 1.00D-01 BMatC= 2.02D-07 BMatP= 1.05D-06
 IDIUse=1 WtCom= 1.00D+00 WtEn= 0.00D+00
 Coeff-Com:  0.801D-03-0.498D-02 0.249D-01-0.731D-01 0.199D+00-0.106D+01
 Coeff-Com:  0.191D+01
 Coeff:      0.801D-03-0.498D-02 0.249D-01-0.731D-01 0.199D+00-0.106D+01
 Coeff:      0.191D+01
 Gap=     0.368 Goal=   None    Shift=    0.000
 Gap=     0.528 Goal=   None    Shift=    0.000
 RMSDP=1.38D-04 MaxDP=6.53D-04 DE=-2.22D-06 OVMax= 8.88D-04

 Cycle   8  Pass 1  IDiag  3:
 E=-0.136859305395447E-01 Delta-E=       -0.000000490653 Rises=F Damp=F
 DIIS: error= 4.18D-05 at cycle   8 NSaved=   8.
 NSaved= 8 IEnMin= 8 EnMin=-0.136859305395447E-01 IErMin= 8 ErrMin= 4.18D-05
 ErrMax= 4.18D-05  0.00D+00 EMaxC= 1.00D-01 BMatC= 2.92D-08 BMatP= 2.02D-07
 IDIUse=1 WtCom= 1.00D+00 WtEn= 0.00D+00
 Coeff-Com: -0.380D-03 0.239D-02-0.126D-01 0.393D-01-0.120D+00 0.730D+00
 Coeff-Com: -0.158D+01 0.194D+01
 Coeff:     -0.380D-03 0.239D-02-0.126D-01 0.393D-01-0.120D+00 0.730D+00
 Coeff:     -0.158D+01 0.194D+01
 Gap=     0.368 Goal=   None    Shift=    0.000
 Gap=     0.528 Goal=   None    Shift=    0.000
 RMSDP=5.74D-05 MaxDP=3.24D-04 DE=-4.91D-07 OVMax= 3.43D-04

 Cycle   9  Pass 1  IDiag  3:
 E=-0.136860099918934E-01 Delta-E=       -0.000000079452 Rises=F Damp=F
 DIIS: error= 1.67D-05 at cycle   9 NSaved=   9.
 NSaved= 9 IEnMin= 9 EnMin=-0.136860099918934E-01 IErMin= 9 ErrMin= 1.67D-05
 ErrMax= 1.67D-05  0.00D+00 EMaxC= 1.00D-01 BMatC= 5.10D-09 BMatP= 2.92D-08
 IDIUse=1 WtCom= 1.00D+00 WtEn= 0.00D+00
 Coeff-Com:  0.648D-04-0.644D-03 0.530D-02-0.193D-01 0.707D-01-0.501D+00
 Coeff-Com:  0.116D+01-0.185D+01 0.214D+01
 Coeff:      0.648D-04-0.644D-03 0.530D-02-0.193D-01 0.707D-01-0.501D+00
 Coeff:      0.116D+01-0.185D+01 0.214D+01
 Gap=     0.368 Goal=   None    Shift=    0.000
 Gap=     0.528 Goal=   None    Shift=    0.000
 RMSDP=2.94D-05 MaxDP=1.77D-04 DE=-7.95D-08 OVMax= 1.87D-04

 Cycle  10  Pass 1  IDiag  3:
 E=-0.136860251733211E-01 Delta-E=       -0.000000015181 Rises=F Damp=F
 DIIS: error= 5.49D-06 at cycle  10 NSaved=  10.
 NSaved=10 IEnMin=10 EnMin=-0.136860251733211E-01 IErMin=10 ErrMin= 5.49D-06
 ErrMax= 5.49D-06  0.00D+00 EMaxC= 1.00D-01 BMatC= 5.20D-10 BMatP= 5.10D-09
 IDIUse=1 WtCom= 1.00D+00 WtEn= 0.00D+00
 Coeff-Com: -0.226D-04 0.430D-03-0.452D-02 0.174D-01-0.681D-01 0.502D+00
 Coeff-Com: -0.118D+01 0.193D+01-0.248D+01 0.228D+01
 Coeff:     -0.226D-04 0.430D-03-0.452D-02 0.174D-01-0.681D-01 0.502D+00
 Coeff:     -0.118D+01 0.193D+01-0.248D+01 0.228D+01
 Gap=     0.368 Goal=   None    Shift=    0.000
 Gap=     0.528 Goal=   None    Shift=    0.000
 RMSDP=9.20D-06 MaxDP=5.05D-05 DE=-1.52D-08 OVMax= 5.62D-05

 Cycle  11  Pass 1  IDiag  3:
 E=-0.136860265497774E-01 Delta-E=       -0.000000001376 Rises=F Damp=F
 DIIS: error= 6.39D-07 at cycle  11 NSaved=  11.
 NSaved=11 IEnMin=11 EnMin=-0.136860265497774E-01 IErMin=11 ErrMin= 6.39D-07
 ErrMax= 6.39D-07  0.00D+00 EMaxC= 1.00D-01 BMatC= 1.73D-11 BMatP= 5.20D-10
 IDIUse=1 WtCom= 1.00D+00 WtEn= 0.00D+00
 Coeff-Com:  0.294D-04-0.359D-03 0.325D-02-0.120D-01 0.457D-01-0.332D+00
 Coeff-Com:  0.770D+00-0.126D+01 0.164D+01-0.164D+01 0.178D+01
 Coeff:      0.294D-04-0.359D-03 0.325D-02-0.120D-01 0.457D-01-0.332D+00
 Coeff:      0.770D+00-0.126D+01 0.164D+01-0.164D+01 0.178D+01
 Gap=     0.368 Goal=   None    Shift=    0.000
 Gap=     0.528 Goal=   None    Shift=    0.000
 RMSDP=1.26D-06 MaxDP=6.25D-06 DE=-1.38D-09 OVMax= 6.95D-06

 Cycle  12  Pass 1  IDiag  3:
 E=-0.136860265817944E-01 Delta-E=       -0.000000000032 Rises=F Damp=F
 DIIS: error= 1.14D-07 at cycle  12 NSaved=  12.
 NSaved=12 IEnMin=12 EnMin=-0.136860265817944E-01 IErMin=12 ErrMin= 1.14D-07
 ErrMax= 1.14D-07  0.00D+00 EMaxC= 1.00D-01 BMatC= 7.74D-13 BMatP= 1.73D-11
 IDIUse=1 WtCom= 1.00D+00 WtEn= 0.00D+00
 Coeff-Com: -0.547D-06 0.512D-04-0.638D-03 0.253D-02-0.996D-02 0.737D-01
 Coeff-Com: -0.170D+00 0.279D+00-0.371D+00 0.398D+00-0.538D+00 0.134D+01
 Coeff:     -0.547D-06 0.512D-04-0.638D-03 0.253D-02-0.996D-02 0.737D-01
 Coeff:     -0.170D+00 0.279D+00-0.371D+00 0.398D+00-0.538D+00 0.134D+01
 Gap=     0.368 Goal=   None    Shift=    0.000
 Gap=     0.528 Goal=   None    Shift=    0.000
 RMSDP=2.46D-07 MaxDP=9.67D-07 DE=-3.20D-11 OVMax= 1.69D-06

 Cycle  13  Pass 1  IDiag  3:
 E=-0.136860265830130E-01 Delta-E=       -0.000000000001 Rises=F Damp=F
 DIIS: error= 3.41D-08 at cycle  13 NSaved=  13.
 NSaved=13 IEnMin=13 EnMin=-0.136860265830130E-01 IErMin=13 ErrMin= 3.41D-08
 ErrMax= 3.41D-08  0.00D+00 EMaxC= 1.00D-01 BMatC= 5.74D-14 BMatP= 7.74D-13
 IDIUse=1 WtCom= 1.00D+00 WtEn= 0.00D+00
 Coeff-Com: -0.889D-06 0.346D-05 0.241D-06-0.319D-04 0.218D-03-0.205D-02
 Coeff-Com:  0.403D-02-0.680D-02 0.130D-01-0.248D-01 0.495D-01-0.444D+00
 Coeff-Com:  0.141D+01
 Coeff:     -0.889D-06 0.346D-05 0.241D-06-0.319D-04 0.218D-03-0.205D-02
 Coeff:      0.403D-02-0.680D-02 0.130D-01-0.248D-01 0.495D-01-0.444D+00
 Coeff:      0.141D+01
 Gap=     0.368 Goal=   None    Shift=    0.000
 Gap=     0.528 Goal=   None    Shift=    0.000
 RMSDP=5.23D-08 MaxDP=2.00D-07 DE=-1.22D-12 OVMax= 2.10D-07

 Cycle  14  Pass 1  IDiag  3:
 E=-0.136860265830876E-01 Delta-E=       -0.000000000000 Rises=F Damp=F
 DIIS: error= 7.55D-09 at cycle  14 NSaved=  14.
 NSaved=14 IEnMin=14 EnMin=-0.136860265830876E-01 IErMin=14 ErrMin= 7.55D-09
 ErrMax= 7.55D-09  0.00D+00 EMaxC= 1.00D-01 BMatC= 2.25D-15 BMatP= 5.74D-14
 IDIUse=1 WtCom= 1.00D+00 WtEn= 0.00D+00
 Coeff-Com:  0.804D-07-0.159D-05 0.151D-04-0.556D-04 0.198D-03-0.132D-02
 Coeff-Com:  0.348D-02-0.567D-02 0.525D-02 0.600D-03-0.984D-02 0.211D+00
 Coeff-Com: -0.821D+00 0.162D+01
 Coeff:      0.804D-07-0.159D-05 0.151D-04-0.556D-04 0.198D-03-0.132D-02
 Coeff:      0.348D-02-0.567D-02 0.525D-02 0.600D-03-0.984D-02 0.211D+00
 Coeff:     -0.821D+00 0.162D+01
 Gap=     0.368 Goal=   None    Shift=    0.000
 Gap=     0.528 Goal=   None    Shift=    0.000
 RMSDP=9.22D-09 MaxDP=3.33D-08 DE=-7.46D-14 OVMax= 3.70D-08

 Cycle  15  Pass 2  IDiag  1:
 SCF Done:  E(UPM3) = -0.136860265831E-01 A.U. after   15 cycles
            NFock= 14  Conv=0.92D-08     -V/T= 0.9995
 <Sx>= 0.0000 <Sy>= 0.0000 <Sz>= 0.5000 <S**2>= 0.7563 S= 0.5031
 <L.S>= 0.000000000000E+00
 KE=-2.508233569465D+01 PE=-2.063097390872D+01 EE= 1.872908594053D+01
 Annihilation of the first spin contaminant:
 S**2 before annihilation     0.7563,   after     0.7500
 Leave Link  502 at Wed Oct 21 14:21:50 2020, MaxMem=  2684354560 cpu:              10.2 elap:               1.6
 (Enter /udrive/faculty/rpeverati/g16/g16/l508.exe)
 QCSCF skips out because SCF is already converged.
 Leave Link  508 at Wed Oct 21 14:21:51 2020, MaxMem=  2684354560 cpu:               0.9 elap:               0.5
 (Enter /udrive/faculty/rpeverati/g16/g16/l601.exe)
 Copying SCF densities to generalized density rwf, IOpCl= 1 IROHF=0.

 **********************************************************************

            Population analysis using the SCF density.

 **********************************************************************

 Orbital symmetries:
 Alpha Orbitals:
       Occupied  (A') (A') (A') (A') (A") (A')
       Virtual   (A") (A') (A')
 Beta  Orbitals:
       Occupied  (A') (A') (A') (A") (A')
       Virtual   (A') (A") (A') (A')
 The electronic state is 2-A'.
 Alpha  occ. eigenvalues --   -1.42212  -0.83683  -0.63709  -0.56398  -0.55670
 Alpha  occ. eigenvalues --   -0.34647
 Alpha virt. eigenvalues --    0.02108   0.10022   0.22408
  Beta  occ. eigenvalues --   -1.41382  -0.80541  -0.60910  -0.55127  -0.51234
  Beta virt. eigenvalues --    0.01557   0.04178   0.13185   0.25441
          Condensed to atoms (all electrons):
               1          2          3
     1  H    0.944415   0.000000   0.000000
     2  C    0.000000   3.852881   0.000000
     3  O    0.000000   0.000000   6.202704
          Atomic-Atomic Spin Densities.
               1          2          3
     1  H    0.210750   0.000000   0.000000
     2  C    0.000000   0.597006   0.000000
     3  O    0.000000   0.000000   0.192244
 Mulliken charges and spin densities:
               1          2
     1  H    0.055585   0.210750
     2  C    0.147119   0.597006
     3  O   -0.202704   0.192244
 Sum of Mulliken charges =  -0.00000   1.00000
 Mulliken charges and spin densities with hydrogens summed into heavy atoms:
               1          2
     2  C    0.202704   0.807756
     3  O   -0.202704   0.192244
 Charge=             -0.0000 electrons
 Dipole moment (field-independent basis, Debye):
    X=             -0.9621    Y=              1.1640    Z=              0.0000  Tot=              1.5102
 N-N= 2.697053763626D+01 E-N=-2.063097391594D+01  KE=-2.508233569465D+01
 Leave Link  601 at Wed Oct 21 14:21:52 2020, MaxMem=  2684354560 cpu:               1.4 elap:               0.7
 (Enter /udrive/faculty/rpeverati/g16/g16/l701.exe)
 ... and contract with generalized density number  0.
 Compute integral first derivatives.
 Leave Link  701 at Wed Oct 21 14:21:53 2020, MaxMem=  2684354560 cpu:               2.0 elap:               0.6
 (Enter /udrive/faculty/rpeverati/g16/g16/l702.exe)
 L702 exits ... SP integral derivatives will be done elsewhere.
 Leave Link  702 at Wed Oct 21 14:21:54 2020, MaxMem=  2684354560 cpu:               1.3 elap:               0.7
 (Enter /udrive/faculty/rpeverati/g16/g16/l703.exe)
 Integral derivatives from FoFJK, PRISM(SPDF).
 Compute integral first derivatives, UseDBF=F ICtDFT=           0.
 Calling FoFJK, ICntrl=      2127 FMM=F ISym2X=1 I1Cent= 0 IOpClX= 1 NMat=1 NMatS=1 NMatT=0.
 FoFJK:  IHMeth= 9 ICntrl=    2127 DoSepK=F KAlg= 0 I1Cent=           0 FoldK=F
 IRaf=         0 NMat=       1 IRICut=       1 DoRegI=T DoRafI=F ISym2E= 1 IDoP0=3 IntGTp=3.
 FoFCou: FMM=F IPFlag=           0 FMFlag=      100000 FMFlg1=         800
         NFxFlg=           0 DoJE=F BraDBF=F KetDBF=F FulRan=T
         wScrn=  0.000000 ICntrl=      2127 IOpCl=  1 I1Cent=           0 NGrid=           0
         NMat0=    1 NMatS0=      1 NMatT0=    0 NMatD0=    1 NMtDS0=    0 NMtDT0=    0
 Petite list used in FoFCou.
 Leave Link  703 at Wed Oct 21 14:21:56 2020, MaxMem=  2684354560 cpu:               2.2 elap:               0.7
 (Enter /udrive/faculty/rpeverati/g16/g16/l716.exe)
 Dipole        =-3.78533389D-01 4.57955348D-01 5.43605038D-16
 ***** Axes restored to original set *****
 -------------------------------------------------------------------
 Center     Atomic                   Forces (Hartrees/Bohr)
 Number     Number              X              Y              Z
 -------------------------------------------------------------------
      1        1           0.016051012    0.000695337   -0.000000000
      2        6          -0.025365212   -0.023360646    0.000000000
      3        8           0.009314199    0.022665309    0.000000000
 -------------------------------------------------------------------
 Cartesian Forces:  Max     0.025365212 RMS     0.015083850
 Leave Link  716 at Wed Oct 21 14:21:56 2020, MaxMem=  2684354560 cpu:               2.0 elap:               0.5
 (Enter /udrive/faculty/rpeverati/g16/g16/l103.exe)

 GradGradGradGradGradGradGradGradGradGradGradGradGradGradGradGradGradGrad
 Berny optimization.
 Optmz: redundant internal coordinate code flag= 1
 FormGI is forming the generalized inverse of G from B-inverse, IUseBI=4.
 Internal  Forces:  Max     0.022665309 RMS     0.019187177
 Search for a local minimum.
 Step number   1 out of a maximum of  100
 All quantities printed in internal units (Hartrees-Bohrs-Radians)
 RMS Force = .19187D-01 SwitMx=.10000D-02 MixMth= 1
 Mixed Optimization -- RFO/linear search
 Second derivative matrix not updated -- first step.
 The second derivative matrix:
                          R1        R2        A1
           R1           0.31894
           R2           0.00000   1.17500
           A1           0.00000   0.00000   0.16000
 ITU=  0
 Eigenvectors of the second derivative matrix:
                           1         2         3
     Eigenvalues --     0.16000   0.31894   1.17500
   1         R1         0.00000   1.00000   0.00000
   2         R2         0.00000   0.00000  -1.00000
   3         A1         1.00000   0.00000  -0.00000
 Iter=   1 RLamda= 0.00000000D+00 Sum=-3.62526114D-03.
 Iter=   2 RLamda=-3.62526114D-03 Sum=-3.55882094D-03.
 Iter=   3 RLamda=-3.55882094D-03 Sum=-3.56001368D-03.
 Iter=   4 RLamda=-3.56001368D-03 Sum=-3.55999226D-03.
 Iter=   5 RLamda=-3.55999226D-03 Sum=-3.55999264D-03.
 RFO step:  Lambda=-3.55999226D-03 EMin= 1.60000000D-01
 Linear search not attempted -- first point.
 Iteration  1 RMS(Cart)=  0.07078393 RMS(Int)=  0.00370549
 Iteration  2 RMS(Cart)=  0.00384662 RMS(Int)=  0.00000198
 Iteration  3 RMS(Cart)=  0.00000177 RMS(Int)=  0.00000000
 Iteration  4 RMS(Cart)=  0.00000000 RMS(Int)=  0.00000000
 ITry= 1 IFail=0 DXMaxC= 8.31D-02 DCOld= 1.00D+10 DXMaxT= 3.00D-01 DXLimC= 3.00D+00 Rises=F
 ClnCor:  largest displacement from symmetrization is 0.00D+00 for atom     0.
 Variable       Old X    -DE/DX   Delta X   Delta X   Delta X     New X
                                 (Linear)    (Quad)   (Total)
    R1        2.11038  -0.01272   0.00000  -0.03944  -0.03944   2.07094
    R2        2.22351  -0.02267   0.00000  -0.01923  -0.01923   2.20428
    A1        2.18460   0.02071   0.00000   0.12662   0.12662   2.31122
         Item               Value     Threshold  Converged?
 Maximum Force            0.022665     0.000450     NO 
 RMS     Force            0.019187     0.000300     NO 
 Maximum Displacement     0.083147     0.001800     NO 
 RMS     Displacement     0.069320     0.001200     NO 
 Predicted change in Energy=-1.811963D-03
 Lowest energy point so far.  Saving SCF results.
 Largest change from initial coordinates is atom    2       0.029 Angstoms.
 GradGradGradGradGradGradGradGradGradGradGradGradGradGradGradGradGradGrad

 Leave Link  103 at Wed Oct 21 14:21:58 2020, MaxMem=  2684354560 cpu:               3.8 elap:               0.8
 (Enter /udrive/faculty/rpeverati/g16/g16/l202.exe)
                          Input orientation:                          
 ---------------------------------------------------------------------
 Center     Atomic      Atomic             Coordinates (Angstroms)
 Number     Number       Type             X           Y           Z
 ---------------------------------------------------------------------
      1          1           0       -0.836403    1.253390    0.000000
      2          6           0        0.016862    0.565696    0.000000
      3          8           0        0.089208   -0.598512    0.000000
 ---------------------------------------------------------------------
                    Distance matrix (angstroms):
                    1          2          3
     1  H    0.000000
     2  C    1.095894   0.000000
     3  O    2.070338   1.166454   0.000000
 Stoichiometry    CHO(2)
 Framework group  CS[SG(CHO)]
 Deg. of freedom     3
 Full point group                 CS      NOp   2
 RotChk:  IX=0 Diff= 8.78D-02
 Largest Abelian subgroup         CS      NOp   2
 Largest concise Abelian subgroup C1      NOp   1
                         Standard orientation:                         
 ---------------------------------------------------------------------
 Center     Atomic      Atomic             Coordinates (Angstroms)
 Number     Number       Type             X           Y           Z
 ---------------------------------------------------------------------
      1          1           0       -0.755038    1.312115    0.000000
      2          6           0        0.053931    0.572823    0.000000
      3          8           0        0.053931   -0.593631    0.000000
 ---------------------------------------------------------------------
 Rotational constants (GHZ):         967.1245151          44.4675678          42.5128624
 Leave Link  202 at Wed Oct 21 14:21:59 2020, MaxMem=  2684354560 cpu:               1.3 elap:               0.5
 (Enter /udrive/faculty/rpeverati/g16/g16/l301.exe)
 Standard basis: VSTO-6G (5D, 7F)
 Ernie: Thresh=  0.10000D-02 Tol=  0.10000D-05 Strict=F.
  NNHCO=     0 NNPyr=     0 NCTC=     0               EPep=         0.000000000
    EC=        10.662781526  ECS=         0.630634527   EG=         0.079017445
   EHC=         0.000000000  EAt=       -15.201190384  AtH=         0.450273680
 EPDDG=         0.000000000  ECC=        11.372433499 EAtT=        15.651464064
 There are     7 symmetry adapted cartesian basis functions of A'  symmetry.
 There are     2 symmetry adapted cartesian basis functions of A"  symmetry.
 There are     7 symmetry adapted basis functions of A'  symmetry.
 There are     2 symmetry adapted basis functions of A"  symmetry.
     9 basis functions,    54 primitive gaussians,     9 cartesian basis functions
     6 alpha electrons        5 beta electrons
       nuclear repulsion energy        27.0238975629 Hartrees.
 IExCor=    0 DFT=F Ex=HF Corr=None ExCW=0 ScaHFX=  1.000000
 ScaDFX=  1.000000  1.000000  1.000000  1.000000 ScalE2=  1.000000  1.000000
 IRadAn=      5 IRanWt=     -1 IRanGd=            0 ICorTp=0 IEmpDi=  4
 Integral buffers will be    131072 words long.
 Regular integral format.
 Two-electron integral symmetry is turned off.
 Leave Link  301 at Wed Oct 21 14:22:00 2020, MaxMem=  2684354560 cpu:               2.7 elap:               0.8
 (Enter /udrive/faculty/rpeverati/g16/g16/l302.exe)
 Do NDO integrals.
 NPDir=0 NMtPBC=     1 NCelOv=     1 NCel=       1 NClECP=     1 NCelD=      1
         NCelK=      1 NCelE2=     1 NClLst=     1 CellRange=     0.0.
 One-electron integrals computed using PRISM.
 NBasis=     9 RedAO= T EigKep=  1.00D+00  NBF=     7     2
 NBsUse=     9 1.00D-06 EigRej= -1.00D+00 NBFU=     7     2
 Leave Link  302 at Wed Oct 21 14:22:01 2020, MaxMem=  2684354560 cpu:               1.9 elap:               0.9
 (Enter /udrive/faculty/rpeverati/g16/g16/l303.exe)
 DipDrv:  MaxL=1.
 Leave Link  303 at Wed Oct 21 14:22:03 2020, MaxMem=  2684354560 cpu:               2.6 elap:               0.8
 (Enter /udrive/faculty/rpeverati/g16/g16/l401.exe)
 Initial guess from the checkpoint file:  "MN_50_hco_BH76_PM3_SE.chk"
 SCF N**3 symmetry information disabled.
 B after Tr=     0.000000    0.000000    0.000000
         Rot=    0.999897    0.000000    0.000000    0.014356 Ang=   1.65 deg.
 Guess basis will be translated and rotated to current coordinates.
 JPrj=0 DoOrth=T DoCkMO=T.
 Initial guess orbital symmetries:
 Alpha Orbitals:
       Occupied  (A') (A') (A') (A') (A") (A')
       Virtual   (A") (A') (A')
 Beta  Orbitals:
       Occupied  (A') (A') (A') (A") (A')
       Virtual   (A') (A") (A') (A')
 The electronic state of the initial guess is 2-A'.
 Initial guess <Sx>= 0.0000 <Sy>= 0.0000 <Sz>= 0.5000 <S**2>= 0.7563 S= 0.5031
 Leave Link  401 at Wed Oct 21 14:22:04 2020, MaxMem=  2684354560 cpu:               1.8 elap:               0.9
 (Enter /udrive/faculty/rpeverati/g16/g16/l502.exe)
 Keep J ints in memory in canonical form, NReq=859290.
 FoFCou: FMM=F IPFlag=           0 FMFlag=           0 FMFlg1=           0
         NFxFlg=           0 DoJE=F BraDBF=F KetDBF=F FulRan=T
         wScrn=  0.000000 ICntrl=       600 IOpCl=  2 I1Cent=           0 NGrid=           0
         NMat0=    1 NMatS0=     21 NMatT0=    0 NMatD0=    1 NMtDS0=    0 NMtDT0=    0
 Symmetry not used in FoFCou.
 Two-electron integral symmetry not used.
 UHF open shell SCF:
 Using DIIS extrapolation, IDIIS=  1040.
 Overlap will be assumed to be unity.
 NGot=  2684354560 LenX=  2684293973 LenY=  2684293091
 Requested convergence on RMS density matrix=1.00D-08 within 120 cycles.
 Requested convergence on MAX density matrix=1.00D-06.
 Requested convergence on             energy=1.00D-06.
 No special actions if energy rises.

 Cycle   1  Pass 1  IDiag  1:
 E=-0.146640319897351E-01
 DIIS: error= 5.18D-03 at cycle   1 NSaved=   1.
 NSaved= 1 IEnMin= 1 EnMin=-0.146640319897351E-01 IErMin= 1 ErrMin= 5.18D-03
 ErrMax= 5.18D-03  0.00D+00 EMaxC= 1.00D-01 BMatC= 1.26D-03 BMatP= 1.26D-03
 IDIUse=3 WtCom= 9.48D-01 WtEn= 5.18D-02
 Coeff-Com:  0.100D+01
 Coeff-En:   0.100D+01
 Coeff:      0.100D+01
 GapD=    2.000 DampG=2.000 DampE=1.000 DampFc=2.0000 IDamp=-1.
 RMSDP=3.39D-03 MaxDP=1.23D-02              OVMax= 0.00D+00

 Cycle   2  Pass 1  IDiag  3:
 E=-0.156995075561355E-01 Delta-E=       -0.001035475566 Rises=F Damp=F
 DIIS: error= 2.16D-03 at cycle   2 NSaved=   2.
 NSaved= 2 IEnMin= 2 EnMin=-0.156995075561355E-01 IErMin= 2 ErrMin= 2.16D-03
 ErrMax= 2.16D-03  0.00D+00 EMaxC= 1.00D-01 BMatC= 2.12D-04 BMatP= 1.26D-03
 IDIUse=3 WtCom= 9.78D-01 WtEn= 2.16D-02
 Coeff-Com: -0.528D+00 0.153D+01
 Coeff-En:   0.000D+00 0.100D+01
 Coeff:     -0.517D+00 0.152D+01
 Gap=     0.361 Goal=   None    Shift=    0.000
 Gap=     0.548 Goal=   None    Shift=    0.000
 RMSDP=2.48D-03 MaxDP=9.61D-03 DE=-1.04D-03 OVMax= 9.90D-03

 Cycle   3  Pass 1  IDiag  3:
 E=-0.159808153656122E-01 Delta-E=       -0.000281307809 Rises=F Damp=F
 DIIS: error= 6.61D-04 at cycle   3 NSaved=   3.
 NSaved= 3 IEnMin= 3 EnMin=-0.159808153656122E-01 IErMin= 3 ErrMin= 6.61D-04
 ErrMax= 6.61D-04  0.00D+00 EMaxC= 1.00D-01 BMatC= 1.91D-05 BMatP= 2.12D-04
 IDIUse=3 WtCom= 9.93D-01 WtEn= 6.61D-03
 Coeff-Com:  0.327D+00-0.111D+01 0.179D+01
 Coeff-En:   0.000D+00 0.000D+00 0.100D+01
 Coeff:      0.325D+00-0.111D+01 0.178D+01
 Gap=     0.361 Goal=   None    Shift=    0.000
 Gap=     0.548 Goal=   None    Shift=    0.000
 RMSDP=1.11D-03 MaxDP=5.48D-03 DE=-2.81D-04 OVMax= 4.95D-03

 Cycle   4  Pass 1  IDiag  3:
 E=-0.160177813972382E-01 Delta-E=       -0.000036966032 Rises=F Damp=F
 DIIS: error= 2.86D-04 at cycle   4 NSaved=   4.
 NSaved= 4 IEnMin= 4 EnMin=-0.160177813972382E-01 IErMin= 4 ErrMin= 2.86D-04
 ErrMax= 2.86D-04  0.00D+00 EMaxC= 1.00D-01 BMatC= 2.06D-06 BMatP= 1.91D-05
 IDIUse=3 WtCom= 9.97D-01 WtEn= 2.86D-03
 Coeff-Com: -0.279D+00 0.970D+00-0.173D+01 0.204D+01
 Coeff-En:   0.000D+00 0.000D+00 0.000D+00 0.100D+01
 Coeff:     -0.278D+00 0.967D+00-0.173D+01 0.204D+01
 Gap=     0.361 Goal=   None    Shift=    0.000
 Gap=     0.548 Goal=   None    Shift=    0.000
 RMSDP=4.64D-04 MaxDP=2.61D-03 DE=-3.70D-05 OVMax= 2.96D-03

 Cycle   5  Pass 1  IDiag  3:
 E=-0.160230816416593E-01 Delta-E=       -0.000005300244 Rises=F Damp=F
 DIIS: error= 1.17D-04 at cycle   5 NSaved=   5.
 NSaved= 5 IEnMin= 5 EnMin=-0.160230816416593E-01 IErMin= 5 ErrMin= 1.17D-04
 ErrMax= 1.17D-04  0.00D+00 EMaxC= 1.00D-01 BMatC= 2.98D-07 BMatP= 2.06D-06
 IDIUse=3 WtCom= 9.99D-01 WtEn= 1.17D-03
 Coeff-Com:  0.162D+00-0.564D+00 0.104D+01-0.154D+01 0.191D+01
 Coeff-En:   0.000D+00 0.000D+00 0.000D+00 0.000D+00 0.100D+01
 Coeff:      0.161D+00-0.563D+00 0.104D+01-0.154D+01 0.191D+01
 Gap=     0.361 Goal=   None    Shift=    0.000
 Gap=     0.548 Goal=   None    Shift=    0.000
 RMSDP=2.14D-04 MaxDP=1.27D-03 DE=-5.30D-06 OVMax= 1.60D-03

 Cycle   6  Pass 1  IDiag  3:
 E=-0.160239986220887E-01 Delta-E=       -0.000000916980 Rises=F Damp=F
 DIIS: error= 3.66D-05 at cycle   6 NSaved=   6.
 NSaved= 6 IEnMin= 6 EnMin=-0.160239986220887E-01 IErMin= 6 ErrMin= 3.66D-05
 ErrMax= 3.66D-05  0.00D+00 EMaxC= 1.00D-01 BMatC= 5.21D-08 BMatP= 2.98D-07
 IDIUse=1 WtCom= 1.00D+00 WtEn= 0.00D+00
 Coeff-Com: -0.143D+00 0.498D+00-0.917D+00 0.143D+01-0.220D+01 0.233D+01
 Coeff:     -0.143D+00 0.498D+00-0.917D+00 0.143D+01-0.220D+01 0.233D+01
 Gap=     0.361 Goal=   None    Shift=    0.000
 Gap=     0.548 Goal=   None    Shift=    0.000
 RMSDP=1.09D-04 MaxDP=5.74D-04 DE=-9.17D-07 OVMax= 7.72D-04

 Cycle   7  Pass 1  IDiag  3:
 E=-0.160241677270925E-01 Delta-E=       -0.000000169105 Rises=F Damp=F
 DIIS: error= 1.21D-05 at cycle   7 NSaved=   7.
 NSaved= 7 IEnMin= 7 EnMin=-0.160241677270925E-01 IErMin= 7 ErrMin= 1.21D-05
 ErrMax= 1.21D-05  0.00D+00 EMaxC= 1.00D-01 BMatC= 2.90D-09 BMatP= 5.21D-08
 IDIUse=1 WtCom= 1.00D+00 WtEn= 0.00D+00
 Coeff-Com:  0.833D-01-0.291D+00 0.535D+00-0.837D+00 0.130D+01-0.154D+01
 Coeff-Com:  0.174D+01
 Coeff:      0.833D-01-0.291D+00 0.535D+00-0.837D+00 0.130D+01-0.154D+01
 Coeff:      0.174D+01
 Gap=     0.361 Goal=   None    Shift=    0.000
 Gap=     0.548 Goal=   None    Shift=    0.000
 RMSDP=1.99D-05 MaxDP=8.24D-05 DE=-1.69D-07 OVMax= 1.14D-04

 Cycle   8  Pass 1  IDiag  3:
 E=-0.160241743347456E-01 Delta-E=       -0.000000006608 Rises=F Damp=F
 DIIS: error= 2.53D-06 at cycle   8 NSaved=   8.
 NSaved= 8 IEnMin= 8 EnMin=-0.160241743347456E-01 IErMin= 8 ErrMin= 2.53D-06
 ErrMax= 2.53D-06  0.00D+00 EMaxC= 1.00D-01 BMatC= 1.83D-10 BMatP= 2.90D-09
 IDIUse=1 WtCom= 1.00D+00 WtEn= 0.00D+00
 Coeff-Com: -0.905D-02 0.315D-01-0.571D-01 0.832D-01-0.115D+00 0.143D+00
 Coeff-Com: -0.331D+00 0.126D+01
 Coeff:     -0.905D-02 0.315D-01-0.571D-01 0.832D-01-0.115D+00 0.143D+00
 Coeff:     -0.331D+00 0.126D+01
 Gap=     0.361 Goal=   None    Shift=    0.000
 Gap=     0.548 Goal=   None    Shift=    0.000
 RMSDP=2.81D-06 MaxDP=1.44D-05 DE=-6.61D-09 OVMax= 1.59D-05

 Cycle   9  Pass 1  IDiag  3:
 E=-0.160241746457466E-01 Delta-E=       -0.000000000311 Rises=F Damp=F
 DIIS: error= 1.33D-06 at cycle   9 NSaved=   9.
 NSaved= 9 IEnMin= 9 EnMin=-0.160241746457466E-01 IErMin= 9 ErrMin= 1.33D-06
 ErrMax= 1.33D-06  0.00D+00 EMaxC= 1.00D-01 BMatC= 3.78D-11 BMatP= 1.83D-10
 IDIUse=1 WtCom= 1.00D+00 WtEn= 0.00D+00
 Coeff-Com:  0.126D-02-0.427D-02 0.721D-02-0.593D-02-0.323D-02 0.106D-01
 Coeff-Com:  0.403D-01-0.658D+00 0.161D+01
 Coeff:      0.126D-02-0.427D-02 0.721D-02-0.593D-02-0.323D-02 0.106D-01
 Coeff:      0.403D-01-0.658D+00 0.161D+01
 Gap=     0.361 Goal=   None    Shift=    0.000
 Gap=     0.548 Goal=   None    Shift=    0.000
 RMSDP=1.62D-06 MaxDP=8.51D-06 DE=-3.11D-10 OVMax= 9.40D-06

 Cycle  10  Pass 1  IDiag  3:
 E=-0.160241747324434E-01 Delta-E=       -0.000000000087 Rises=F Damp=F
 DIIS: error= 6.42D-07 at cycle  10 NSaved=  10.
 NSaved=10 IEnMin=10 EnMin=-0.160241747324434E-01 IErMin=10 ErrMin= 6.42D-07
 ErrMax= 6.42D-07  0.00D+00 EMaxC= 1.00D-01 BMatC= 8.46D-12 BMatP= 3.78D-11
 IDIUse=1 WtCom= 1.00D+00 WtEn= 0.00D+00
 Coeff-Com:  0.443D-03-0.164D-02 0.359D-02-0.109D-01 0.294D-01-0.442D-01
 Coeff-Com:  0.168D-01 0.550D+00-0.188D+01 0.234D+01
 Coeff:      0.443D-03-0.164D-02 0.359D-02-0.109D-01 0.294D-01-0.442D-01
 Coeff:      0.168D-01 0.550D+00-0.188D+01 0.234D+01
 Gap=     0.361 Goal=   None    Shift=    0.000
 Gap=     0.548 Goal=   None    Shift=    0.000
 RMSDP=1.17D-06 MaxDP=6.24D-06 DE=-8.67D-11 OVMax= 6.57D-06

 Cycle  11  Pass 1  IDiag  3:
 E=-0.160241747572059E-01 Delta-E=       -0.000000000025 Rises=F Damp=F
 DIIS: error= 1.15D-07 at cycle  11 NSaved=  11.
 NSaved=11 IEnMin=11 EnMin=-0.160241747572059E-01 IErMin=11 ErrMin= 1.15D-07
 ErrMax= 1.15D-07  0.00D+00 EMaxC= 1.00D-01 BMatC= 6.28D-13 BMatP= 8.46D-12
 IDIUse=1 WtCom= 1.00D+00 WtEn= 0.00D+00
 Coeff-Com:  0.198D-03-0.607D-03 0.625D-03 0.373D-02-0.168D-01 0.289D-01
 Coeff-Com: -0.693D-02-0.477D+00 0.165D+01-0.224D+01 0.205D+01
 Coeff:      0.198D-03-0.607D-03 0.625D-03 0.373D-02-0.168D-01 0.289D-01
 Coeff:     -0.693D-02-0.477D+00 0.165D+01-0.224D+01 0.205D+01
 Gap=     0.361 Goal=   None    Shift=    0.000
 Gap=     0.548 Goal=   None    Shift=    0.000
 RMSDP=2.96D-07 MaxDP=1.30D-06 DE=-2.48D-11 OVMax= 1.37D-06

 Cycle  12  Pass 1  IDiag  3:
 E=-0.160241747587193E-01 Delta-E=       -0.000000000002 Rises=F Damp=F
 DIIS: error= 2.74D-08 at cycle  12 NSaved=  12.
 NSaved=12 IEnMin=12 EnMin=-0.160241747587193E-01 IErMin=12 ErrMin= 2.74D-08
 ErrMax= 2.74D-08  0.00D+00 EMaxC= 1.00D-01 BMatC= 2.13D-14 BMatP= 6.28D-13
 IDIUse=1 WtCom= 1.00D+00 WtEn= 0.00D+00
 Coeff-Com:  0.257D-04-0.133D-03 0.505D-03-0.328D-02 0.109D-01-0.177D-01
 Coeff-Com:  0.684D-02 0.247D+00-0.874D+00 0.120D+01-0.123D+01 0.166D+01
 Coeff:      0.257D-04-0.133D-03 0.505D-03-0.328D-02 0.109D-01-0.177D-01
 Coeff:      0.684D-02 0.247D+00-0.874D+00 0.120D+01-0.123D+01 0.166D+01
 Gap=     0.361 Goal=   None    Shift=    0.000
 Gap=     0.548 Goal=   None    Shift=    0.000
 RMSDP=3.99D-08 MaxDP=1.28D-07 DE=-1.51D-12 OVMax= 1.65D-07

 Cycle  13  Pass 1  IDiag  3:
 E=-0.160241747587548E-01 Delta-E=       -0.000000000000 Rises=F Damp=F
 DIIS: error= 3.32D-09 at cycle  13 NSaved=  13.
 NSaved=13 IEnMin=13 EnMin=-0.160241747587548E-01 IErMin=13 ErrMin= 3.32D-09
 ErrMax= 3.32D-09  0.00D+00 EMaxC= 1.00D-01 BMatC= 4.01D-16 BMatP= 2.13D-14
 IDIUse=1 WtCom= 1.00D+00 WtEn= 0.00D+00
 Coeff-Com: -0.594D-05 0.496D-04-0.264D-03 0.207D-02-0.709D-02 0.116D-01
 Coeff-Com: -0.438D-02-0.164D+00 0.581D+00-0.799D+00 0.819D+00-0.115D+01
 Coeff-Com:  0.171D+01
 Coeff:     -0.594D-05 0.496D-04-0.264D-03 0.207D-02-0.709D-02 0.116D-01
 Coeff:     -0.438D-02-0.164D+00 0.581D+00-0.799D+00 0.819D+00-0.115D+01
 Coeff:      0.171D+01
 Gap=     0.361 Goal=   None    Shift=    0.000
 Gap=     0.548 Goal=   None    Shift=    0.000
 RMSDP=4.59D-09 MaxDP=2.26D-08 DE=-3.55D-14 OVMax= 2.75D-08

 Cycle  14  Pass 2  IDiag  1:
 SCF Done:  E(UPM3) = -0.160241747588E-01 A.U. after   14 cycles
            NFock= 13  Conv=0.46D-08     -V/T= 0.9994
 <Sx>= 0.0000 <Sy>= 0.0000 <Sz>= 0.5000 <S**2>= 0.7558 S= 0.5029
 <L.S>= 0.000000000000E+00
 KE=-2.509221359527D+01 PE=-2.069732902075D+01 EE= 1.874962087839D+01
 Annihilation of the first spin contaminant:
 S**2 before annihilation     0.7558,   after     0.7500
 Leave Link  502 at Wed Oct 21 14:22:06 2020, MaxMem=  2684354560 cpu:              10.2 elap:               1.7
 (Enter /udrive/faculty/rpeverati/g16/g16/l508.exe)
 QCSCF skips out because SCF is already converged.
 Leave Link  508 at Wed Oct 21 14:22:07 2020, MaxMem=  2684354560 cpu:               0.4 elap:               0.8
 (Enter /udrive/faculty/rpeverati/g16/g16/l701.exe)
 ... and contract with generalized density number  0.
 Compute integral first derivatives.
 Leave Link  701 at Wed Oct 21 14:22:08 2020, MaxMem=  2684354560 cpu:               3.6 elap:               0.9
 (Enter /udrive/faculty/rpeverati/g16/g16/l702.exe)
 L702 exits ... SP integral derivatives will be done elsewhere.
 Leave Link  702 at Wed Oct 21 14:22:10 2020, MaxMem=  2684354560 cpu:               1.8 elap:               0.7
 (Enter /udrive/faculty/rpeverati/g16/g16/l703.exe)
 Integral derivatives from FoFJK, PRISM(SPDF).
 Compute integral first derivatives, UseDBF=F ICtDFT=           0.
 Calling FoFJK, ICntrl=      2127 FMM=F ISym2X=1 I1Cent= 0 IOpClX= 1 NMat=1 NMatS=1 NMatT=0.
 FoFJK:  IHMeth= 9 ICntrl=    2127 DoSepK=F KAlg= 0 I1Cent=           0 FoldK=F
 IRaf=         0 NMat=       1 IRICut=       1 DoRegI=T DoRafI=F ISym2E= 1 IDoP0=3 IntGTp=3.
 FoFCou: FMM=F IPFlag=           0 FMFlag=      100000 FMFlg1=         800
         NFxFlg=           0 DoJE=F BraDBF=F KetDBF=F FulRan=T
         wScrn=  0.000000 ICntrl=      2127 IOpCl=  1 I1Cent=           0 NGrid=           0
         NMat0=    1 NMatS0=      1 NMatT0=    0 NMatD0=    1 NMtDS0=    0 NMtDT0=    0
 Petite list used in FoFCou.
 Leave Link  703 at Wed Oct 21 14:22:11 2020, MaxMem=  2684354560 cpu:               2.3 elap:               0.6
 (Enter /udrive/faculty/rpeverati/g16/g16/l716.exe)
 Dipole        =-3.90246594D-01 4.70768200D-01 7.71993823D-16
 ***** Axes restored to original set *****
 -------------------------------------------------------------------
 Center     Atomic                   Forces (Hartrees/Bohr)
 Number     Number              X              Y              Z
 -------------------------------------------------------------------
      1        1           0.004841067    0.000755675   -0.000000000
      2        6          -0.008185703   -0.001863014    0.000000000
      3        8           0.003344635    0.001107339    0.000000000
 -------------------------------------------------------------------
 Cartesian Forces:  Max     0.008185703 RMS     0.003446356
 Leave Link  716 at Wed Oct 21 14:22:12 2020, MaxMem=  2684354560 cpu:               1.3 elap:               0.7
 (Enter /udrive/faculty/rpeverati/g16/g16/l103.exe)

 GradGradGradGradGradGradGradGradGradGradGradGradGradGradGradGradGradGrad
 Berny optimization.
 Optmz: redundant internal coordinate code flag= 1
 Using GEDIIS/GDIIS optimizer.
 Red2BG:  D1=  7.60D-01 OD1=  6.96D-02 B2RMS=  0.00D+00 IAprox=0
 FormGI is forming the generalized inverse of G from B-inverse, IUseBI=4.
 Internal  Forces:  Max     0.007509704 RMS     0.004763020
 Search for a local minimum.
 Step number   2 out of a maximum of  100
 All quantities printed in internal units (Hartrees-Bohrs-Radians)
 RMS Force = .47630D-02 SwitMx=.10000D-02 MixMth= 1
 Mixed Optimization -- RFO/linear search
 Update second derivatives using D2CorX and points    1    2
 DE= -2.34D-03 DEPred=-1.81D-03 R= 1.29D+00
 TightC=F SS=  1.41D+00  RLast= 1.34D-01 DXNew= 5.0454D-01 4.0203D-01
 Trust test= 1.29D+00 RLast= 1.34D-01 DXMaxT set to 4.02D-01
 The second derivative matrix:
                          R1        R2        A1
           R1           0.30976
           R2           0.00203   1.22141
           A1           0.02236   0.01423   0.11338
 ITU=  1  0
 Use linear search instead of GDIIS.
 Eigenvectors of the second derivative matrix:
                           1         2         3
     Eigenvalues --     0.11069   0.31226   1.22160
   1         R1        -0.11150   0.99376  -0.00254
   2         R2        -0.01253  -0.00396  -0.99991
   3         A1         0.99369   0.11145  -0.01289
 Iter=   1 RLamda= 0.00000000D+00 Sum=-7.97558823D-05.
 Iter=   2 RLamda=-7.97558823D-05 Sum=-7.97392680D-05.
 Iter=   3 RLamda=-7.97392680D-05 Sum=-7.97392715D-05.
 RFO step:  Lambda=-7.97392680D-05 EMin= 1.10690384D-01
 Quartic linear search produced a step of  0.43225.
 Iteration  1 RMS(Cart)=  0.03713686 RMS(Int)=  0.00100172
 Iteration  2 RMS(Cart)=  0.00100552 RMS(Int)=  0.00000008
 Iteration  3 RMS(Cart)=  0.00000008 RMS(Int)=  0.00000000
 ITry= 1 IFail=0 DXMaxC= 4.31D-02 DCOld= 1.00D+10 DXMaxT= 4.02D-01 DXLimC= 3.00D+00 Rises=F
 ClnCor:  largest displacement from symmetrization is 2.23D-16 for atom     2.
 Variable       Old X    -DE/DX   Delta X   Delta X   Delta X     New X
                                 (Linear)    (Quad)   (Total)
    R1        2.07094  -0.00330  -0.01705   0.00180  -0.01525   2.05569
    R2        2.20428  -0.00090  -0.00831   0.00685  -0.00146   2.20281
    A1        2.31122   0.00751   0.05473   0.01257   0.06730   2.37852
         Item               Value     Threshold  Converged?
 Maximum Force            0.007510     0.000450     NO 
 RMS     Force            0.004763     0.000300     NO 
 Maximum Displacement     0.043116     0.001800     NO 
 RMS     Displacement     0.036764     0.001200     NO 
 Predicted change in Energy=-2.871840D-04
 Lowest energy point so far.  Saving SCF results.
 Largest change from initial coordinates is atom    1       0.011 Angstoms.
 GradGradGradGradGradGradGradGradGradGradGradGradGradGradGradGradGradGrad

 Leave Link  103 at Wed Oct 21 14:22:14 2020, MaxMem=  2684354560 cpu:               5.7 elap:               1.2
 (Enter /udrive/faculty/rpeverati/g16/g16/l202.exe)
                          Input orientation:                          
 ---------------------------------------------------------------------
 Center     Atomic      Atomic             Coordinates (Angstroms)
 Number     Number       Type             X           Y           Z
 ---------------------------------------------------------------------
      1          1           0       -0.828958    1.267906    0.000000
      2          6           0       -0.005954    0.556547    0.000000
      3          8           0        0.104579   -0.603879    0.000000
 ---------------------------------------------------------------------
                    Distance matrix (angstroms):
                    1          2          3
     1  H    0.000000
     2  C    1.087826   0.000000
     3  O    2.091667   1.165679   0.000000
 Stoichiometry    CHO(2)
 Framework group  CS[SG(CHO)]
 Deg. of freedom     3
 Full point group                 CS      NOp   2
 RotChk:  IX=0 Diff= 4.65D-02
 Largest Abelian subgroup         CS      NOp   2
 Largest concise Abelian subgroup C1      NOp   1
                         Standard orientation:                         
 ---------------------------------------------------------------------
 Center     Atomic      Atomic             Coordinates (Angstroms)
 Number     Number       Type             X           Y           Z
 ---------------------------------------------------------------------
      1          1           0       -0.701720    1.355475    0.000000
      2          6           0        0.050123    0.569283    0.000000
      3          8           0        0.050123   -0.596396    0.000000
 ---------------------------------------------------------------------
 Rotational constants (GHZ):        1131.6227665          44.0566818          42.4057291
 Leave Link  202 at Wed Oct 21 14:22:15 2020, MaxMem=  2684354560 cpu:               1.2 elap:               0.6
 (Enter /udrive/faculty/rpeverati/g16/g16/l301.exe)
 Standard basis: VSTO-6G (5D, 7F)
 Ernie: Thresh=  0.10000D-02 Tol=  0.10000D-05 Strict=F.
  NNHCO=     0 NNPyr=     0 NCTC=     0               EPep=         0.000000000
    EC=        10.658565049  ECS=         0.634485862   EG=         0.078917007
   EHC=         0.000000000  EAt=       -15.201190384  AtH=         0.450273680
 EPDDG=         0.000000000  ECC=        11.371967918 EAtT=        15.651464064
 There are     7 symmetry adapted cartesian basis functions of A'  symmetry.
 There are     2 symmetry adapted cartesian basis functions of A"  symmetry.
 There are     7 symmetry adapted basis functions of A'  symmetry.
 There are     2 symmetry adapted basis functions of A"  symmetry.
     9 basis functions,    54 primitive gaussians,     9 cartesian basis functions
     6 alpha electrons        5 beta electrons
       nuclear repulsion energy        27.0234319825 Hartrees.
 IExCor=    0 DFT=F Ex=HF Corr=None ExCW=0 ScaHFX=  1.000000
 ScaDFX=  1.000000  1.000000  1.000000  1.000000 ScalE2=  1.000000  1.000000
 IRadAn=      5 IRanWt=     -1 IRanGd=            0 ICorTp=0 IEmpDi=  4
 Integral buffers will be    131072 words long.
 Regular integral format.
 Two-electron integral symmetry is turned off.
 Leave Link  301 at Wed Oct 21 14:22:16 2020, MaxMem=  2684354560 cpu:               3.0 elap:               0.7
 (Enter /udrive/faculty/rpeverati/g16/g16/l302.exe)
 Do NDO integrals.
 NPDir=0 NMtPBC=     1 NCelOv=     1 NCel=       1 NClECP=     1 NCelD=      1
         NCelK=      1 NCelE2=     1 NClLst=     1 CellRange=     0.0.
 One-electron integrals computed using PRISM.
 NBasis=     9 RedAO= T EigKep=  1.00D+00  NBF=     7     2
 NBsUse=     9 1.00D-06 EigRej= -1.00D+00 NBFU=     7     2
 Leave Link  302 at Wed Oct 21 14:22:17 2020, MaxMem=  2684354560 cpu:               2.1 elap:               0.8
 (Enter /udrive/faculty/rpeverati/g16/g16/l303.exe)
 DipDrv:  MaxL=1.
 Leave Link  303 at Wed Oct 21 14:22:18 2020, MaxMem=  2684354560 cpu:               1.5 elap:               0.7
 (Enter /udrive/faculty/rpeverati/g16/g16/l401.exe)
 Initial guess from the checkpoint file:  "MN_50_hco_BH76_PM3_SE.chk"
 SCF N**3 symmetry information disabled.
 B after Tr=    -0.000000    0.000000    0.000000
         Rot=    0.999970    0.000000    0.000000    0.007710 Ang=   0.88 deg.
 Guess basis will be translated and rotated to current coordinates.
 JPrj=0 DoOrth=T DoCkMO=T.
 Initial guess orbital symmetries:
 Alpha Orbitals:
       Occupied  (A') (A') (A') (A') (A") (A')
       Virtual   (A") (A') (A')
 Beta  Orbitals:
       Occupied  (A') (A') (A') (A") (A')
       Virtual   (A') (A") (A') (A')
 The electronic state of the initial guess is 2-A'.
 Initial guess <Sx>= 0.0000 <Sy>= 0.0000 <Sz>= 0.5000 <S**2>= 0.7558 S= 0.5029
 Leave Link  401 at Wed Oct 21 14:22:20 2020, MaxMem=  2684354560 cpu:               1.8 elap:               0.8
 (Enter /udrive/faculty/rpeverati/g16/g16/l502.exe)
 Keep J ints in memory in canonical form, NReq=859290.
 FoFCou: FMM=F IPFlag=           0 FMFlag=           0 FMFlg1=           0
         NFxFlg=           0 DoJE=F BraDBF=F KetDBF=F FulRan=T
         wScrn=  0.000000 ICntrl=       600 IOpCl=  2 I1Cent=           0 NGrid=           0
         NMat0=    1 NMatS0=     21 NMatT0=    0 NMatD0=    1 NMtDS0=    0 NMtDT0=    0
 Symmetry not used in FoFCou.
 Two-electron integral symmetry not used.
 UHF open shell SCF:
 Using DIIS extrapolation, IDIIS=  1040.
 Overlap will be assumed to be unity.
 NGot=  2684354560 LenX=  2684293973 LenY=  2684293091
 Requested convergence on RMS density matrix=1.00D-08 within 120 cycles.
 Requested convergence on MAX density matrix=1.00D-06.
 Requested convergence on             energy=1.00D-06.
 No special actions if energy rises.

 Cycle   1  Pass 1  IDiag  1:
 E=-0.159508982563423E-01
 DIIS: error= 2.86D-03 at cycle   1 NSaved=   1.
 NSaved= 1 IEnMin= 1 EnMin=-0.159508982563423E-01 IErMin= 1 ErrMin= 2.86D-03
 ErrMax= 2.86D-03  0.00D+00 EMaxC= 1.00D-01 BMatC= 3.26D-04 BMatP= 3.26D-04
 IDIUse=3 WtCom= 9.71D-01 WtEn= 2.86D-02
 Coeff-Com:  0.100D+01
 Coeff-En:   0.100D+01
 Coeff:      0.100D+01
 GapD=    2.000 DampG=2.000 DampE=1.000 DampFc=2.0000 IDamp=-1.
 RMSDP=1.74D-03 MaxDP=6.73D-03              OVMax= 0.00D+00

 Cycle   2  Pass 1  IDiag  3:
 E=-0.162211176952880E-01 Delta-E=       -0.000270219439 Rises=F Damp=F
 DIIS: error= 1.15D-03 at cycle   2 NSaved=   2.
 NSaved= 2 IEnMin= 2 EnMin=-0.162211176952880E-01 IErMin= 2 ErrMin= 1.15D-03
 ErrMax= 1.15D-03  0.00D+00 EMaxC= 1.00D-01 BMatC= 5.67D-05 BMatP= 3.26D-04
 IDIUse=3 WtCom= 9.89D-01 WtEn= 1.15D-02
 Coeff-Com: -0.535D+00 0.153D+01
 Coeff-En:   0.000D+00 0.100D+01
 Coeff:     -0.529D+00 0.153D+01
 Gap=     0.357 Goal=   None    Shift=    0.000
 Gap=     0.556 Goal=   None    Shift=    0.000
 RMSDP=1.32D-03 MaxDP=5.67D-03 DE=-2.70D-04 OVMax= 5.01D-03

 Cycle   3  Pass 1  IDiag  3:
 E=-0.162986604292996E-01 Delta-E=       -0.000077542734 Rises=F Damp=F
 DIIS: error= 3.87D-04 at cycle   3 NSaved=   3.
 NSaved= 3 IEnMin= 3 EnMin=-0.162986604292996E-01 IErMin= 3 ErrMin= 3.87D-04
 ErrMax= 3.87D-04  0.00D+00 EMaxC= 1.00D-01 BMatC= 5.41D-06 BMatP= 5.67D-05
 IDIUse=3 WtCom= 9.96D-01 WtEn= 3.87D-03
 Coeff-Com:  0.343D+00-0.115D+01 0.181D+01
 Coeff-En:   0.000D+00 0.000D+00 0.100D+01
 Coeff:      0.342D+00-0.115D+01 0.180D+01
 Gap=     0.357 Goal=   None    Shift=    0.000
 Gap=     0.556 Goal=   None    Shift=    0.000
 RMSDP=6.12D-04 MaxDP=3.33D-03 DE=-7.75D-05 OVMax= 3.21D-03

 Cycle   4  Pass 1  IDiag  3:
 E=-0.163095043235053E-01 Delta-E=       -0.000010843894 Rises=F Damp=F
 DIIS: error= 1.71D-04 at cycle   4 NSaved=   4.
 NSaved= 4 IEnMin= 4 EnMin=-0.163095043235053E-01 IErMin= 4 ErrMin= 1.71D-04
 ErrMax= 1.71D-04  0.00D+00 EMaxC= 1.00D-01 BMatC= 6.38D-07 BMatP= 5.41D-06
 IDIUse=3 WtCom= 9.98D-01 WtEn= 1.71D-03
 Coeff-Com: -0.379D+00 0.130D+01-0.223D+01 0.231D+01
 Coeff-En:   0.000D+00 0.000D+00 0.000D+00 0.100D+01
 Coeff:     -0.378D+00 0.130D+01-0.222D+01 0.230D+01
 Gap=     0.357 Goal=   None    Shift=    0.000
 Gap=     0.556 Goal=   None    Shift=    0.000
 RMSDP=2.97D-04 MaxDP=1.77D-03 DE=-1.08D-05 OVMax= 2.09D-03

 Cycle   5  Pass 1  IDiag  3:
 E=-0.163113472519818E-01 Delta-E=       -0.000001842928 Rises=F Damp=F
 DIIS: error= 5.91D-05 at cycle   5 NSaved=   5.
 NSaved= 5 IEnMin= 5 EnMin=-0.163113472519818E-01 IErMin= 5 ErrMin= 5.91D-05
 ErrMax= 5.91D-05  0.00D+00 EMaxC= 1.00D-01 BMatC= 7.96D-08 BMatP= 6.38D-07
 IDIUse=1 WtCom= 1.00D+00 WtEn= 0.00D+00
 Coeff-Com:  0.244D+00-0.838D+00 0.146D+01-0.178D+01 0.192D+01
 Coeff:      0.244D+00-0.838D+00 0.146D+01-0.178D+01 0.192D+01
 Gap=     0.357 Goal=   None    Shift=    0.000
 Gap=     0.556 Goal=   None    Shift=    0.000
 RMSDP=1.19D-04 MaxDP=7.17D-04 DE=-1.84D-06 OVMax= 9.36D-04

 Cycle   6  Pass 1  IDiag  3:
 E=-0.163116089474933E-01 Delta-E=       -0.000000261696 Rises=F Damp=F
 DIIS: error= 1.61D-05 at cycle   6 NSaved=   6.
 NSaved= 6 IEnMin= 6 EnMin=-0.163116089474933E-01 IErMin= 6 ErrMin= 1.61D-05
 ErrMax= 1.61D-05  0.00D+00 EMaxC= 1.00D-01 BMatC= 1.33D-08 BMatP= 7.96D-08
 IDIUse=1 WtCom= 1.00D+00 WtEn= 0.00D+00
 Coeff-Com: -0.176D+00 0.605D+00-0.105D+01 0.135D+01-0.191D+01 0.218D+01
 Coeff:     -0.176D+00 0.605D+00-0.105D+01 0.135D+01-0.191D+01 0.218D+01
 Gap=     0.357 Goal=   None    Shift=    0.000
 Gap=     0.556 Goal=   None    Shift=    0.000
 RMSDP=5.61D-05 MaxDP=2.86D-04 DE=-2.62D-07 OVMax= 4.03D-04

 Cycle   7  Pass 1  IDiag  3:
 E=-0.163116517591178E-01 Delta-E=       -0.000000042812 Rises=F Damp=F
 DIIS: error= 5.58D-06 at cycle   7 NSaved=   7.
 NSaved= 7 IEnMin= 7 EnMin=-0.163116517591178E-01 IErMin= 7 ErrMin= 5.58D-06
 ErrMax= 5.58D-06  0.00D+00 EMaxC= 1.00D-01 BMatC= 6.29D-10 BMatP= 1.33D-08
 IDIUse=1 WtCom= 1.00D+00 WtEn= 0.00D+00
 Coeff-Com:  0.101D+00-0.348D+00 0.607D+00-0.782D+00 0.113D+01-0.144D+01
 Coeff-Com:  0.173D+01
 Coeff:      0.101D+00-0.348D+00 0.607D+00-0.782D+00 0.113D+01-0.144D+01
 Coeff:      0.173D+01
 Gap=     0.357 Goal=   None    Shift=    0.000
 Gap=     0.556 Goal=   None    Shift=    0.000
 RMSDP=8.80D-06 MaxDP=3.55D-05 DE=-4.28D-08 OVMax= 4.77D-05

 Cycle   8  Pass 1  IDiag  3:
 E=-0.163116530855767E-01 Delta-E=       -0.000000001326 Rises=F Damp=F
 DIIS: error= 1.16D-06 at cycle   8 NSaved=   8.
 NSaved= 8 IEnMin= 8 EnMin=-0.163116530855767E-01 IErMin= 8 ErrMin= 1.16D-06
 ErrMax= 1.16D-06  0.00D+00 EMaxC= 1.00D-01 BMatC= 3.90D-11 BMatP= 6.29D-10
 IDIUse=1 WtCom= 1.00D+00 WtEn= 0.00D+00
 Coeff-Com: -0.323D-01 0.111D+00-0.194D+00 0.248D+00-0.349D+00 0.449D+00
 Coeff-Com: -0.667D+00 0.143D+01
 Coeff:     -0.323D-01 0.111D+00-0.194D+00 0.248D+00-0.349D+00 0.449D+00
 Coeff:     -0.667D+00 0.143D+01
 Gap=     0.357 Goal=   None    Shift=    0.000
 Gap=     0.556 Goal=   None    Shift=    0.000
 RMSDP=1.32D-06 MaxDP=6.39D-06 DE=-1.33D-09 OVMax= 7.06D-06

 Cycle   9  Pass 1  IDiag  3:
 E=-0.163116531563290E-01 Delta-E=       -0.000000000071 Rises=F Damp=F
 DIIS: error= 6.12D-07 at cycle   9 NSaved=   9.
 NSaved= 9 IEnMin= 9 EnMin=-0.163116531563290E-01 IErMin= 9 ErrMin= 6.12D-07
 ErrMax= 6.12D-07  0.00D+00 EMaxC= 1.00D-01 BMatC= 8.28D-12 BMatP= 3.90D-11
 IDIUse=1 WtCom= 1.00D+00 WtEn= 0.00D+00
 Coeff-Com:  0.808D-02-0.278D-01 0.483D-01-0.592D-01 0.741D-01-0.868D-01
 Coeff-Com:  0.131D+00-0.613D+00 0.153D+01
 Coeff:      0.808D-02-0.278D-01 0.483D-01-0.592D-01 0.741D-01-0.868D-01
 Coeff:      0.131D+00-0.613D+00 0.153D+01
 Gap=     0.357 Goal=   None    Shift=    0.000
 Gap=     0.556 Goal=   None    Shift=    0.000
 RMSDP=7.26D-07 MaxDP=3.74D-06 DE=-7.08D-11 OVMax= 4.12D-06

 Cycle  10  Pass 1  IDiag  3:
 E=-0.163116531751974E-01 Delta-E=       -0.000000000019 Rises=F Damp=F
 DIIS: error= 3.39D-07 at cycle  10 NSaved=  10.
 NSaved=10 IEnMin=10 EnMin=-0.163116531751974E-01 IErMin=10 ErrMin= 3.39D-07
 ErrMax= 3.39D-07  0.00D+00 EMaxC= 1.00D-01 BMatC= 2.10D-12 BMatP= 8.28D-12
 IDIUse=1 WtCom= 1.00D+00 WtEn= 0.00D+00
 Coeff-Com:  0.384D-03-0.134D-02 0.248D-02-0.552D-02 0.165D-01-0.303D-01
 Coeff-Com:  0.484D-01 0.154D+00-0.126D+01 0.208D+01
 Coeff:      0.384D-03-0.134D-02 0.248D-02-0.552D-02 0.165D-01-0.303D-01
 Coeff:      0.484D-01 0.154D+00-0.126D+01 0.208D+01
 Gap=     0.357 Goal=   None    Shift=    0.000
 Gap=     0.556 Goal=   None    Shift=    0.000
 RMSDP=5.82D-07 MaxDP=3.26D-06 DE=-1.89D-11 OVMax= 3.43D-06

 Cycle  11  Pass 1  IDiag  3:
 E=-0.163116531814254E-01 Delta-E=       -0.000000000006 Rises=F Damp=F
 DIIS: error= 5.93D-08 at cycle  11 NSaved=  11.
 NSaved=11 IEnMin=11 EnMin=-0.163116531814254E-01 IErMin=11 ErrMin= 5.93D-08
 ErrMax= 5.93D-08  0.00D+00 EMaxC= 1.00D-01 BMatC= 1.74D-13 BMatP= 2.10D-12
 IDIUse=1 WtCom= 1.00D+00 WtEn= 0.00D+00
 Coeff-Com:  0.440D-03-0.150D-02 0.250D-02-0.129D-02-0.523D-02 0.148D-01
 Coeff-Com: -0.305D-01-0.115D+00 0.102D+01-0.190D+01 0.202D+01
 Coeff:      0.440D-03-0.150D-02 0.250D-02-0.129D-02-0.523D-02 0.148D-01
 Coeff:     -0.305D-01-0.115D+00 0.102D+01-0.190D+01 0.202D+01
 Gap=     0.357 Goal=   None    Shift=    0.000
 Gap=     0.556 Goal=   None    Shift=    0.000
 RMSDP=1.60D-07 MaxDP=7.16D-07 DE=-6.23D-12 OVMax= 7.53D-07

 Cycle  12  Pass 1  IDiag  3:
 E=-0.163116531818588E-01 Delta-E=       -0.000000000000 Rises=F Damp=F
 DIIS: error= 1.27D-08 at cycle  12 NSaved=  12.
 NSaved=12 IEnMin=12 EnMin=-0.163116531818588E-01 IErMin=12 ErrMin= 1.27D-08
 ErrMax= 1.27D-08  0.00D+00 EMaxC= 1.00D-01 BMatC= 4.56D-15 BMatP= 1.74D-13
 IDIUse=1 WtCom= 1.00D+00 WtEn= 0.00D+00
 Coeff-Com: -0.435D-04 0.139D-03-0.175D-03-0.918D-03 0.552D-02-0.119D-01
 Coeff-Com:  0.226D-01 0.598D-01-0.599D+00 0.114D+01-0.132D+01 0.170D+01
 Coeff:     -0.435D-04 0.139D-03-0.175D-03-0.918D-03 0.552D-02-0.119D-01
 Coeff:      0.226D-01 0.598D-01-0.599D+00 0.114D+01-0.132D+01 0.170D+01
 Gap=     0.357 Goal=   None    Shift=    0.000
 Gap=     0.556 Goal=   None    Shift=    0.000
 RMSDP=1.76D-08 MaxDP=5.71D-08 DE=-4.33D-13 OVMax= 6.87D-08

 Cycle  13  Pass 1  IDiag  3:
 E=-0.163116531818588E-01 Delta-E=        0.000000000000 Rises=F Damp=F
 DIIS: error= 1.09D-09 at cycle  13 NSaved=  13.
 NSaved=13 IEnMin=12 EnMin=-0.163116531818588E-01 IErMin=13 ErrMin= 1.09D-09
 ErrMax= 1.09D-09  0.00D+00 EMaxC= 1.00D-01 BMatC= 7.40D-17 BMatP= 4.56D-15
 IDIUse=1 WtCom= 1.00D+00 WtEn= 0.00D+00
 Coeff-Com:  0.107D-04-0.305D-04 0.159D-04 0.622D-03-0.325D-02 0.688D-02
 Coeff-Com: -0.129D-01-0.330D-01 0.335D+00-0.641D+00 0.742D+00-0.100D+01
 Coeff-Com:  0.161D+01
 Coeff:      0.107D-04-0.305D-04 0.159D-04 0.622D-03-0.325D-02 0.688D-02
 Coeff:     -0.129D-01-0.330D-01 0.335D+00-0.641D+00 0.742D+00-0.100D+01
 Coeff:      0.161D+01
 Gap=     0.357 Goal=   None    Shift=    0.000
 Gap=     0.556 Goal=   None    Shift=    0.000
 RMSDP=1.74D-09 MaxDP=6.69D-09 DE= 0.00D+00 OVMax= 6.36D-09

 Cycle  14  Pass 2  IDiag  1:
 SCF Done:  E(UPM3) = -0.163116531819E-01 A.U. after   14 cycles
            NFock= 13  Conv=0.17D-08     -V/T= 0.9993
 <Sx>= 0.0000 <Sy>= 0.0000 <Sz>= 0.5000 <S**2>= 0.7557 S= 0.5028
 <L.S>= 0.000000000000E+00
 KE=-2.509355677591D+01 PE=-2.069469199181D+01 EE= 1.874850513200D+01
 Annihilation of the first spin contaminant:
 S**2 before annihilation     0.7557,   after     0.7500
 Leave Link  502 at Wed Oct 21 14:22:22 2020, MaxMem=  2684354560 cpu:               9.1 elap:               1.4
 (Enter /udrive/faculty/rpeverati/g16/g16/l508.exe)
 QCSCF skips out because SCF is already converged.
 Leave Link  508 at Wed Oct 21 14:22:23 2020, MaxMem=  2684354560 cpu:               0.4 elap:               0.6
 (Enter /udrive/faculty/rpeverati/g16/g16/l701.exe)
 ... and contract with generalized density number  0.
 Compute integral first derivatives.
 Leave Link  701 at Wed Oct 21 14:22:24 2020, MaxMem=  2684354560 cpu:               3.2 elap:               0.9
 (Enter /udrive/faculty/rpeverati/g16/g16/l702.exe)
 L702 exits ... SP integral derivatives will be done elsewhere.
 Leave Link  702 at Wed Oct 21 14:22:25 2020, MaxMem=  2684354560 cpu:               1.1 elap:               0.7
 (Enter /udrive/faculty/rpeverati/g16/g16/l703.exe)
 Integral derivatives from FoFJK, PRISM(SPDF).
 Compute integral first derivatives, UseDBF=F ICtDFT=           0.
 Calling FoFJK, ICntrl=      2127 FMM=F ISym2X=1 I1Cent= 0 IOpClX= 1 NMat=1 NMatS=1 NMatT=0.
 FoFJK:  IHMeth= 9 ICntrl=    2127 DoSepK=F KAlg= 0 I1Cent=           0 FoldK=F
 IRaf=         0 NMat=       1 IRICut=       1 DoRegI=T DoRafI=F ISym2E= 1 IDoP0=3 IntGTp=3.
 FoFCou: FMM=F IPFlag=           0 FMFlag=      100000 FMFlg1=         800
         NFxFlg=           0 DoJE=F BraDBF=F KetDBF=F FulRan=T
         wScrn=  0.000000 ICntrl=      2127 IOpCl=  1 I1Cent=           0 NGrid=           0
         NMat0=    1 NMatS0=      1 NMatT0=    0 NMatD0=    1 NMtDS0=    0 NMtDT0=    0
 Petite list used in FoFCou.
 Leave Link  703 at Wed Oct 21 14:22:26 2020, MaxMem=  2684354560 cpu:               1.8 elap:               0.8
 (Enter /udrive/faculty/rpeverati/g16/g16/l716.exe)
 Dipole        =-3.97163472D-01 4.87823337D-01 9.82463923D-16
 ***** Axes restored to original set *****
 -------------------------------------------------------------------
 Center     Atomic                   Forces (Hartrees/Bohr)
 Number     Number              X              Y              Z
 -------------------------------------------------------------------
      1        1          -0.000221321    0.000447104   -0.000000000
      2        6          -0.000001282   -0.000014786    0.000000000
      3        8           0.000222604   -0.000432318   -0.000000000
 -------------------------------------------------------------------
 Cartesian Forces:  Max     0.000447104 RMS     0.000232273
 Leave Link  716 at Wed Oct 21 14:22:27 2020, MaxMem=  2684354560 cpu:               1.1 elap:               0.6
 (Enter /udrive/faculty/rpeverati/g16/g16/l103.exe)

 GradGradGradGradGradGradGradGradGradGradGradGradGradGradGradGradGradGrad
 Berny optimization.
 Optmz: redundant internal coordinate code flag= 1
 Using GEDIIS/GDIIS optimizer.
 Red2BG:  D1=  7.81D-01 OD1=  3.47D-02 B2RMS=  0.00D+00 IAprox=0
 FormGI is forming the generalized inverse of G from B-inverse, IUseBI=4.
 Internal  Forces:  Max     0.000459816 RMS     0.000437242
 Search for a local minimum.
 Step number   3 out of a maximum of  100
 All quantities printed in internal units (Hartrees-Bohrs-Radians)
 RMS Force = .43724D-03 SwitMx=.10000D-02 MixMth= 2
 Mixed Optimization -- En-DIIS/RFO-DIIS
 Update second derivatives using D2CorX and points    1    2    3
 DE= -2.87D-04 DEPred=-2.87D-04 R= 1.00D+00
 TightC=F SS=  1.41D+00  RLast= 6.90D-02 DXNew= 6.7613D-01 2.0707D-01
 Trust test= 1.00D+00 RLast= 6.90D-02 DXMaxT set to 4.02D-01
 The second derivative matrix:
                          R1        R2        A1
           R1           0.31740
           R2           0.00871   1.22713
           A1           0.01630   0.00863   0.10955
 ITU=  1  1  0
 Use linear search instead of GDIIS.
 Eigenvectors of the second derivative matrix:
                           1         2         3
     Eigenvalues --     0.10822   0.31858   1.22728
   1         R1        -0.07739   0.99695  -0.00971
   2         R2        -0.00708  -0.01029  -0.99992
   3         A1         0.99698   0.07732  -0.00786
 Iter=   1 RLamda= 0.00000000D+00 Sum=-1.41551311D-06.
 Iter=   2 RLamda=-1.41551311D-06 Sum=-1.41550678D-06.
 RFO step:  Lambda=-1.41551311D-06 EMin= 1.08222109D-01
 Quartic linear search produced a step of  0.03575.
 Iteration  1 RMS(Cart)=  0.00225943 RMS(Int)=  0.00000271
 Iteration  2 RMS(Cart)=  0.00000225 RMS(Int)=  0.00000000
 Iteration  3 RMS(Cart)=  0.00000000 RMS(Int)=  0.00000000
 ITry= 1 IFail=0 DXMaxC= 2.48D-03 DCOld= 1.00D+10 DXMaxT= 4.02D-01 DXLimC= 3.00D+00 Rises=F
 ClnCor:  largest displacement from symmetrization is 2.24D-16 for atom     3.
 Variable       Old X    -DE/DX   Delta X   Delta X   Delta X     New X
                                 (Linear)    (Quad)   (Total)
    R1        2.05569   0.00046  -0.00055   0.00181   0.00126   2.05696
    R2        2.20281   0.00045  -0.00005   0.00039   0.00033   2.20315
    A1        2.37852   0.00040   0.00241   0.00103   0.00343   2.38196
         Item               Value     Threshold  Converged?
 Maximum Force            0.000460     0.000450     NO 
 RMS     Force            0.000437     0.000300     NO 
 Maximum Displacement     0.002481     0.001800     NO 
 RMS     Displacement     0.002259     0.001200     NO 
 Predicted change in Energy=-1.045951D-06
 Lowest energy point so far.  Saving SCF results.
 Largest change from initial coordinates is atom    1       0.011 Angstoms.
 GradGradGradGradGradGradGradGradGradGradGradGradGradGradGradGradGradGrad

 Leave Link  103 at Wed Oct 21 14:22:29 2020, MaxMem=  2684354560 cpu:               3.6 elap:               1.0
 (Enter /udrive/faculty/rpeverati/g16/g16/l202.exe)
                          Input orientation:                          
 ---------------------------------------------------------------------
 Center     Atomic      Atomic             Coordinates (Angstroms)
 Number     Number       Type             X           Y           Z
 ---------------------------------------------------------------------
      1          1           0       -0.829024    1.269218    0.000000
      2          6           0       -0.006841    0.555892    0.000000
      3          8           0        0.105533   -0.604536    0.000000
 ---------------------------------------------------------------------
                    Distance matrix (angstroms):
                    1          2          3
     1  H    0.000000
     2  C    1.088494   0.000000
     3  O    2.093885   1.165856   0.000000
 Stoichiometry    CHO(2)
 Framework group  CS[SG(CHO)]
 Deg. of freedom     3
 Full point group                 CS      NOp   2
 RotChk:  IX=0 Diff= 2.22D-03
 Largest Abelian subgroup         CS      NOp   2
 Largest concise Abelian subgroup C1      NOp   1
                         Standard orientation:                         
 ---------------------------------------------------------------------
 Center     Atomic      Atomic             Coordinates (Angstroms)
 Number     Number       Type             X           Y           Z
 ---------------------------------------------------------------------
      1          1           0       -0.699625    1.358427    0.000000
      2          6           0        0.049973    0.569173    0.000000
      3          8           0        0.049973   -0.596683    0.000000
 ---------------------------------------------------------------------
 Rotational constants (GHZ):        1139.2003974          44.0126751          42.3755096
 Leave Link  202 at Wed Oct 21 14:22:30 2020, MaxMem=  2684354560 cpu:               1.3 elap:               0.6
 (Enter /udrive/faculty/rpeverati/g16/g16/l301.exe)
 Standard basis: VSTO-6G (5D, 7F)
 Ernie: Thresh=  0.10000D-02 Tol=  0.10000D-05 Strict=F.
  NNHCO=     0 NNPyr=     0 NCTC=     0               EPep=         0.000000000
    EC=        10.656311037  ECS=         0.633903621   EG=         0.078921664
   EHC=         0.000000000  EAt=       -15.201190384  AtH=         0.450273680
 EPDDG=         0.000000000  ECC=        11.369136322 EAtT=        15.651464064
 There are     7 symmetry adapted cartesian basis functions of A'  symmetry.
 There are     2 symmetry adapted cartesian basis functions of A"  symmetry.
 There are     7 symmetry adapted basis functions of A'  symmetry.
 There are     2 symmetry adapted basis functions of A"  symmetry.
     9 basis functions,    54 primitive gaussians,     9 cartesian basis functions
     6 alpha electrons        5 beta electrons
       nuclear repulsion energy        27.0206003863 Hartrees.
 IExCor=    0 DFT=F Ex=HF Corr=None ExCW=0 ScaHFX=  1.000000
 ScaDFX=  1.000000  1.000000  1.000000  1.000000 ScalE2=  1.000000  1.000000
 IRadAn=      5 IRanWt=     -1 IRanGd=            0 ICorTp=0 IEmpDi=  4
 Integral buffers will be    131072 words long.
 Regular integral format.
 Two-electron integral symmetry is turned off.
 Leave Link  301 at Wed Oct 21 14:22:31 2020, MaxMem=  2684354560 cpu:               3.4 elap:               0.8
 (Enter /udrive/faculty/rpeverati/g16/g16/l302.exe)
 Do NDO integrals.
 NPDir=0 NMtPBC=     1 NCelOv=     1 NCel=       1 NClECP=     1 NCelD=      1
         NCelK=      1 NCelE2=     1 NClLst=     1 CellRange=     0.0.
 One-electron integrals computed using PRISM.
 NBasis=     9 RedAO= T EigKep=  1.00D+00  NBF=     7     2
 NBsUse=     9 1.00D-06 EigRej= -1.00D+00 NBFU=     7     2
 Leave Link  302 at Wed Oct 21 14:22:32 2020, MaxMem=  2684354560 cpu:               2.0 elap:               0.7
 (Enter /udrive/faculty/rpeverati/g16/g16/l303.exe)
 DipDrv:  MaxL=1.
 Leave Link  303 at Wed Oct 21 14:22:33 2020, MaxMem=  2684354560 cpu:               2.2 elap:               0.8
 (Enter /udrive/faculty/rpeverati/g16/g16/l401.exe)
 Initial guess from the checkpoint file:  "MN_50_hco_BH76_PM3_SE.chk"
 SCF N**3 symmetry information disabled.
 B after Tr=     0.000000   -0.000000    0.000000
         Rot=    1.000000    0.000000   -0.000000    0.000367 Ang=   0.04 deg.
 Guess basis will be translated and rotated to current coordinates.
 JPrj=0 DoOrth=T DoCkMO=T.
 Initial guess orbital symmetries:
 Alpha Orbitals:
       Occupied  (A') (A') (A') (A') (A") (A')
       Virtual   (A") (A') (A')
 Beta  Orbitals:
       Occupied  (A') (A') (A') (A") (A')
       Virtual   (A') (A") (A') (A')
 The electronic state of the initial guess is 2-A'.
 Initial guess <Sx>= 0.0000 <Sy>= 0.0000 <Sz>= 0.5000 <S**2>= 0.7557 S= 0.5028
 Leave Link  401 at Wed Oct 21 14:22:34 2020, MaxMem=  2684354560 cpu:               1.7 elap:               0.8
 (Enter /udrive/faculty/rpeverati/g16/g16/l502.exe)
 Keep J ints in memory in canonical form, NReq=859290.
 FoFCou: FMM=F IPFlag=           0 FMFlag=           0 FMFlg1=           0
         NFxFlg=           0 DoJE=F BraDBF=F KetDBF=F FulRan=T
         wScrn=  0.000000 ICntrl=       600 IOpCl=  2 I1Cent=           0 NGrid=           0
         NMat0=    1 NMatS0=     21 NMatT0=    0 NMatD0=    1 NMtDS0=    0 NMtDT0=    0
 Symmetry not used in FoFCou.
 Two-electron integral symmetry not used.
 UHF open shell SCF:
 Using DIIS extrapolation, IDIIS=  1040.
 Overlap will be assumed to be unity.
 NGot=  2684354560 LenX=  2684293973 LenY=  2684293091
 Requested convergence on RMS density matrix=1.00D-08 within 120 cycles.
 Requested convergence on MAX density matrix=1.00D-06.
 Requested convergence on             energy=1.00D-06.
 No special actions if energy rises.

 Cycle   1  Pass 1  IDiag  1:
 E=-0.163119307755473E-01
 DIIS: error= 1.40D-04 at cycle   1 NSaved=   1.
 NSaved= 1 IEnMin= 1 EnMin=-0.163119307755473E-01 IErMin= 1 ErrMin= 1.40D-04
 ErrMax= 1.40D-04  0.00D+00 EMaxC= 1.00D-01 BMatC= 8.16D-07 BMatP= 8.16D-07
 IDIUse=3 WtCom= 9.99D-01 WtEn= 1.40D-03
 Coeff-Com:  0.100D+01
 Coeff-En:   0.100D+01
 Coeff:      0.100D+01
 RMSDP=8.29D-05 MaxDP=3.50D-04              OVMax= 0.00D+00

 Cycle   2  Pass 1  IDiag  3:
 E=-0.163125674865725E-01 Delta-E=       -0.000000636711 Rises=F Damp=F
 DIIS: error= 5.53D-05 at cycle   2 NSaved=   2.
 NSaved= 2 IEnMin= 2 EnMin=-0.163125674865725E-01 IErMin= 2 ErrMin= 5.53D-05
 ErrMax= 5.53D-05  0.00D+00 EMaxC= 1.00D-01 BMatC= 1.30D-07 BMatP= 8.16D-07
 IDIUse=1 WtCom= 1.00D+00 WtEn= 0.00D+00
 Coeff-Com: -0.509D+00 0.151D+01
 Coeff:     -0.509D+00 0.151D+01
 Gap=     0.357 Goal=   None    Shift=    0.000
 Gap=     0.556 Goal=   None    Shift=    0.000
 RMSDP=5.93D-05 MaxDP=2.27D-04 DE=-6.37D-07 OVMax= 2.19D-04

 Cycle   3  Pass 1  IDiag  3:
 E=-0.163127310517943E-01 Delta-E=       -0.000000163565 Rises=F Damp=F
 DIIS: error= 1.29D-05 at cycle   3 NSaved=   3.
 NSaved= 3 IEnMin= 3 EnMin=-0.163127310517943E-01 IErMin= 3 ErrMin= 1.29D-05
 ErrMax= 1.29D-05  0.00D+00 EMaxC= 1.00D-01 BMatC= 1.00D-08 BMatP= 1.30D-07
 IDIUse=1 WtCom= 1.00D+00 WtEn= 0.00D+00
 Coeff-Com:  0.314D+00-0.108D+01 0.176D+01
 Coeff:      0.314D+00-0.108D+01 0.176D+01
 Gap=     0.357 Goal=   None    Shift=    0.000
 Gap=     0.556 Goal=   None    Shift=    0.000
 RMSDP=2.40D-05 MaxDP=1.07D-04 DE=-1.64D-07 OVMax= 1.02D-04

 Cycle   4  Pass 1  IDiag  3:
 E=-0.163127484285361E-01 Delta-E=       -0.000000017377 Rises=F Damp=F
 DIIS: error= 4.88D-06 at cycle   4 NSaved=   4.
 NSaved= 4 IEnMin= 4 EnMin=-0.163127484285361E-01 IErMin= 4 ErrMin= 4.88D-06
 ErrMax= 4.88D-06  0.00D+00 EMaxC= 1.00D-01 BMatC= 7.74D-10 BMatP= 1.00D-08
 IDIUse=1 WtCom= 1.00D+00 WtEn= 0.00D+00
 Coeff-Com: -0.308D+00 0.107D+01-0.189D+01 0.212D+01
 Coeff:     -0.308D+00 0.107D+01-0.189D+01 0.212D+01
 Gap=     0.357 Goal=   None    Shift=    0.000
 Gap=     0.556 Goal=   None    Shift=    0.000
 RMSDP=8.84D-06 MaxDP=4.62D-05 DE=-1.74D-08 OVMax= 5.03D-05

 Cycle   5  Pass 1  IDiag  3:
 E=-0.163127503514282E-01 Delta-E=       -0.000000001923 Rises=F Damp=F
 DIIS: error= 2.10D-06 at cycle   5 NSaved=   5.
 NSaved= 5 IEnMin= 5 EnMin=-0.163127503514282E-01 IErMin= 5 ErrMin= 2.10D-06
 ErrMax= 2.10D-06  0.00D+00 EMaxC= 1.00D-01 BMatC= 9.75D-11 BMatP= 7.74D-10
 IDIUse=1 WtCom= 1.00D+00 WtEn= 0.00D+00
 Coeff-Com:  0.218D+00-0.759D+00 0.135D+01-0.175D+01 0.194D+01
 Coeff:      0.218D+00-0.759D+00 0.135D+01-0.175D+01 0.194D+01
 Gap=     0.357 Goal=   None    Shift=    0.000
 Gap=     0.556 Goal=   None    Shift=    0.000
 RMSDP=3.72D-06 MaxDP=2.15D-05 DE=-1.92D-09 OVMax= 2.66D-05

 Cycle   6  Pass 1  IDiag  3:
 E=-0.163127506466090E-01 Delta-E=       -0.000000000295 Rises=F Damp=F
 DIIS: error= 7.51D-07 at cycle   6 NSaved=   6.
 NSaved= 6 IEnMin= 6 EnMin=-0.163127506466090E-01 IErMin= 6 ErrMin= 7.51D-07
 ErrMax= 7.51D-07  0.00D+00 EMaxC= 1.00D-01 BMatC= 1.88D-11 BMatP= 9.75D-11
 IDIUse=1 WtCom= 1.00D+00 WtEn= 0.00D+00
 Coeff-Com: -0.213D+00 0.745D+00-0.132D+01 0.177D+01-0.243D+01 0.244D+01
 Coeff:     -0.213D+00 0.745D+00-0.132D+01 0.177D+01-0.243D+01 0.244D+01
 Gap=     0.357 Goal=   None    Shift=    0.000
 Gap=     0.556 Goal=   None    Shift=    0.000
 RMSDP=2.18D-06 MaxDP=1.16D-05 DE=-2.95D-10 OVMax= 1.56D-05

 Cycle   7  Pass 1  IDiag  3:
 E=-0.163127507112684E-01 Delta-E=       -0.000000000065 Rises=F Damp=F
 DIIS: error= 1.86D-07 at cycle   7 NSaved=   7.
 NSaved= 7 IEnMin= 7 EnMin=-0.163127507112684E-01 IErMin= 7 ErrMin= 1.86D-07
 ErrMax= 1.86D-07  0.00D+00 EMaxC= 1.00D-01 BMatC= 1.00D-12 BMatP= 1.88D-11
 IDIUse=1 WtCom= 1.00D+00 WtEn= 0.00D+00
 Coeff-Com:  0.139D+00-0.485D+00 0.860D+00-0.116D+01 0.163D+01-0.181D+01
 Coeff-Com:  0.183D+01
 Coeff:      0.139D+00-0.485D+00 0.860D+00-0.116D+01 0.163D+01-0.181D+01
 Coeff:      0.183D+01
 Gap=     0.357 Goal=   None    Shift=    0.000
 Gap=     0.556 Goal=   None    Shift=    0.000
 RMSDP=4.01D-07 MaxDP=1.66D-06 DE=-6.47D-11 OVMax= 2.47D-06

 Cycle   8  Pass 1  IDiag  3:
 E=-0.163127507136345E-01 Delta-E=       -0.000000000002 Rises=F Damp=F
 DIIS: error= 2.41D-08 at cycle   8 NSaved=   8.
 NSaved= 8 IEnMin= 8 EnMin=-0.163127507136345E-01 IErMin= 8 ErrMin= 2.41D-08
 ErrMax= 2.41D-08  0.00D+00 EMaxC= 1.00D-01 BMatC= 3.08D-14 BMatP= 1.00D-12
 IDIUse=1 WtCom= 1.00D+00 WtEn= 0.00D+00
 Coeff-Com: -0.540D-01 0.189D+00-0.335D+00 0.452D+00-0.633D+00 0.714D+00
 Coeff-Com: -0.816D+00 0.148D+01
 Coeff:     -0.540D-01 0.189D+00-0.335D+00 0.452D+00-0.633D+00 0.714D+00
 Coeff:     -0.816D+00 0.148D+01
 Gap=     0.357 Goal=   None    Shift=    0.000
 Gap=     0.556 Goal=   None    Shift=    0.000
 RMSDP=3.66D-08 MaxDP=1.56D-07 DE=-2.37D-12 OVMax= 1.72D-07

 Cycle   9  Pass 1  IDiag  3:
 E=-0.163127507136913E-01 Delta-E=       -0.000000000000 Rises=F Damp=F
 DIIS: error= 9.78D-09 at cycle   9 NSaved=   9.
 NSaved= 9 IEnMin= 9 EnMin=-0.163127507136913E-01 IErMin= 9 ErrMin= 9.78D-09
 ErrMax= 9.78D-09  0.00D+00 EMaxC= 1.00D-01 BMatC= 3.27D-15 BMatP= 3.08D-14
 IDIUse=1 WtCom= 1.00D+00 WtEn= 0.00D+00
 Coeff-Com:  0.263D-01-0.921D-01 0.163D+00-0.220D+00 0.308D+00-0.350D+00
 Coeff-Com:  0.412D+00-0.975D+00 0.173D+01
 Coeff:      0.263D-01-0.921D-01 0.163D+00-0.220D+00 0.308D+00-0.350D+00
 Coeff:      0.412D+00-0.975D+00 0.173D+01
 Gap=     0.357 Goal=   None    Shift=    0.000
 Gap=     0.556 Goal=   None    Shift=    0.000
 RMSDP=1.46D-08 MaxDP=7.25D-08 DE=-5.68D-14 OVMax= 7.62D-08

 Cycle  10  Pass 1  IDiag  3:
 E=-0.163127507137055E-01 Delta-E=       -0.000000000000 Rises=F Damp=F
 DIIS: error= 4.48D-09 at cycle  10 NSaved=  10.
 NSaved=10 IEnMin=10 EnMin=-0.163127507137055E-01 IErMin=10 ErrMin= 4.48D-09
 ErrMax= 4.48D-09  0.00D+00 EMaxC= 1.00D-01 BMatC= 4.18D-16 BMatP= 3.27D-15
 IDIUse=1 WtCom= 1.00D+00 WtEn= 0.00D+00
 Coeff-Com: -0.260D-01 0.909D-01-0.161D+00 0.218D+00-0.304D+00 0.346D+00
 Coeff-Com: -0.409D+00 0.100D+01-0.199D+01 0.223D+01
 Coeff:     -0.260D-01 0.909D-01-0.161D+00 0.218D+00-0.304D+00 0.346D+00
 Coeff:     -0.409D+00 0.100D+01-0.199D+01 0.223D+01
 Gap=     0.357 Goal=   None    Shift=    0.000
 Gap=     0.556 Goal=   None    Shift=    0.000
 RMSDP=7.49D-09 MaxDP=3.57D-08 DE=-1.42D-14 OVMax= 4.30D-08

 Cycle  11  Pass 2  IDiag  1:
 SCF Done:  E(UPM3) = -0.163127507137E-01 A.U. after   11 cycles
            NFock= 10  Conv=0.75D-08     -V/T= 0.9993
 <Sx>= 0.0000 <Sy>= 0.0000 <Sz>= 0.5000 <S**2>= 0.7557 S= 0.5029
 <L.S>= 0.000000000000E+00
 KE=-2.509324045187D+01 PE=-2.069065108730D+01 EE= 1.874697840218D+01
 Annihilation of the first spin contaminant:
 S**2 before annihilation     0.7557,   after     0.7500
 Leave Link  502 at Wed Oct 21 14:22:36 2020, MaxMem=  2684354560 cpu:               7.6 elap:               1.4
 (Enter /udrive/faculty/rpeverati/g16/g16/l508.exe)
 QCSCF skips out because SCF is already converged.
 Leave Link  508 at Wed Oct 21 14:22:37 2020, MaxMem=  2684354560 cpu:               0.5 elap:               0.7
 (Enter /udrive/faculty/rpeverati/g16/g16/l701.exe)
 ... and contract with generalized density number  0.
 Compute integral first derivatives.
 Leave Link  701 at Wed Oct 21 14:22:38 2020, MaxMem=  2684354560 cpu:               2.9 elap:               0.7
 (Enter /udrive/faculty/rpeverati/g16/g16/l702.exe)
 L702 exits ... SP integral derivatives will be done elsewhere.
 Leave Link  702 at Wed Oct 21 14:22:40 2020, MaxMem=  2684354560 cpu:               1.5 elap:               0.7
 (Enter /udrive/faculty/rpeverati/g16/g16/l703.exe)
 Integral derivatives from FoFJK, PRISM(SPDF).
 Compute integral first derivatives, UseDBF=F ICtDFT=           0.
 Calling FoFJK, ICntrl=      2127 FMM=F ISym2X=1 I1Cent= 0 IOpClX= 1 NMat=1 NMatS=1 NMatT=0.
 FoFJK:  IHMeth= 9 ICntrl=    2127 DoSepK=F KAlg= 0 I1Cent=           0 FoldK=F
 IRaf=         0 NMat=       1 IRICut=       1 DoRegI=T DoRafI=F ISym2E= 1 IDoP0=3 IntGTp=3.
 FoFCou: FMM=F IPFlag=           0 FMFlag=      100000 FMFlg1=         800
         NFxFlg=           0 DoJE=F BraDBF=F KetDBF=F FulRan=T
         wScrn=  0.000000 ICntrl=      2127 IOpCl=  1 I1Cent=           0 NGrid=           0
         NMat0=    1 NMatS0=      1 NMatT0=    0 NMatD0=    1 NMtDS0=    0 NMtDT0=    0
 Petite list used in FoFCou.
 Leave Link  703 at Wed Oct 21 14:22:41 2020, MaxMem=  2684354560 cpu:               3.0 elap:               0.7
 (Enter /udrive/faculty/rpeverati/g16/g16/l716.exe)
 Dipole        =-3.97463929D-01 4.89030398D-01 2.36478387D-15
 ***** Axes restored to original set *****
 -------------------------------------------------------------------
 Center     Atomic                   Forces (Hartrees/Bohr)
 Number     Number              X              Y              Z
 -------------------------------------------------------------------
      1        1          -0.000027517    0.000033238   -0.000000000
      2        6           0.000022498   -0.000049909   -0.000000000
      3        8           0.000005019    0.000016671    0.000000000
 -------------------------------------------------------------------
 Cartesian Forces:  Max     0.000049909 RMS     0.000023949
 Leave Link  716 at Wed Oct 21 14:22:42 2020, MaxMem=  2684354560 cpu:               1.1 elap:               0.5
 (Enter /udrive/faculty/rpeverati/g16/g16/l103.exe)

 GradGradGradGradGradGradGradGradGradGradGradGradGradGradGradGradGradGrad
 Berny optimization.
 Optmz: redundant internal coordinate code flag= 1
 Using GEDIIS/GDIIS optimizer.
 Red2BG:  D1=  7.81D-01 OD1=  1.09D-03 B2RMS=  0.00D+00 IAprox=0
 FormGI is forming the generalized inverse of G from B-inverse, IUseBI=4.
 Internal  Forces:  Max     0.000042567 RMS     0.000027587
 Search for a local minimum.
 Step number   4 out of a maximum of  100
 All quantities printed in internal units (Hartrees-Bohrs-Radians)
 RMS Force = .27587D-04 SwitMx=.10000D-02 MixMth= 2
 Mixed Optimization -- En-DIIS/RFO-DIIS
 Swapping is turned off.
 Update second derivatives using D2CorX and points    1    2    3    4
 DE= -1.10D-06 DEPred=-1.05D-06 R= 1.05D+00
 TightC=F SS=  1.41D+00  RLast= 3.67D-03 DXNew= 6.7613D-01 1.1020D-02
 Trust test= 1.05D+00 RLast= 3.67D-03 DXMaxT set to 4.02D-01
 The second derivative matrix:
                          R1        R2        A1
           R1           0.30463
           R2           0.00555   1.23599
           A1           0.00902   0.01363   0.10698
 ITU=  1  1  1  0
 Eigenvectors of the second derivative matrix:
                           1         2         3
     Eigenvalues --     0.10641   0.30500   1.23619
   1         R1        -0.04514   0.99896  -0.00607
   2         R2        -0.01183  -0.00661  -0.99991
   3         A1         0.99891   0.04507  -0.01212
 DoSqrt=T IScMMF=    -3 MM Scaling Factor =       0.00000
 En-DIIS/RFO-DIIS/Sim-DIIS IScMMF=       -3 using points:     4    3
 Iter=   1 RLamda= 0.00000000D+00 Sum=-7.88154510D-09.
 RFO step:  Lambda= 0.00000000D+00.
 NNeg= 0 NGDIIS= 2 SimSw=  2.50D-01 Rises=F DC= -1.10D-06 SmlDif=  1.00D-05
 NRisDI= 0 DoIntr=F SqrtH=F CThrHd= 10.0 CDAdj=  3.0
 RMS Error=  0.1076607485D-03 NUsed= 2 OKEnD=F EnDIS=F
 Total RFO-DIIS matrix:
                 1             2             3 
      1   0.000000D+00 -0.100000D+01 -0.100000D+01
      2  -0.100000D+01  0.347725D-07  0.635726D-06
      3  -0.100000D+01  0.635726D-06  0.147312D-04
 InvSVX:  RCond= 3.37D-06 Info=           0 Equed=N FErr=  9.72D-16 BErr=  0.00D+00
 DidBck=F Rises=F RFO-DIIS coefs:    1.04453   -0.04453
 Iteration  1 RMS(Cart)=  0.00010572 RMS(Int)=  0.00000000
 Iteration  2 RMS(Cart)=  0.00000000 RMS(Int)=  0.00000000
 ITry= 1 IFail=0 DXMaxC= 1.29D-04 DCOld= 1.00D+10 DXMaxT= 4.02D-01 DXLimC= 3.00D+00 Rises=F
 ClnCor:  largest displacement from symmetrization is 2.22D-16 for atom     2.
 Variable       Old X    -DE/DX   Delta X   Delta X   Delta X     New X
                                 (Linear)    (Quad)   (Total)
    R1        2.05696   0.00004   0.00006   0.00008   0.00014   2.05709
    R2        2.20315  -0.00002   0.00001  -0.00003  -0.00002   2.20313
    A1        2.38196   0.00001   0.00015  -0.00003   0.00013   2.38208
         Item               Value     Threshold  Converged?
 Maximum Force            0.000043     0.000450     YES
 RMS     Force            0.000028     0.000300     YES
 Maximum Displacement     0.000129     0.001800     YES
 RMS     Displacement     0.000106     0.001200     YES
 Predicted change in Energy=-3.940773D-09
 Optimization completed.
    -- Stationary point found.
                           ----------------------------
                           !   Optimized Parameters   !
                           ! (Angstroms and Degrees)  !
 --------------------------                            --------------------------
 ! Name  Definition              Value          Derivative Info.                !
 --------------------------------------------------------------------------------
 ! R1    R(1,2)                  1.0885         -DE/DX =    0.0                 !
 ! R2    R(2,3)                  1.1659         -DE/DX =    0.0                 !
 ! A1    A(1,2,3)              136.4762         -DE/DX =    0.0                 !
 --------------------------------------------------------------------------------
 Lowest energy point so far.  Saving SCF results.
 Largest change from initial coordinates is atom    1       0.012 Angstoms.
 GradGradGradGradGradGradGradGradGradGradGradGradGradGradGradGradGradGrad

 Leave Link  103 at Wed Oct 21 14:22:43 2020, MaxMem=  2684354560 cpu:               4.0 elap:               0.9
 (Enter /udrive/faculty/rpeverati/g16/g16/l202.exe)
                          Input orientation:                          
 ---------------------------------------------------------------------
 Center     Atomic      Atomic             Coordinates (Angstroms)
 Number     Number       Type             X           Y           Z
 ---------------------------------------------------------------------
      1          1           0       -0.829024    1.269218    0.000000
      2          6           0       -0.006841    0.555892    0.000000
      3          8           0        0.105533   -0.604536    0.000000
 ---------------------------------------------------------------------
                    Distance matrix (angstroms):
                    1          2          3
     1  H    0.000000
     2  C    1.088494   0.000000
     3  O    2.093885   1.165856   0.000000
 Stoichiometry    CHO(2)
 Framework group  CS[SG(CHO)]
 Deg. of freedom     3
 Full point group                 CS      NOp   2
 RotChk:  IX=0 Diff= 0.00D+00
 Largest Abelian subgroup         CS      NOp   2
 Largest concise Abelian subgroup C1      NOp   1
                         Standard orientation:                         
 ---------------------------------------------------------------------
 Center     Atomic      Atomic             Coordinates (Angstroms)
 Number     Number       Type             X           Y           Z
 ---------------------------------------------------------------------
      1          1           0       -0.699625    1.358427    0.000000
      2          6           0        0.049973    0.569173    0.000000
      3          8           0        0.049973   -0.596683    0.000000
 ---------------------------------------------------------------------
 Rotational constants (GHZ):        1139.2003974          44.0126751          42.3755096
 Leave Link  202 at Wed Oct 21 14:22:44 2020, MaxMem=  2684354560 cpu:               1.5 elap:               0.8
 (Enter /udrive/faculty/rpeverati/g16/g16/l601.exe)
 Copying SCF densities to generalized density rwf, IOpCl= 1 IROHF=0.

 **********************************************************************

            Population analysis using the SCF density.

 **********************************************************************

 Orbital symmetries:
 Alpha Orbitals:
       Occupied  (A') (A') (A') (A') (A") (A')
       Virtual   (A") (A') (A')
 Beta  Orbitals:
       Occupied  (A') (A') (A') (A") (A')
       Virtual   (A') (A") (A') (A')
 The electronic state is 2-A'.
 Alpha  occ. eigenvalues --   -1.42706  -0.84263  -0.63770  -0.57145  -0.55963
 Alpha  occ. eigenvalues --   -0.33255
 Alpha virt. eigenvalues --    0.02424   0.09777   0.23157
  Beta  occ. eigenvalues --   -1.41834  -0.81093  -0.61422  -0.55403  -0.52139
  Beta virt. eigenvalues --    0.03484   0.04554   0.12478   0.26503
          Condensed to atoms (all electrons):
               1          2          3
     1  H    0.929741   0.000000   0.000000
     2  C    0.000000   3.886186   0.000000
     3  O    0.000000   0.000000   6.184073
          Atomic-Atomic Spin Densities.
               1          2          3
     1  H    0.171317   0.000000   0.000000
     2  C    0.000000   0.645722   0.000000
     3  O    0.000000   0.000000   0.182961
 Mulliken charges and spin densities:
               1          2
     1  H    0.070259   0.171317
     2  C    0.113814   0.645722
     3  O   -0.184073   0.182961
 Sum of Mulliken charges =   0.00000   1.00000
 Mulliken charges and spin densities with hydrogens summed into heavy atoms:
               1          2
     2  C    0.184073   0.817039
     3  O   -0.184073   0.182961
 Charge=              0.0000 electrons
 Dipole moment (field-independent basis, Debye):
    X=             -1.0103    Y=              1.2430    Z=              0.0000  Tot=              1.6018
 N-N= 2.702060038628D+01 E-N=-2.069065107941D+01  KE=-2.509324045187D+01
 Leave Link  601 at Wed Oct 21 14:22:45 2020, MaxMem=  2684354560 cpu:               2.1 elap:               0.7
 (Enter /udrive/faculty/rpeverati/g16/g16/l9999.exe)

 Test job not archived.
 1\1\GINC-NODE59\FOpt\UPM3\ZDO\C1H1O1(2)\RPEVERATI\21-Oct-2020\0\\#P Op
 t(MaxCyc=150) PM3 5D 7F Integral=UltraFineGrid SCF=(NoSymm,XQC,MaxCyc=
 120) IOp(1/33=1)\\TS search on BH76.\\0,2\H,-0.8290236395,1.269218438,
 0.\C,-0.0068413238,0.5558915656,0.\O,0.1055326777,-0.604536308,0.\\Ver
 sion=ES64L-G16RevA.03\State=2-A'\HF=-0.0163128\S2=0.755715\S2-1=0.\S2A
 =0.750018\RMSD=7.486e-09\RMSF=2.395e-05\Dipole=-0.4427497,0.4484428,0.
 \PG=CS [SG(C1H1O1)]\\@


 THE SCIENTIFIC THEORIST IS NOT TO BE ENVIED. FOR NATURE, OR MORE
 PRECISELY EXPERIMENT, IS AN INEXORABLE AND NOT VERY FRIENDLY JUDGE OF HIS
 WORK.  IT NEVER SAYS "YES" TO A THEORY. IN THE MOST FAVORABLE CASES
 IT SAYS "MAYBE", AND IN THE GREAT MAJORITY OF CASES SIMPLY "NO"...
 PROBABLY EVERY THEORY WILL SOME DAY EXPERIENCE ITS "NO" - MOST
 THEORIES, SOON AFTER CONCEPTION.  -- A.EINSTEIN, NOV 11, 1922.
 Job cpu time:       0 days  0 hours  2 minutes 36.4 seconds.
 Elapsed time:       0 days  0 hours  0 minutes 44.0 seconds.
 File lengths (MBytes):  RWF=      5 Int=      0 D2E=      0 Chk=      2 Scr=      1
 Normal termination of Gaussian 16 at Wed Oct 21 14:22:47 2020.
