 Entering Gaussian System, Link 0=g16
 Input=MN_53_hfch3ts_BH76_PM3_SE.in
 Output=MN_53_hfch3ts_BH76_PM3_SE.log
 Initial command:
 /udrive/faculty/rpeverati/g16/g16/l1.exe "/udrive/scratch-directories/gaussian09/rpeverati/Gau-12193.inp" -scrdir="/udrive/scratch-directories/gaussian09/rpeverati/"
 Entering Link 1 = /udrive/faculty/rpeverati/g16/g16/l1.exe PID=     12205.
  
 Copyright (c) 1988,1990,1992,1993,1995,1998,2003,2009,2016,
            Gaussian, Inc.  All Rights Reserved.
  
 This is part of the Gaussian(R) 16 program.  It is based on
 the Gaussian(R) 09 system (copyright 2009, Gaussian, Inc.),
 the Gaussian(R) 03 system (copyright 2003, Gaussian, Inc.),
 the Gaussian(R) 98 system (copyright 1998, Gaussian, Inc.),
 the Gaussian(R) 94 system (copyright 1995, Gaussian, Inc.),
 the Gaussian 92(TM) system (copyright 1992, Gaussian, Inc.),
 the Gaussian 90(TM) system (copyright 1990, Gaussian, Inc.),
 the Gaussian 88(TM) system (copyright 1988, Gaussian, Inc.),
 the Gaussian 86(TM) system (copyright 1986, Carnegie Mellon
 University), and the Gaussian 82(TM) system (copyright 1983,
 Carnegie Mellon University). Gaussian is a federally registered
 trademark of Gaussian, Inc.
  
 This software contains proprietary and confidential information,
 including trade secrets, belonging to Gaussian, Inc.
  
 This software is provided under written license and may be
 used, copied, transmitted, or stored only in accord with that
 written license.
  
 The following legend is applicable only to US Government
 contracts under FAR:
  
                    RESTRICTED RIGHTS LEGEND
  
 Use, reproduction and disclosure by the US Government is
 subject to restrictions as set forth in subparagraphs (a)
 and (c) of the Commercial Computer Software - Restricted
 Rights clause in FAR 52.227-19.
  
 Gaussian, Inc.
 340 Quinnipiac St., Bldg. 40, Wallingford CT 06492
  
  
 ---------------------------------------------------------------
 Warning -- This program may not be used in any manner that
 competes with the business of Gaussian, Inc. or will provide
 assistance to any competitor of Gaussian, Inc.  The licensee
 of this program is prohibited from giving any competitor of
 Gaussian, Inc. access to this program.  By using this program,
 the user acknowledges that Gaussian, Inc. is engaged in the
 business of creating and licensing software in the field of
 computational chemistry and represents and warrants to the
 licensee that it is not a competitor of Gaussian, Inc. and that
 it will not use this program in any manner prohibited above.
 ---------------------------------------------------------------
  

 Cite this work as:
 Gaussian 16, Revision A.03,
 M. J. Frisch, G. W. Trucks, H. B. Schlegel, G. E. Scuseria, 
 M. A. Robb, J. R. Cheeseman, G. Scalmani, V. Barone, 
 G. A. Petersson, H. Nakatsuji, X. Li, M. Caricato, A. V. Marenich, 
 J. Bloino, B. G. Janesko, R. Gomperts, B. Mennucci, H. P. Hratchian, 
 J. V. Ortiz, A. F. Izmaylov, J. L. Sonnenberg, D. Williams-Young, 
 F. Ding, F. Lipparini, F. Egidi, J. Goings, B. Peng, A. Petrone, 
 T. Henderson, D. Ranasinghe, V. G. Zakrzewski, J. Gao, N. Rega, 
 G. Zheng, W. Liang, M. Hada, M. Ehara, K. Toyota, R. Fukuda, 
 J. Hasegawa, M. Ishida, T. Nakajima, Y. Honda, O. Kitao, H. Nakai, 
 T. Vreven, K. Throssell, J. A. Montgomery, Jr., J. E. Peralta, 
 F. Ogliaro, M. J. Bearpark, J. J. Heyd, E. N. Brothers, K. N. Kudin, 
 V. N. Staroverov, T. A. Keith, R. Kobayashi, J. Normand, 
 K. Raghavachari, A. P. Rendell, J. C. Burant, S. S. Iyengar, 
 J. Tomasi, M. Cossi, J. M. Millam, M. Klene, C. Adamo, R. Cammi, 
 J. W. Ochterski, R. L. Martin, K. Morokuma, O. Farkas, 
 J. B. Foresman, and D. J. Fox, Gaussian, Inc., Wallingford CT, 2016.
 
 ******************************************
 Gaussian 16:  ES64L-G16RevA.03 25-Dec-2016
                21-Oct-2020 
 ******************************************
 %NoSave
 %nproc=12
 Will use up to   12 processors via shared memory.
 %mem=20GB
 %chk=MN_53_hfch3ts_BH76_PM3_SE
 ----------------------------------------------------------------------
 #P Opt(TS,MaxCyc=50,NoEigenTest,MaxStep=10,AddRedundant) PM3 5D 7F Int
 egral=UltraFineGrid SCF=(NoSymm,XQC,MaxCyc=120) IOp(1/33=1)
 ----------------------------------------------------------------------
 1/5=1,6=50,8=10,11=1,18=120,26=1,33=1,38=1/1,3;
 2/9=110,12=2,17=6,18=5,40=1/2;
 3/5=2,8=11,25=1,41=800000,71=1,75=-5/1,2,3;
 4/9=2,35=1/1;
 5/5=2,7=120,8=3,13=1,35=1,38=5/2,8;
 6/7=2,8=2,9=2,10=2,28=1/1;
 7//1,2,3,16;
 1/5=1,6=50,8=10,11=1,18=20,26=1,33=1/3(2);
 2/9=110/2;
 99//99;
 2/9=110/2;
 3/5=2,8=11,25=1,41=800000,71=1,75=-5,135=20/1,2,3;
 4/5=5,9=2,16=3,35=1/1;
 5/5=2,7=120,8=3,13=1,35=1,38=5/2,8;
 7//1,2,3,16;
 1/5=1,6=50,8=10,11=1,18=20,26=1,33=1/3(-5);
 2/9=110/2;
 6/7=2,8=2,9=2,10=2,19=2,28=1/1;
 99/9=1/99;
 Leave Link    1 at Wed Oct 21 14:21:55 2020, MaxMem=  2684354560 cpu:              15.4 elap:               1.5
 (Enter /udrive/faculty/rpeverati/g16/g16/l101.exe)
 ONIOM data not found on unit 2.
 ------------------
 TS search on BH76.
 ------------------
 TstMul:  ICh=     0
 TstMul:  Mul=     2
 TstMul:  ICh=     0
 TstMul:  Mul=     2
 Symbolic Z-matrix:
 Charge =  0 Multiplicity = 2
 H                     0.00045   2.00097   0. 
 F                    -0.00004   0.76248   0. 
 C                    -0.00004  -0.90617   0. 
 H                     1.05376  -1.14157   0. 
 H                    -0.52685  -1.14236   0.91235 
 H                    -0.52685  -1.14236  -0.91235 
 
 RdStrC is calling ZToCFu for IStruc=1 NZ=     6.
 PrtBox:  NBox=     1 Levels=  1 BoxLen=    8.00 SMaxX=        5.94
          Shift=            0.995593            2.158740            1.724100
 Box      1 Number                   0 centers from      1 to      6:
 After GenITR:
 ITRead=  0  0  0  0  0  0
 MicOpt= -1 -1 -1 -1 -1 -1
 Add virtual bond connecting atoms F2         and H1         Dist= 2.34D+00.
 Add virtual bond connecting atoms C3         and F2         Dist= 3.15D+00.
 The following ModRedundant input section has been read:
 
 ITRead=  0  0  0  0  0  0
 MicOpt= -1 -1 -1 -1 -1 -1
 NAtoms=      6 NQM=        6 NQMF=       0 NMMI=      0 NMMIF=      0
                NMic=       0 NMicF=      0.
                    Isotopes and Nuclear Properties:
 (Nuclear quadrupole moments (NQMom) in fm**2, nuclear magnetic moments (NMagM)
  in nuclear magnetons)

  Atom         1           2           3           4           5           6
 IAtWgt=           1          19          12           1           1           1
 AtmWgt=   1.0078250  18.9984033  12.0000000   1.0078250   1.0078250   1.0078250
 NucSpn=           1           1           0           1           1           1
 AtZEff=   0.0000000   0.0000000   0.0000000   0.0000000   0.0000000   0.0000000
 NQMom=    0.0000000   0.0000000   0.0000000   0.0000000   0.0000000   0.0000000
 NMagM=    2.7928460   2.6288670   0.0000000   2.7928460   2.7928460   2.7928460
 AtZNuc=   1.0000000   9.0000000   6.0000000   1.0000000   1.0000000   1.0000000
 No MM parameters found.
 Leave Link  101 at Wed Oct 21 14:21:56 2020, MaxMem=  2684354560 cpu:               4.3 elap:               0.9
 (Enter /udrive/faculty/rpeverati/g16/g16/l103.exe)

 GradGradGradGradGradGradGradGradGradGradGradGradGradGradGradGradGradGrad
 Berny optimization.
 Optmz: redundant internal coordinate code flag= 1
 Initialization pass.
                           ----------------------------
                           !    Initial Parameters    !
                           ! (Angstroms and Degrees)  !
 --------------------------                            --------------------------
 ! Name  Definition              Value          Derivative Info.                !
 --------------------------------------------------------------------------------
 ! R1    R(1,2)                  1.2385         estimate D2E/DX2                !
 ! R2    R(2,3)                  1.6686         estimate D2E/DX2                !
 ! R3    R(3,4)                  1.0798         estimate D2E/DX2                !
 ! R4    R(3,5)                  1.0797         estimate D2E/DX2                !
 ! R5    R(3,6)                  1.0797         estimate D2E/DX2                !
 ! A1    A(2,3,4)              102.5924         estimate D2E/DX2                !
 ! A2    A(2,3,5)              102.6361         estimate D2E/DX2                !
 ! A3    A(2,3,6)              102.6361         estimate D2E/DX2                !
 ! A4    A(4,3,5)              115.3726         estimate D2E/DX2                !
 ! A5    A(4,3,6)              115.3726         estimate D2E/DX2                !
 ! A6    A(5,3,6)              115.3492         estimate D2E/DX2                !
 ! A7    L(1,2,3,4,-1)         179.9776         estimate D2E/DX2                !
 ! A8    L(1,2,3,4,-2)         180.0            estimate D2E/DX2                !
 ! D1    D(4,3,6,5)            138.543          estimate D2E/DX2                !
 --------------------------------------------------------------------------------
 Maximum allowed force set to 1.00D+20.
 Trust Radius=1.00D-01 FncErr=1.00D-07 GrdErr=1.00D-07 EigMax=2.50D+02 EigMin=1.00D-04
 Number of steps in this run=     50 maximum allowed number of steps=    100.
 Search for a saddle point of order  1.
 GradGradGradGradGradGradGradGradGradGradGradGradGradGradGradGradGradGrad

 Leave Link  103 at Wed Oct 21 14:21:58 2020, MaxMem=  2684354560 cpu:               2.3 elap:               1.3
 (Enter /udrive/faculty/rpeverati/g16/g16/l202.exe)
                          Input orientation:                          
 ---------------------------------------------------------------------
 Center     Atomic      Atomic             Coordinates (Angstroms)
 Number     Number       Type             X           Y           Z
 ---------------------------------------------------------------------
      1          1           0        0.000450    2.000967    0.000000
      2          9           0       -0.000035    0.762481    0.000000
      3          6           0       -0.000035   -0.906168    0.000000
      4          1           0        1.053761   -1.141573    0.000000
      5          1           0       -0.526845   -1.142356    0.912354
      6          1           0       -0.526845   -1.142356   -0.912354
 ---------------------------------------------------------------------
                    Distance matrix (angstroms):
                    1          2          3          4          5
     1  H    0.000000
     2  F    1.238486   0.000000
     3  C    2.907136   1.668649   0.000000
     4  H    3.314366   2.176214   1.079769   0.000000
     5  H    3.315254   2.176769   1.079678   1.825023   0.000000
     6  H    3.315254   2.176769   1.079678   1.825023   1.824709
                    6
     6  H    0.000000
 Stoichiometry    CH4F(2)
 Framework group  CS[SG(CH2F),X(H2)]
 Deg. of freedom     8
 Full point group                 CS      NOp   2
 Largest Abelian subgroup         CS      NOp   2
 Largest concise Abelian subgroup CS      NOp   2
                         Standard orientation:                         
 ---------------------------------------------------------------------
 Center     Atomic      Atomic             Coordinates (Angstroms)
 Number     Number       Type             X           Y           Z
 ---------------------------------------------------------------------
      1          1           0        0.000450    2.000967    0.000000
      2          9           0       -0.000035    0.762481    0.000000
      3          6           0       -0.000035   -0.906168    0.000000
      4          1           0        1.053761   -1.141573    0.000000
      5          1           0       -0.526845   -1.142356    0.912354
      6          1           0       -0.526845   -1.142356   -0.912354
 ---------------------------------------------------------------------
 Rotational constants (GHZ):         150.5723997          16.6130512          16.6126312
 Leave Link  202 at Wed Oct 21 14:22:00 2020, MaxMem=  2684354560 cpu:               3.6 elap:               1.7
 (Enter /udrive/faculty/rpeverati/g16/g16/l301.exe)
 Standard basis: VSTO-6G (5D, 7F)
 Ernie: Thresh=  0.10000D-02 Tol=  0.10000D-05 Strict=F.
  NNHCO=     0 NNPyr=     0 NCTC=     0               EPep=         0.000000000
    EC=        19.583283507  ECS=         0.505745575   EG=         0.145045453
   EHC=         0.000000000  EAt=       -22.087827183  AtH=         0.634552969
 EPDDG=         0.000000000  ECC=        20.234074535 EAtT=        22.722380152
 There are     9 symmetry adapted cartesian basis functions of A'  symmetry.
 There are     3 symmetry adapted cartesian basis functions of A"  symmetry.
 There are     9 symmetry adapted basis functions of A'  symmetry.
 There are     3 symmetry adapted basis functions of A"  symmetry.
    12 basis functions,    72 primitive gaussians,    12 cartesian basis functions
     8 alpha electrons        7 beta electrons
       nuclear repulsion energy        42.9564546865 Hartrees.
 IExCor=    0 DFT=F Ex=HF Corr=None ExCW=0 ScaHFX=  1.000000
 ScaDFX=  1.000000  1.000000  1.000000  1.000000 ScalE2=  1.000000  1.000000
 IRadAn=      5 IRanWt=     -1 IRanGd=            0 ICorTp=0 IEmpDi=  4
 Integral buffers will be    131072 words long.
 Regular integral format.
 Two-electron integral symmetry is turned off.
 Leave Link  301 at Wed Oct 21 14:22:02 2020, MaxMem=  2684354560 cpu:               4.0 elap:               1.4
 (Enter /udrive/faculty/rpeverati/g16/g16/l302.exe)
 Do NDO integrals.
 NPDir=0 NMtPBC=     1 NCelOv=     1 NCel=       1 NClECP=     1 NCelD=      1
         NCelK=      1 NCelE2=     1 NClLst=     1 CellRange=     0.0.
 One-electron integrals computed using PRISM.
 NBasis=    12 RedAO= T EigKep=  1.00D+00  NBF=     9     3
 NBsUse=    12 1.00D-06 EigRej= -1.00D+00 NBFU=     9     3
 Leave Link  302 at Wed Oct 21 14:22:04 2020, MaxMem=  2684354560 cpu:               4.4 elap:               1.3
 (Enter /udrive/faculty/rpeverati/g16/g16/l303.exe)
 DipDrv:  MaxL=1.
 Leave Link  303 at Wed Oct 21 14:22:06 2020, MaxMem=  2684354560 cpu:               6.0 elap:               1.6
 (Enter /udrive/faculty/rpeverati/g16/g16/l401.exe)
 SCF N**3 symmetry information disabled.
 Simple Huckel Guess.
 JPrj=0 DoOrth=F DoCkMO=F.
 Initial guess orbital symmetries:
 Alpha Orbitals:
       Occupied  (A') (A') (A') (A') (A") (A") (A') (A')
       Virtual   (A') (A") (A') (A')
 Beta  Orbitals:
       Occupied  (A') (A') (A') (A') (A") (A") (A')
       Virtual   (A') (A') (A") (A') (A')
 The electronic state of the initial guess is 2-A'.
 Initial guess <Sx>= 0.0000 <Sy>= 0.0000 <Sz>= 0.5000 <S**2>= 0.7500 S= 0.5000
 Leave Link  401 at Wed Oct 21 14:22:08 2020, MaxMem=  2684354560 cpu:               5.6 elap:               1.4
 (Enter /udrive/faculty/rpeverati/g16/g16/l502.exe)
 Keep J ints in memory in canonical form, NReq=859461.
 FoFCou: FMM=F IPFlag=           0 FMFlag=           0 FMFlg1=           0
         NFxFlg=           0 DoJE=F BraDBF=F KetDBF=F FulRan=T
         wScrn=  0.000000 ICntrl=       600 IOpCl=  2 I1Cent=           0 NGrid=           0
         NMat0=    1 NMatS0=     24 NMatT0=    0 NMatD0=    1 NMtDS0=    0 NMtDT0=    0
 Symmetry not used in FoFCou.
 Two-electron integral symmetry not used.
 UHF open shell SCF:
 Using DIIS extrapolation, IDIIS=  1040.
 Overlap will be assumed to be unity.
 NGot=  2684354560 LenX=  2684293796 LenY=  2684292914
 Requested convergence on RMS density matrix=1.00D-08 within 120 cycles.
 Requested convergence on MAX density matrix=1.00D-06.
 Requested convergence on             energy=1.00D-06.
 No special actions if energy rises.

 Cycle   1  Pass 1  IDiag  1:
 E= 0.160923900077627    
 DIIS: error= 2.90D-02 at cycle   1 NSaved=   1.
 NSaved= 1 IEnMin= 1 EnMin= 0.160923900077627     IErMin= 1 ErrMin= 2.90D-02
 ErrMax= 2.90D-02  0.00D+00 EMaxC= 1.00D-01 BMatC= 6.15D-02 BMatP= 6.15D-02
 IDIUse=3 WtCom= 7.10D-01 WtEn= 2.90D-01
 Coeff-Com:  0.100D+01
 Coeff-En:   0.100D+01
 Coeff:      0.100D+01
 GapD=    2.000 DampG=2.000 DampE=0.500 DampFc=1.0000 IDamp=-1.
 RMSDP=2.34D-02 MaxDP=1.55D-01              OVMax= 0.00D+00

 Cycle   2  Pass 1  IDiag  1:
 E= 0.101167591569180     Delta-E=       -0.059756308508 Rises=F Damp=F
 DIIS: error= 1.72D-02 at cycle   2 NSaved=   2.
 NSaved= 2 IEnMin= 2 EnMin= 0.101167591569180     IErMin= 2 ErrMin= 1.72D-02
 ErrMax= 1.72D-02  0.00D+00 EMaxC= 1.00D-01 BMatC= 1.21D-02 BMatP= 6.15D-02
 IDIUse=3 WtCom= 8.28D-01 WtEn= 1.72D-01
 Coeff-Com: -0.306D+00 0.131D+01
 Coeff-En:   0.000D+00 0.100D+01
 Coeff:     -0.253D+00 0.125D+01
 RMSDP=2.06D-02 MaxDP=1.55D-01 DE=-5.98D-02 OVMax= 0.00D+00

 Cycle   3  Pass 1  IDiag  3:
 E= 0.712410266051080E-01 Delta-E=       -0.029926564964 Rises=F Damp=F
 DIIS: error= 1.25D-02 at cycle   3 NSaved=   3.
 NSaved= 3 IEnMin= 3 EnMin= 0.712410266051080E-01 IErMin= 3 ErrMin= 1.25D-02
 ErrMax= 1.25D-02  0.00D+00 EMaxC= 1.00D-01 BMatC= 5.27D-03 BMatP= 1.21D-02
 IDIUse=3 WtCom= 8.75D-01 WtEn= 1.25D-01
 Coeff-Com:  0.414D+00-0.162D+01 0.220D+01
 Coeff-En:   0.000D+00 0.000D+00 0.100D+01
 Coeff:      0.362D+00-0.142D+01 0.205D+01
 Gap=     0.329 Goal=   None    Shift=    0.000
 Gap=     0.511 Goal=   None    Shift=    0.000
 RMSDP=2.30D-02 MaxDP=1.33D-01 DE=-2.99D-02 OVMax= 2.69D-01

 Cycle   4  Pass 1  IDiag  3:
 E= 0.501954248282672E-01 Delta-E=       -0.021045601777 Rises=F Damp=F
 DIIS: error= 8.10D-03 at cycle   4 NSaved=   4.
 NSaved= 4 IEnMin= 4 EnMin= 0.501954248282672E-01 IErMin= 4 ErrMin= 8.10D-03
 ErrMax= 8.10D-03  0.00D+00 EMaxC= 1.00D-01 BMatC= 2.05D-03 BMatP= 5.27D-03
 IDIUse=3 WtCom= 9.19D-01 WtEn= 8.10D-02
 Coeff-Com: -0.440D+00 0.196D+01-0.260D+01 0.208D+01
 Coeff-En:   0.000D+00 0.000D+00 0.000D+00 0.100D+01
 Coeff:     -0.404D+00 0.181D+01-0.239D+01 0.199D+01
 Gap=     0.322 Goal=   None    Shift=    0.000
 Gap=     0.524 Goal=   None    Shift=    0.000
 RMSDP=1.17D-02 MaxDP=6.84D-02 DE=-2.10D-02 OVMax= 1.26D-01

 Cycle   5  Pass 1  IDiag  3:
 E= 0.435761951793268E-01 Delta-E=       -0.006619229649 Rises=F Damp=F
 DIIS: error= 7.72D-03 at cycle   5 NSaved=   5.
 NSaved= 5 IEnMin= 5 EnMin= 0.435761951793268E-01 IErMin= 5 ErrMin= 7.72D-03
 ErrMax= 7.72D-03  0.00D+00 EMaxC= 1.00D-01 BMatC= 1.04D-03 BMatP= 2.05D-03
 IDIUse=3 WtCom= 9.23D-01 WtEn= 7.72D-02
 Coeff-Com:  0.339D+00-0.147D+01 0.176D+01-0.213D+01 0.250D+01
 Coeff-En:   0.000D+00 0.000D+00 0.000D+00 0.000D+00 0.100D+01
 Coeff:      0.313D+00-0.136D+01 0.163D+01-0.196D+01 0.238D+01
 Gap=     0.412 Goal=   None    Shift=    0.000
 Gap=     0.534 Goal=   None    Shift=    0.000
 RMSDP=1.30D-02 MaxDP=1.01D-01 DE=-6.62D-03 OVMax= 1.39D-01

 Cycle   6  Pass 1  IDiag  3:
 E= 0.391431050190505E-01 Delta-E=       -0.004433090160 Rises=F Damp=F
 DIIS: error= 3.52D-03 at cycle   6 NSaved=   6.
 NSaved= 6 IEnMin= 6 EnMin= 0.391431050190505E-01 IErMin= 6 ErrMin= 3.52D-03
 ErrMax= 3.52D-03  0.00D+00 EMaxC= 1.00D-01 BMatC= 2.80D-04 BMatP= 1.04D-03
 IDIUse=3 WtCom= 9.65D-01 WtEn= 3.52D-02
 Coeff-Com: -0.952D-01 0.437D+00-0.349D+00 0.730D+00-0.188D+01 0.216D+01
 Coeff-En:   0.000D+00 0.000D+00 0.000D+00 0.000D+00 0.000D+00 0.100D+01
 Coeff:     -0.919D-01 0.422D+00-0.337D+00 0.704D+00-0.182D+01 0.212D+01
 Gap=     0.349 Goal=   None    Shift=    0.000
 Gap=     0.547 Goal=   None    Shift=    0.000
 RMSDP=6.31D-03 MaxDP=4.67D-02 DE=-4.43D-03 OVMax= 6.09D-02

 Cycle   7  Pass 1  IDiag  3:
 E= 0.382655834787755E-01 Delta-E=       -0.000877521540 Rises=F Damp=F
 DIIS: error= 1.51D-03 at cycle   7 NSaved=   7.
 NSaved= 7 IEnMin= 7 EnMin= 0.382655834787755E-01 IErMin= 7 ErrMin= 1.51D-03
 ErrMax= 1.51D-03  0.00D+00 EMaxC= 1.00D-01 BMatC= 5.44D-05 BMatP= 2.80D-04
 IDIUse=3 WtCom= 9.85D-01 WtEn= 1.51D-02
 Coeff-Com: -0.119D+00 0.523D+00-0.602D+00 0.772D+00-0.101D+01 0.382D+00
 Coeff-Com:  0.106D+01
 Coeff-En:   0.000D+00 0.000D+00 0.000D+00 0.000D+00 0.000D+00 0.000D+00
 Coeff-En:   0.100D+01
 Coeff:     -0.117D+00 0.515D+00-0.592D+00 0.760D+00-0.999D+00 0.377D+00
 Coeff:      0.106D+01
 Gap=     0.360 Goal=   None    Shift=    0.000
 Gap=     0.548 Goal=   None    Shift=    0.000
 RMSDP=1.37D-03 MaxDP=1.11D-02 DE=-8.78D-04 OVMax= 1.20D-02

 Cycle   8  Pass 1  IDiag  3:
 E= 0.381875959342324E-01 Delta-E=       -0.000077987545 Rises=F Damp=F
 DIIS: error= 6.63D-04 at cycle   8 NSaved=   8.
 NSaved= 8 IEnMin= 8 EnMin= 0.381875959342324E-01 IErMin= 8 ErrMin= 6.63D-04
 ErrMax= 6.63D-04  0.00D+00 EMaxC= 1.00D-01 BMatC= 1.62D-05 BMatP= 5.44D-05
 IDIUse=3 WtCom= 9.93D-01 WtEn= 6.63D-03
 Coeff-Com: -0.489D-01 0.220D+00-0.244D+00 0.280D+00-0.414D+00 0.430D+00
 Coeff-Com: -0.996D+00 0.177D+01
 Coeff-En:   0.000D+00 0.000D+00 0.000D+00 0.000D+00 0.000D+00 0.000D+00
 Coeff-En:   0.000D+00 0.100D+01
 Coeff:     -0.486D-01 0.218D+00-0.243D+00 0.278D+00-0.411D+00 0.427D+00
 Coeff:     -0.990D+00 0.177D+01
 Gap=     0.374 Goal=   None    Shift=    0.000
 Gap=     0.549 Goal=   None    Shift=    0.000
 RMSDP=5.90D-04 MaxDP=4.37D-03 DE=-7.80D-05 OVMax= 3.76D-03

 Cycle   9  Pass 1  IDiag  3:
 E= 0.381673963410520E-01 Delta-E=       -0.000020199593 Rises=F Damp=F
 DIIS: error= 3.36D-04 at cycle   9 NSaved=   9.
 NSaved= 9 IEnMin= 9 EnMin= 0.381673963410520E-01 IErMin= 9 ErrMin= 3.36D-04
 ErrMax= 3.36D-04  0.00D+00 EMaxC= 1.00D-01 BMatC= 3.58D-06 BMatP= 1.62D-05
 IDIUse=3 WtCom= 9.97D-01 WtEn= 3.36D-03
 Coeff-Com: -0.874D-02 0.349D-01-0.420D-01 0.102D+00-0.124D+00-0.127D+00
 Coeff-Com:  0.129D+01-0.278D+01 0.266D+01
 Coeff-En:   0.000D+00 0.000D+00 0.000D+00 0.000D+00 0.000D+00 0.000D+00
 Coeff-En:   0.000D+00 0.000D+00 0.100D+01
 Coeff:     -0.871D-02 0.347D-01-0.418D-01 0.102D+00-0.124D+00-0.127D+00
 Coeff:      0.128D+01-0.278D+01 0.266D+01
 Gap=     0.382 Goal=   None    Shift=    0.000
 Gap=     0.549 Goal=   None    Shift=    0.000
 RMSDP=3.00D-04 MaxDP=1.86D-03 DE=-2.02D-05 OVMax= 1.68D-03

 Cycle  10  Pass 1  IDiag  3:
 E= 0.381615720892654E-01 Delta-E=       -0.000005824252 Rises=F Damp=F
 DIIS: error= 1.31D-04 at cycle  10 NSaved=  10.
 NSaved=10 IEnMin=10 EnMin= 0.381615720892654E-01 IErMin=10 ErrMin= 1.31D-04
 ErrMax= 1.31D-04  0.00D+00 EMaxC= 1.00D-01 BMatC= 3.36D-07 BMatP= 3.58D-06
 IDIUse=3 WtCom= 9.99D-01 WtEn= 1.31D-03
 Coeff-Com: -0.999D-03 0.688D-02-0.143D-02-0.938D-02-0.233D-01 0.180D+00
 Coeff-Com: -0.963D+00 0.211D+01-0.236D+01 0.206D+01
 Coeff-En:   0.000D+00 0.000D+00 0.000D+00 0.000D+00 0.000D+00 0.000D+00
 Coeff-En:   0.000D+00 0.000D+00 0.000D+00 0.100D+01
 Coeff:     -0.997D-03 0.687D-02-0.143D-02-0.936D-02-0.233D-01 0.180D+00
 Coeff:     -0.962D+00 0.211D+01-0.236D+01 0.206D+01
 Gap=     0.384 Goal=   None    Shift=    0.000
 Gap=     0.548 Goal=   None    Shift=    0.000
 RMSDP=1.93D-04 MaxDP=1.61D-03 DE=-5.82D-06 OVMax= 1.90D-03

 Cycle  11  Pass 1  IDiag  3:
 E= 0.381607992196678E-01 Delta-E=       -0.000000772870 Rises=F Damp=F
 DIIS: error= 2.04D-05 at cycle  11 NSaved=  11.
 NSaved=11 IEnMin=11 EnMin= 0.381607992196678E-01 IErMin=11 ErrMin= 2.04D-05
 ErrMax= 2.04D-05  0.00D+00 EMaxC= 1.00D-01 BMatC= 1.28D-08 BMatP= 3.36D-07
 IDIUse=1 WtCom= 1.00D+00 WtEn= 0.00D+00
 Coeff-Com: -0.142D-02 0.580D-02-0.969D-02 0.824D-02 0.327D-02-0.366D-01
 Coeff-Com:  0.188D+00-0.383D+00 0.353D+00-0.284D+00 0.116D+01
 Coeff:     -0.142D-02 0.580D-02-0.969D-02 0.824D-02 0.327D-02-0.366D-01
 Coeff:      0.188D+00-0.383D+00 0.353D+00-0.284D+00 0.116D+01
 Gap=     0.384 Goal=   None    Shift=    0.000
 Gap=     0.548 Goal=   None    Shift=    0.000
 RMSDP=1.55D-05 MaxDP=6.98D-05 DE=-7.73D-07 OVMax= 8.88D-05

 Cycle  12  Pass 1  IDiag  3:
 E= 0.381607845421144E-01 Delta-E=       -0.000000014678 Rises=F Damp=F
 DIIS: error= 2.79D-06 at cycle  12 NSaved=  12.
 NSaved=12 IEnMin=12 EnMin= 0.381607845421144E-01 IErMin=12 ErrMin= 2.79D-06
 ErrMax= 2.79D-06  0.00D+00 EMaxC= 1.00D-01 BMatC= 7.17D-10 BMatP= 1.28D-08
 IDIUse=1 WtCom= 1.00D+00 WtEn= 0.00D+00
 Coeff-Com:  0.659D-03-0.288D-02 0.406D-02-0.439D-02 0.288D-02 0.640D-02
 Coeff-Com: -0.480D-01 0.920D-01-0.742D-01 0.583D-01-0.454D+00 0.142D+01
 Coeff:      0.659D-03-0.288D-02 0.406D-02-0.439D-02 0.288D-02 0.640D-02
 Coeff:     -0.480D-01 0.920D-01-0.742D-01 0.583D-01-0.454D+00 0.142D+01
 Gap=     0.384 Goal=   None    Shift=    0.000
 Gap=     0.548 Goal=   None    Shift=    0.000
 RMSDP=4.43D-06 MaxDP=1.93D-05 DE=-1.47D-08 OVMax= 2.85D-05

 Cycle  13  Pass 1  IDiag  3:
 E= 0.381607834332129E-01 Delta-E=       -0.000000001109 Rises=F Damp=F
 DIIS: error= 1.51D-06 at cycle  13 NSaved=  13.
 NSaved=13 IEnMin=13 EnMin= 0.381607834332129E-01 IErMin=13 ErrMin= 1.51D-06
 ErrMax= 1.51D-06  0.00D+00 EMaxC= 1.00D-01 BMatC= 1.04D-10 BMatP= 7.17D-10
 IDIUse=1 WtCom= 1.00D+00 WtEn= 0.00D+00
 Coeff-Com: -0.235D-04 0.609D-04-0.583D-03 0.551D-03 0.142D-02-0.741D-02
 Coeff-Com:  0.356D-01-0.688D-01 0.608D-01-0.535D-01 0.255D+00-0.936D+00
 Coeff-Com:  0.171D+01
 Coeff:     -0.235D-04 0.609D-04-0.583D-03 0.551D-03 0.142D-02-0.741D-02
 Coeff:      0.356D-01-0.688D-01 0.608D-01-0.535D-01 0.255D+00-0.936D+00
 Coeff:      0.171D+01
 Gap=     0.384 Goal=   None    Shift=    0.000
 Gap=     0.548 Goal=   None    Shift=    0.000
 RMSDP=1.84D-06 MaxDP=8.36D-06 DE=-1.11D-09 OVMax= 1.51D-05

 Cycle  14  Pass 1  IDiag  3:
 E= 0.381607832903939E-01 Delta-E=       -0.000000000143 Rises=F Damp=F
 DIIS: error= 1.15D-06 at cycle  14 NSaved=  14.
 NSaved=14 IEnMin=14 EnMin= 0.381607832903939E-01 IErMin=14 ErrMin= 1.15D-06
 ErrMax= 1.15D-06  0.00D+00 EMaxC= 1.00D-01 BMatC= 3.31D-11 BMatP= 1.04D-10
 IDIUse=1 WtCom= 1.00D+00 WtEn= 0.00D+00
 Coeff-Com:  0.415D-04-0.213D-03 0.235D-03-0.339D-03 0.576D-03-0.485D-03
 Coeff-Com:  0.150D-02-0.535D-02 0.932D-02-0.256D-02-0.350D-01 0.240D+00
 Coeff-Com: -0.878D+00 0.167D+01
 Coeff:      0.415D-04-0.213D-03 0.235D-03-0.339D-03 0.576D-03-0.485D-03
 Coeff:      0.150D-02-0.535D-02 0.932D-02-0.256D-02-0.350D-01 0.240D+00
 Coeff:     -0.878D+00 0.167D+01
 Gap=     0.384 Goal=   None    Shift=    0.000
 Gap=     0.548 Goal=   None    Shift=    0.000
 RMSDP=1.04D-06 MaxDP=7.50D-06 DE=-1.43D-10 OVMax= 7.21D-06

 Cycle  15  Pass 1  IDiag  3:
 E= 0.381607832347157E-01 Delta-E=       -0.000000000056 Rises=F Damp=F
 DIIS: error= 3.04D-07 at cycle  15 NSaved=  15.
 NSaved=15 IEnMin=15 EnMin= 0.381607832347157E-01 IErMin=15 ErrMin= 3.04D-07
 ErrMax= 3.04D-07  0.00D+00 EMaxC= 1.00D-01 BMatC= 2.57D-12 BMatP= 3.31D-11
 IDIUse=1 WtCom= 1.00D+00 WtEn= 0.00D+00
 Coeff-Com:  0.139D-04-0.552D-04 0.359D-04-0.306D-04 0.141D-03-0.516D-03
 Coeff-Com:  0.194D-02-0.289D-02 0.129D-02-0.306D-02 0.295D-01-0.138D+00
 Coeff-Com:  0.389D+00-0.745D+00 0.147D+01
 Coeff:      0.139D-04-0.552D-04 0.359D-04-0.306D-04 0.141D-03-0.516D-03
 Coeff:      0.194D-02-0.289D-02 0.129D-02-0.306D-02 0.295D-01-0.138D+00
 Coeff:      0.389D+00-0.745D+00 0.147D+01
 Gap=     0.384 Goal=   None    Shift=    0.000
 Gap=     0.548 Goal=   None    Shift=    0.000
 RMSDP=2.59D-07 MaxDP=2.01D-06 DE=-5.57D-11 OVMax= 2.04D-06

 Cycle  16  Pass 1  IDiag  3:
 E= 0.381607832310138E-01 Delta-E=       -0.000000000004 Rises=F Damp=F
 DIIS: error= 9.72D-08 at cycle  16 NSaved=  16.
 NSaved=16 IEnMin=16 EnMin= 0.381607832310138E-01 IErMin=16 ErrMin= 9.72D-08
 ErrMax= 9.72D-08  0.00D+00 EMaxC= 1.00D-01 BMatC= 3.14D-13 BMatP= 2.57D-12
 IDIUse=1 WtCom= 1.00D+00 WtEn= 0.00D+00
 Coeff-Com:  0.402D-05-0.225D-04 0.249D-04-0.382D-04 0.579D-04 0.178D-04
 Coeff-Com: -0.227D-04-0.478D-03 0.119D-02 0.238D-04-0.828D-02 0.491D-01
 Coeff-Com: -0.171D+00 0.397D+00-0.107D+01 0.180D+01
 Coeff:      0.402D-05-0.225D-04 0.249D-04-0.382D-04 0.579D-04 0.178D-04
 Coeff:     -0.227D-04-0.478D-03 0.119D-02 0.238D-04-0.828D-02 0.491D-01
 Coeff:     -0.171D+00 0.397D+00-0.107D+01 0.180D+01
 Gap=     0.384 Goal=   None    Shift=    0.000
 Gap=     0.548 Goal=   None    Shift=    0.000
 RMSDP=7.34D-08 MaxDP=5.14D-07 DE=-3.70D-12 OVMax= 4.72D-07

 Cycle  17  Pass 1  IDiag  3:
 E= 0.381607832305804E-01 Delta-E=       -0.000000000000 Rises=F Damp=F
 DIIS: error= 3.76D-08 at cycle  17 NSaved=  17.
 NSaved=17 IEnMin=17 EnMin= 0.381607832305804E-01 IErMin=17 ErrMin= 3.76D-08
 ErrMax= 3.76D-08  0.00D+00 EMaxC= 1.00D-01 BMatC= 4.11D-14 BMatP= 3.14D-13
 IDIUse=1 WtCom= 1.00D+00 WtEn= 0.00D+00
 Large coefficients: NSaved= 17 BigCof=    0.00 CofMax=   10.00 Det=-1.80D-15
 Inversion failed.  Reducing to 16 matrices.
 Large coefficients: NSaved= 16 BigCof=    0.00 CofMax=   10.00 Det=-1.97D-15
 Inversion failed.  Reducing to 15 matrices.
 Coeff-Com: -0.375D-05 0.324D-05 0.140D-04-0.795D-04 0.319D-03-0.532D-03
 Coeff-Com:  0.423D-03-0.499D-03 0.267D-02-0.112D-01 0.277D-01-0.640D-01
 Coeff-Com:  0.240D+00-0.755D+00 0.156D+01
 Coeff:     -0.375D-05 0.324D-05 0.140D-04-0.795D-04 0.319D-03-0.532D-03
 Coeff:      0.423D-03-0.499D-03 0.267D-02-0.112D-01 0.277D-01-0.640D-01
 Coeff:      0.240D+00-0.755D+00 0.156D+01
 Gap=     0.384 Goal=   None    Shift=    0.000
 Gap=     0.548 Goal=   None    Shift=    0.000
 RMSDP=3.97D-08 MaxDP=3.02D-07 DE=-4.33D-13 OVMax= 3.33D-07

 Cycle  18  Pass 1  IDiag  3:
 E= 0.381607832305022E-01 Delta-E=       -0.000000000000 Rises=F Damp=F
 DIIS: error= 9.01D-09 at cycle  18 NSaved=  16.
 NSaved=16 IEnMin=16 EnMin= 0.381607832305022E-01 IErMin=16 ErrMin= 9.01D-09
 ErrMax= 9.01D-09  0.00D+00 EMaxC= 1.00D-01 BMatC= 2.56D-15 BMatP= 4.11D-14
 IDIUse=1 WtCom= 1.00D+00 WtEn= 0.00D+00
 Large coefficients: NSaved= 16 BigCof=    0.00 CofMax=   10.00 Det=-3.61D-16
 Inversion failed.  Reducing to 15 matrices.
 Coeff-Com:  0.333D-06-0.223D-05 0.134D-04-0.262D-04 0.792D-05 0.165D-05
 Coeff-Com:  0.389D-04 0.505D-04 0.635D-03-0.377D-02 0.190D-01-0.105D+00
 Coeff-Com:  0.349D+00-0.954D+00 0.169D+01
 Coeff:      0.333D-06-0.223D-05 0.134D-04-0.262D-04 0.792D-05 0.165D-05
 Coeff:      0.389D-04 0.505D-04 0.635D-03-0.377D-02 0.190D-01-0.105D+00
 Coeff:      0.349D+00-0.954D+00 0.169D+01
 Gap=     0.384 Goal=   None    Shift=    0.000
 Gap=     0.548 Goal=   None    Shift=    0.000
 RMSDP=9.79D-09 MaxDP=7.57D-08 DE=-7.82D-14 OVMax= 6.95D-08

 Cycle  19  Pass 2  IDiag  1:
 SCF Done:  E(UPM3) =  0.381607832305E-01 A.U. after   19 cycles
            NFock= 18  Conv=0.98D-08     -V/T= 1.0010
 <Sx>= 0.0000 <Sy>= 0.0000 <Sz>= 0.5000 <S**2>= 0.7893 S= 0.5194
 <L.S>= 0.000000000000E+00
 KE=-3.751029381523D+01 PE=-3.871629085896D+01 EE= 3.330829077094D+01
 Annihilation of the first spin contaminant:
 S**2 before annihilation     0.7893,   after     0.7504
 Leave Link  502 at Wed Oct 21 14:22:12 2020, MaxMem=  2684354560 cpu:              24.2 elap:               3.2
 (Enter /udrive/faculty/rpeverati/g16/g16/l508.exe)
 QCSCF skips out because SCF is already converged.
 Leave Link  508 at Wed Oct 21 14:22:14 2020, MaxMem=  2684354560 cpu:               1.2 elap:               0.8
 (Enter /udrive/faculty/rpeverati/g16/g16/l601.exe)
 Copying SCF densities to generalized density rwf, IOpCl= 1 IROHF=0.

 **********************************************************************

            Population analysis using the SCF density.

 **********************************************************************

 Orbital symmetries:
 Alpha Orbitals:
       Occupied  (A') (A') (A') (A') (A") (A') (A") (A')
       Virtual   (A') (A') (A") (A')
 Beta  Orbitals:
       Occupied  (A') (A') (A') (A') (A") (A') (A")
       Virtual   (A') (A') (A') (A") (A')
 The electronic state is 2-A'.
 Alpha  occ. eigenvalues --   -1.08335  -0.77693  -0.62211  -0.59922  -0.59920
 Alpha  occ. eigenvalues --   -0.50083  -0.50082  -0.32203
 Alpha virt. eigenvalues --    0.05429   0.13300   0.16097   0.16098
  Beta  occ. eigenvalues --   -1.05976  -0.75781  -0.60796  -0.59576  -0.59574
  Beta  occ. eigenvalues --   -0.49425  -0.49423
  Beta virt. eigenvalues --    0.01889   0.13850   0.14515   0.17168   0.17169
          Condensed to atoms (all electrons):
               1          2          3          4          5          6
     1  H    0.943004   0.000000   0.000000   0.000000   0.000000   0.000000
     2  F    0.000000   7.161496   0.000000   0.000000   0.000000   0.000000
     3  C    0.000000   0.000000   4.037496   0.000000   0.000000   0.000000
     4  H    0.000000   0.000000   0.000000   0.952649   0.000000   0.000000
     5  H    0.000000   0.000000   0.000000   0.000000   0.952677   0.000000
     6  H    0.000000   0.000000   0.000000   0.000000   0.000000   0.952677
          Atomic-Atomic Spin Densities.
               1          2          3          4          5          6
     1  H    0.510478   0.000000   0.000000   0.000000   0.000000   0.000000
     2  F    0.000000  -0.050687   0.000000   0.000000   0.000000   0.000000
     3  C    0.000000   0.000000   0.651532   0.000000   0.000000   0.000000
     4  H    0.000000   0.000000   0.000000  -0.037116   0.000000   0.000000
     5  H    0.000000   0.000000   0.000000   0.000000  -0.037104   0.000000
     6  H    0.000000   0.000000   0.000000   0.000000   0.000000  -0.037104
 Mulliken charges and spin densities:
               1          2
     1  H    0.056996   0.510478
     2  F   -0.161496  -0.050687
     3  C   -0.037496   0.651532
     4  H    0.047351  -0.037116
     5  H    0.047323  -0.037104
     6  H    0.047323  -0.037104
 Sum of Mulliken charges =  -0.00000   1.00000
 Mulliken charges and spin densities with hydrogens summed into heavy atoms:
               1          2
     2  F   -0.104501   0.459791
     3  C    0.104501   0.540209
 Charge=             -0.0000 electrons
 Dipole moment (field-independent basis, Debye):
    X=              0.0003    Y=             -0.5485    Z=              0.0000  Tot=              0.5485
 N-N= 4.295645468647D+01 E-N=-3.871629087836D+01  KE=-3.751029381523D+01
 Leave Link  601 at Wed Oct 21 14:22:15 2020, MaxMem=  2684354560 cpu:               4.0 elap:               1.2
 (Enter /udrive/faculty/rpeverati/g16/g16/l701.exe)
 ... and contract with generalized density number  0.
 Compute integral first derivatives.
 Leave Link  701 at Wed Oct 21 14:22:18 2020, MaxMem=  2684354560 cpu:               3.2 elap:               1.8
 (Enter /udrive/faculty/rpeverati/g16/g16/l702.exe)
 L702 exits ... SP integral derivatives will be done elsewhere.
 Leave Link  702 at Wed Oct 21 14:22:20 2020, MaxMem=  2684354560 cpu:               2.2 elap:               1.4
 (Enter /udrive/faculty/rpeverati/g16/g16/l703.exe)
 Integral derivatives from FoFJK, PRISM(SPDF).
 Compute integral first derivatives, UseDBF=F ICtDFT=           0.
 Calling FoFJK, ICntrl=      2127 FMM=F ISym2X=1 I1Cent= 0 IOpClX= 1 NMat=1 NMatS=1 NMatT=0.
 FoFJK:  IHMeth= 9 ICntrl=    2127 DoSepK=F KAlg= 0 I1Cent=           0 FoldK=F
 IRaf=         0 NMat=       1 IRICut=       1 DoRegI=T DoRafI=F ISym2E= 1 IDoP0=3 IntGTp=3.
 FoFCou: FMM=F IPFlag=           0 FMFlag=      100000 FMFlg1=         800
         NFxFlg=           0 DoJE=F BraDBF=F KetDBF=F FulRan=T
         wScrn=  0.000000 ICntrl=      2127 IOpCl=  1 I1Cent=           0 NGrid=           0
         NMat0=    1 NMatS0=      1 NMatT0=    0 NMatD0=    1 NMtDS0=    0 NMtDT0=    0
 Petite list used in FoFCou.
 Leave Link  703 at Wed Oct 21 14:22:22 2020, MaxMem=  2684354560 cpu:               3.2 elap:               1.4
 (Enter /udrive/faculty/rpeverati/g16/g16/l716.exe)
 Dipole        = 1.37652910D-04-2.15806433D-01 2.44249065D-15
 ***** Axes restored to original set *****
 -------------------------------------------------------------------
 Center     Atomic                   Forces (Hartrees/Bohr)
 Number     Number              X              Y              Z
 -------------------------------------------------------------------
      1        1          -0.000026241   -0.059399486   -0.000000000
      2        9           0.000010196    0.031161984    0.000000000
      3        6           0.000058078    0.040940133   -0.000000000
      4        1           0.001655427   -0.004245914   -0.000000000
      5        1          -0.000848730   -0.004228359    0.001503699
      6        1          -0.000848730   -0.004228359   -0.001503699
 -------------------------------------------------------------------
 Cartesian Forces:  Max     0.059399486 RMS     0.018615937
 Leave Link  716 at Wed Oct 21 14:22:24 2020, MaxMem=  2684354560 cpu:               5.2 elap:               1.5
 (Enter /udrive/faculty/rpeverati/g16/g16/l103.exe)

 GradGradGradGradGradGradGradGradGradGradGradGradGradGradGradGradGradGrad
 Berny optimization.
 Optmz: redundant internal coordinate code flag= 1
 FormGI is forming the generalized inverse of G from B-inverse, IUseBI=4.
 Internal  Forces:  Max     0.059399492 RMS     0.017705220
 Search for a saddle point.
 Step number   1 out of a maximum of   50
 All quantities printed in internal units (Hartrees-Bohrs-Radians)
 Swapping is turned off.
 Second derivative matrix not updated -- first step.
 The second derivative matrix:
                          R1        R2        R3        R4        R5
           R1           0.22057
           R2           0.00000   0.19598
           R3           0.00000   0.00000   0.36022
           R4           0.00000   0.00000   0.00000   0.36033
           R5           0.00000   0.00000   0.00000   0.00000   0.36033
           A1           0.00000   0.00000   0.00000   0.00000   0.00000
           A2           0.00000   0.00000   0.00000   0.00000   0.00000
           A3           0.00000   0.00000   0.00000   0.00000   0.00000
           A4           0.00000   0.00000   0.00000   0.00000   0.00000
           A5           0.00000   0.00000   0.00000   0.00000   0.00000
           A6           0.00000   0.00000   0.00000   0.00000   0.00000
           A7           0.00000   0.00000   0.00000   0.00000   0.00000
           A8           0.00000   0.00000   0.00000   0.00000   0.00000
           D1           0.00000   0.00000   0.00000   0.00000   0.00000
                          A1        A2        A3        A4        A5
           A1           0.16000
           A2           0.00000   0.16000
           A3           0.00000   0.00000   0.16000
           A4           0.00000   0.00000   0.00000   0.16000
           A5           0.00000   0.00000   0.00000   0.00000   0.16000
           A6           0.00000   0.00000   0.00000   0.00000   0.00000
           A7           0.00000   0.00000   0.00000   0.00000   0.00000
           A8           0.00000   0.00000   0.00000   0.00000   0.00000
           D1           0.00000   0.00000   0.00000   0.00000   0.00000
                          A6        A7        A8        D1
           A6           0.16000
           A7           0.00000   0.00230
           A8           0.00000   0.00000   0.00230
           D1           0.00000   0.00000   0.00000   0.00371
 ITU=  0
 Eigenvectors of the second derivative matrix:
                           1         2         3         4         5
     Eigenvalues --     0.00230   0.00230   0.05482   0.16000   0.16000
   1         R1        -0.00000   0.00000   0.00000  -0.00000  -0.00000
   2         R2         0.00000  -0.00000   0.00000   0.00000  -0.00000
   3         R3        -0.00000   0.00000   0.00000  -0.00000  -0.00000
   4         R4         0.00000   0.00000  -0.00000   0.00000  -0.00000
   5         R5        -0.00000  -0.00000  -0.00000   0.00000   0.00000
   6         A1         0.00000   0.00000  -0.26170   0.06551  -0.66896
   7         A2         0.00000   0.00000  -0.26168   0.03907   0.68006
   8         A3        -0.00000  -0.00000  -0.26168  -0.01980   0.08608
   9         A4        -0.00000   0.00000   0.29660   0.17965   0.20549
  10         A5         0.00000   0.00000   0.12961  -0.80283  -0.09988
  11         A6        -0.00000   0.00000   0.12958   0.56301  -0.17432
  12         A7         0.49200   0.87060  -0.00000   0.00000   0.00000
  13         A8         0.87060  -0.49200   0.00000   0.00000  -0.00000
  14         D1        -0.00000   0.00000   0.82036  -0.00000  -0.00000
                           6         7         8         9        10
     Eigenvalues --     0.16000   0.16000   0.19598   0.22057   0.36022
   1         R1         0.00000   0.00000   0.00000  -1.00000  -0.00000
   2         R2        -0.00000   0.00000   1.00000   0.00000  -0.00000
   3         R3         0.00000   0.00000   0.00000   0.00000  -1.00000
   4         R4         0.00000   0.00000   0.00000   0.00000   0.00000
   5         R5        -0.00000   0.00000   0.00000  -0.00000   0.00000
   6         A1        -0.31225  -0.36049  -0.00000   0.00000  -0.00000
   7         A2         0.10115  -0.45285   0.00000  -0.00000  -0.00000
   8         A3        -0.10041   0.81328   0.00000   0.00000   0.00000
   9         A4        -0.65914  -0.00017  -0.00000  -0.00000  -0.00000
  10         A5         0.26523  -0.04196   0.00000   0.00000   0.00000
  11         A6         0.61431   0.04219  -0.00000  -0.00000  -0.00000
  12         A7        -0.00000   0.00000   0.00000  -0.00000   0.00000
  13         A8        -0.00000  -0.00000  -0.00000  -0.00000  -0.00000
  14         D1         0.00000  -0.00000  -0.00000   0.00000   0.00000
                          11        12
     Eigenvalues --     0.36033   0.36033
   1         R1         0.00000  -0.00000
   2         R2         0.00000   0.00000
   3         R3        -0.00000  -0.00000
   4         R4        -0.70685  -0.70736
   5         R5        -0.70736   0.70685
   6         A1         0.00000  -0.00000
   7         A2        -0.00000  -0.00000
   8         A3         0.00000   0.00000
   9         A4        -0.00000  -0.00000
  10         A5        -0.00000  -0.00000
  11         A6         0.00000   0.00000
  12         A7        -0.00000   0.00000
  13         A8        -0.00000   0.00000
  14         D1        -0.00000  -0.00000
 Eigenvalue     1 is   2.30D-03 should be less than     0.000000 Eigenvector:
                          A8        A7        R1        A3        D1
   1                    0.87060   0.49200  -0.00000  -0.00000  -0.00000
                          A2        A5        A4        R5        A1
   1                    0.00000   0.00000  -0.00000  -0.00000   0.00000
 RLam0= 2.30D-03.
 Iter=   1 RLamda= 0.00000000D+00 Sum=-2.08243101D-02.
 Iter=   2 RLamda=-2.08243101D-02 Sum=-1.88634376D-02.
 Iter=   3 RLamda=-1.88634376D-02 Sum=-1.90301536D-02.
 Iter=   4 RLamda=-1.90301536D-02 Sum=-1.90158523D-02.
 Iter=   5 RLamda=-1.90158523D-02 Sum=-1.90170782D-02.
 Iter=   6 RLamda=-1.90170782D-02 Sum=-1.90169731D-02.
 Iter=   7 RLamda=-1.90169731D-02 Sum=-1.90169821D-02.
 RFO step:  Lambda0=2.300015120D-03 Lambda=-1.90169731D-02.
 Linear search not attempted -- option 19 set.
 Maximum step size (   0.100) exceeded in Quadratic search.
    -- Step size scaled by   0.245
 Iteration  1 RMS(Cart)=  0.02660959 RMS(Int)=  0.00092861
 Iteration  2 RMS(Cart)=  0.00085708 RMS(Int)=  0.00002580
 Iteration  3 RMS(Cart)=  0.00000190 RMS(Int)=  0.00002573
 Iteration  4 RMS(Cart)=  0.00000000 RMS(Int)=  0.00002573
 ITry= 1 IFail=0 DXMaxC= 6.75D-02 DCOld= 1.00D+10 DXMaxT= 1.00D-01 DXLimC= 3.00D+00 Rises=F
 ClnCor:  largest displacement from symmetrization is 2.93D-02 for atom     6.
 Variable       Old X    -DE/DX   Delta X   Delta X   Delta X     New X
                                 (Linear)    (Quad)   (Total)
    R1        2.34040  -0.05940   0.00000  -0.06067  -0.06131   2.27909
    R2        3.15329  -0.02824   0.00000  -0.03214  -0.03225   3.12104
    R3        2.04047   0.00254   0.00000   0.00164   0.00164   2.04211
    R4        2.04030   0.00261   0.00000   0.00168  -0.00003   2.04027
    R5        2.04030   0.00261   0.00000   0.00168  -0.00003   2.04027
    A1        1.79058   0.00190   0.00000   0.00567   0.00567   1.79625
    A2        1.79134   0.00185   0.00000   0.00559  -0.00153   1.78980
    A3        1.79134   0.00185   0.00000   0.00559  -0.00153   1.78980
    A4        2.01363   0.00005   0.00000  -0.00341  -0.00164   2.01199
    A5        2.01363  -0.00202   0.00000  -0.00429  -0.00164   2.01199
    A6        2.01322  -0.00199   0.00000  -0.00424   0.00144   2.01466
    A7        3.14120   0.00001   0.00000  -0.03519  -0.03433   3.10687
    A8        3.14159   0.00000   0.00000  -0.06241   0.00000   3.14159
    D1        2.41803  -0.00494   0.00000  -0.01638  -0.00300   2.41503
         Item               Value     Threshold  Converged?
 Maximum Force            0.059399     0.000450     NO 
 RMS     Force            0.017705     0.000300     NO 
 Maximum Displacement     0.067537     0.001800     NO 
 RMS     Displacement     0.025330     0.001200     NO 
 Predicted change in Energy=-4.054822D-03
 Lowest energy point so far.  Saving SCF results.
 Largest change from initial coordinates is atom    1       0.011 Angstoms.
 GradGradGradGradGradGradGradGradGradGradGradGradGradGradGradGradGradGrad

 Leave Link  103 at Wed Oct 21 14:22:26 2020, MaxMem=  2684354560 cpu:               6.1 elap:               1.5
 (Enter /udrive/faculty/rpeverati/g16/g16/l202.exe)
                          Input orientation:                          
 ---------------------------------------------------------------------
 Center     Atomic      Atomic             Coordinates (Angstroms)
 Number     Number       Type             X           Y           Z
 ---------------------------------------------------------------------
      1          1           0        0.014969    1.965228    0.000000
      2          9           0       -0.016061    0.759586    0.000000
      3          6           0       -0.001214   -0.891931    0.000000
      4          1           0        1.054203   -1.124027    0.000000
      5          1           0       -0.525890   -1.131225    0.912758
      6          1           0       -0.525890   -1.131225   -0.912758
 ---------------------------------------------------------------------
                    Distance matrix (angstroms):
                    1          2          3          4          5
     1  H    0.000000
     2  F    1.206041   0.000000
     3  C    2.857204   1.651583   0.000000
     4  H    3.259371   2.166440   1.080636   0.000000
     5  H    3.273176   2.160607   1.079664   1.824794   0.000000
     6  H    3.273176   2.160607   1.079664   1.824794   1.825517
                    6
     6  H    0.000000
 Stoichiometry    CH4F(2)
 Framework group  CS[SG(CH2F),X(H2)]
 Deg. of freedom     8
 Full point group                 CS      NOp   2
 RotChk:  IX=0 Diff= 1.27D-02
 Largest Abelian subgroup         CS      NOp   2
 Largest concise Abelian subgroup CS      NOp   2
                         Standard orientation:                         
 ---------------------------------------------------------------------
 Center     Atomic      Atomic             Coordinates (Angstroms)
 Number     Number       Type             X           Y           Z
 ---------------------------------------------------------------------
      1          1           0        0.039680    1.961612   -0.000000
      2          9           0       -0.002186    0.756297   -0.000000
      3          6           0       -0.002186   -0.895286    0.000000
      4          1           0        1.051101   -1.136860    0.000000
      5          1           0       -0.528992   -1.129855    0.912758
      6          1           0       -0.528992   -1.129855   -0.912758
 ---------------------------------------------------------------------
 Rotational constants (GHZ):         150.4866790          16.9689006          16.9687344
 Leave Link  202 at Wed Oct 21 14:22:27 2020, MaxMem=  2684354560 cpu:               2.5 elap:               0.9
 (Enter /udrive/faculty/rpeverati/g16/g16/l301.exe)
 Standard basis: VSTO-6G (5D, 7F)
 Ernie: Thresh=  0.10000D-02 Tol=  0.10000D-05 Strict=F.
  NNHCO=     0 NNPyr=     0 NCTC=     0               EPep=         0.000000000
    EC=        19.695464789  ECS=         0.520441869   EG=         0.146780141
   EHC=         0.000000000  EAt=       -22.087827183  AtH=         0.634552969
 EPDDG=         0.000000000  ECC=        20.362686799 EAtT=        22.722380152
 There are     9 symmetry adapted cartesian basis functions of A'  symmetry.
 There are     3 symmetry adapted cartesian basis functions of A"  symmetry.
 There are     9 symmetry adapted basis functions of A'  symmetry.
 There are     3 symmetry adapted basis functions of A"  symmetry.
    12 basis functions,    72 primitive gaussians,    12 cartesian basis functions
     8 alpha electrons        7 beta electrons
       nuclear repulsion energy        43.0850669508 Hartrees.
 IExCor=    0 DFT=F Ex=HF Corr=None ExCW=0 ScaHFX=  1.000000
 ScaDFX=  1.000000  1.000000  1.000000  1.000000 ScalE2=  1.000000  1.000000
 IRadAn=      5 IRanWt=     -1 IRanGd=            0 ICorTp=0 IEmpDi=  4
 Integral buffers will be    131072 words long.
 Regular integral format.
 Two-electron integral symmetry is turned off.
 Leave Link  301 at Wed Oct 21 14:22:28 2020, MaxMem=  2684354560 cpu:               5.9 elap:               1.1
 (Enter /udrive/faculty/rpeverati/g16/g16/l302.exe)
 Do NDO integrals.
 NPDir=0 NMtPBC=     1 NCelOv=     1 NCel=       1 NClECP=     1 NCelD=      1
         NCelK=      1 NCelE2=     1 NClLst=     1 CellRange=     0.0.
 One-electron integrals computed using PRISM.
 NBasis=    12 RedAO= T EigKep=  1.00D+00  NBF=     9     3
 NBsUse=    12 1.00D-06 EigRej= -1.00D+00 NBFU=     9     3
 Leave Link  302 at Wed Oct 21 14:22:30 2020, MaxMem=  2684354560 cpu:               3.5 elap:               1.0
 (Enter /udrive/faculty/rpeverati/g16/g16/l303.exe)
 DipDrv:  MaxL=1.
 Leave Link  303 at Wed Oct 21 14:22:32 2020, MaxMem=  2684354560 cpu:               5.6 elap:               1.3
 (Enter /udrive/faculty/rpeverati/g16/g16/l401.exe)
 Initial guess from the checkpoint file:  "MN_53_hfch3ts_BH76_PM3_SE.chk"
 SCF N**3 symmetry information disabled.
 B after Tr=    -0.000000   -0.000000   -0.000000
         Rot=    0.999997   -0.000000   -0.000000    0.002345 Ang=   0.27 deg.
 Guess basis will be translated and rotated to current coordinates.
 JPrj=0 DoOrth=T DoCkMO=T.
 Initial guess orbital symmetries:
 Alpha Orbitals:
       Occupied  (A') (A') (A') (A') (A") (A') (A") (A')
       Virtual   (A') (A') (A") (A')
 Beta  Orbitals:
       Occupied  (A') (A') (A') (A') (A") (A') (A")
       Virtual   (A') (A') (A') (A") (A')
 The electronic state of the initial guess is 2-A'.
 Initial guess <Sx>= 0.0000 <Sy>= 0.0000 <Sz>= 0.5000 <S**2>= 0.7893 S= 0.5194
 Leave Link  401 at Wed Oct 21 14:22:34 2020, MaxMem=  2684354560 cpu:               4.5 elap:               1.4
 (Enter /udrive/faculty/rpeverati/g16/g16/l502.exe)
 Keep J ints in memory in canonical form, NReq=859461.
 FoFCou: FMM=F IPFlag=           0 FMFlag=           0 FMFlg1=           0
         NFxFlg=           0 DoJE=F BraDBF=F KetDBF=F FulRan=T
         wScrn=  0.000000 ICntrl=       600 IOpCl=  2 I1Cent=           0 NGrid=           0
         NMat0=    1 NMatS0=     24 NMatT0=    0 NMatD0=    1 NMtDS0=    0 NMtDT0=    0
 Symmetry not used in FoFCou.
 Two-electron integral symmetry not used.
 UHF open shell SCF:
 Using DIIS extrapolation, IDIIS=  1040.
 Overlap will be assumed to be unity.
 NGot=  2684354560 LenX=  2684293796 LenY=  2684292914
 Requested convergence on RMS density matrix=1.00D-08 within 120 cycles.
 Requested convergence on MAX density matrix=1.00D-06.
 Requested convergence on             energy=1.00D-06.
 No special actions if energy rises.

 Cycle   1  Pass 1  IDiag  1:
 E= 0.338247245169043E-01
 DIIS: error= 3.19D-03 at cycle   1 NSaved=   1.
 NSaved= 1 IEnMin= 1 EnMin= 0.338247245169043E-01 IErMin= 1 ErrMin= 3.19D-03
 ErrMax= 3.19D-03  0.00D+00 EMaxC= 1.00D-01 BMatC= 2.12D-04 BMatP= 2.12D-04
 IDIUse=3 WtCom= 9.68D-01 WtEn= 3.19D-02
 Coeff-Com:  0.100D+01
 Coeff-En:   0.100D+01
 Coeff:      0.100D+01
 GapD=    2.000 DampG=2.000 DampE=1.000 DampFc=2.0000 IDamp=-1.
 RMSDP=1.18D-03 MaxDP=6.22D-03              OVMax= 0.00D+00

 Cycle   2  Pass 1  IDiag  3:
 E= 0.336225905776644E-01 Delta-E=       -0.000202133939 Rises=F Damp=F
 DIIS: error= 1.25D-03 at cycle   2 NSaved=   2.
 NSaved= 2 IEnMin= 2 EnMin= 0.336225905776644E-01 IErMin= 2 ErrMin= 1.25D-03
 ErrMax= 1.25D-03  0.00D+00 EMaxC= 1.00D-01 BMatC= 4.41D-05 BMatP= 2.12D-04
 IDIUse=3 WtCom= 9.88D-01 WtEn= 1.25D-02
 Coeff-Com: -0.497D+00 0.150D+01
 Coeff-En:   0.000D+00 0.100D+01
 Coeff:     -0.491D+00 0.149D+01
 Gap=     0.380 Goal=   None    Shift=    0.000
 Gap=     0.515 Goal=   None    Shift=    0.000
 RMSDP=9.20D-04 MaxDP=5.43D-03 DE=-2.02D-04 OVMax= 6.29D-03

 Cycle   3  Pass 1  IDiag  3:
 E= 0.335514688805034E-01 Delta-E=       -0.000071121697 Rises=F Damp=F
 DIIS: error= 5.92D-04 at cycle   3 NSaved=   3.
 NSaved= 3 IEnMin= 3 EnMin= 0.335514688805034E-01 IErMin= 3 ErrMin= 5.92D-04
 ErrMax= 5.92D-04  0.00D+00 EMaxC= 1.00D-01 BMatC= 9.30D-06 BMatP= 4.41D-05
 IDIUse=3 WtCom= 9.94D-01 WtEn= 5.92D-03
 Coeff-Com:  0.313D+00-0.134D+01 0.203D+01
 Coeff-En:   0.000D+00 0.000D+00 0.100D+01
 Coeff:      0.311D+00-0.133D+01 0.202D+01
 Gap=     0.379 Goal=   None    Shift=    0.000
 Gap=     0.515 Goal=   None    Shift=    0.000
 RMSDP=7.81D-04 MaxDP=5.99D-03 DE=-7.11D-05 OVMax= 6.93D-03

 Cycle   4  Pass 1  IDiag  3:
 E= 0.335254680882997E-01 Delta-E=       -0.000026000792 Rises=F Damp=F
 DIIS: error= 2.11D-04 at cycle   4 NSaved=   4.
 NSaved= 4 IEnMin= 4 EnMin= 0.335254680882997E-01 IErMin= 4 ErrMin= 2.11D-04
 ErrMax= 2.11D-04  0.00D+00 EMaxC= 1.00D-01 BMatC= 1.88D-06 BMatP= 9.30D-06
 IDIUse=3 WtCom= 9.98D-01 WtEn= 2.11D-03
 Coeff-Com: -0.540D+00 0.233D+01-0.377D+01 0.299D+01
 Coeff-En:   0.000D+00 0.000D+00 0.000D+00 0.100D+01
 Coeff:     -0.539D+00 0.232D+01-0.376D+01 0.298D+01
 Gap=     0.379 Goal=   None    Shift=    0.000
 Gap=     0.514 Goal=   None    Shift=    0.000
 RMSDP=5.89D-04 MaxDP=4.23D-03 DE=-2.60D-05 OVMax= 6.23D-03

 Cycle   5  Pass 1  IDiag  3:
 E= 0.335170174561341E-01 Delta-E=       -0.000008450632 Rises=F Damp=F
 DIIS: error= 8.46D-05 at cycle   5 NSaved=   5.
 NSaved= 5 IEnMin= 5 EnMin= 0.335170174561341E-01 IErMin= 5 ErrMin= 8.46D-05
 ErrMax= 8.46D-05  0.00D+00 EMaxC= 1.00D-01 BMatC= 2.89D-07 BMatP= 1.88D-06
 IDIUse=1 WtCom= 1.00D+00 WtEn= 0.00D+00
 Coeff-Com:  0.561D+00-0.243D+01 0.399D+01-0.354D+01 0.242D+01
 Coeff:      0.561D+00-0.243D+01 0.399D+01-0.354D+01 0.242D+01
 Gap=     0.379 Goal=   None    Shift=    0.000
 Gap=     0.514 Goal=   None    Shift=    0.000
 RMSDP=2.79D-04 MaxDP=1.85D-03 DE=-8.45D-06 OVMax= 2.98D-03

 Cycle   6  Pass 1  IDiag  3:
 E= 0.335157271795197E-01 Delta-E=       -0.000001290277 Rises=F Damp=F
 DIIS: error= 1.61D-05 at cycle   6 NSaved=   6.
 NSaved= 6 IEnMin= 6 EnMin= 0.335157271795197E-01 IErMin= 6 ErrMin= 1.61D-05
 ErrMax= 1.61D-05  0.00D+00 EMaxC= 1.00D-01 BMatC= 2.43D-08 BMatP= 2.89D-07
 IDIUse=1 WtCom= 1.00D+00 WtEn= 0.00D+00
 Coeff-Com: -0.420D+00 0.181D+01-0.297D+01 0.267D+01-0.201D+01 0.192D+01
 Coeff:     -0.420D+00 0.181D+01-0.297D+01 0.267D+01-0.201D+01 0.192D+01
 Gap=     0.379 Goal=   None    Shift=    0.000
 Gap=     0.514 Goal=   None    Shift=    0.000
 RMSDP=4.96D-05 MaxDP=3.27D-04 DE=-1.29D-06 OVMax= 4.63D-04

 Cycle   7  Pass 1  IDiag  3:
 E= 0.335156684323437E-01 Delta-E=       -0.000000058747 Rises=F Damp=F
 DIIS: error= 7.05D-06 at cycle   7 NSaved=   7.
 NSaved= 7 IEnMin= 7 EnMin= 0.335156684323437E-01 IErMin= 7 ErrMin= 7.05D-06
 ErrMax= 7.05D-06  0.00D+00 EMaxC= 1.00D-01 BMatC= 2.79D-09 BMatP= 2.43D-08
 IDIUse=1 WtCom= 1.00D+00 WtEn= 0.00D+00
 Coeff-Com:  0.254D+00-0.109D+01 0.179D+01-0.161D+01 0.122D+01-0.134D+01
 Coeff-Com:  0.177D+01
 Coeff:      0.254D+00-0.109D+01 0.179D+01-0.161D+01 0.122D+01-0.134D+01
 Coeff:      0.177D+01
 Gap=     0.379 Goal=   None    Shift=    0.000
 Gap=     0.514 Goal=   None    Shift=    0.000
 RMSDP=9.74D-06 MaxDP=4.98D-05 DE=-5.87D-08 OVMax= 4.76D-05

 Cycle   8  Pass 1  IDiag  3:
 E= 0.335156631138460E-01 Delta-E=       -0.000000005318 Rises=F Damp=F
 DIIS: error= 2.66D-06 at cycle   8 NSaved=   8.
 NSaved= 8 IEnMin= 8 EnMin= 0.335156631138460E-01 IErMin= 8 ErrMin= 2.66D-06
 ErrMax= 2.66D-06  0.00D+00 EMaxC= 1.00D-01 BMatC= 3.84D-10 BMatP= 2.79D-09
 IDIUse=1 WtCom= 1.00D+00 WtEn= 0.00D+00
 Coeff-Com: -0.615D-01 0.262D+00-0.432D+00 0.387D+00-0.290D+00 0.334D+00
 Coeff-Com: -0.855D+00 0.165D+01
 Coeff:     -0.615D-01 0.262D+00-0.432D+00 0.387D+00-0.290D+00 0.334D+00
 Coeff:     -0.855D+00 0.165D+01
 Gap=     0.379 Goal=   None    Shift=    0.000
 Gap=     0.514 Goal=   None    Shift=    0.000
 RMSDP=4.54D-06 MaxDP=2.50D-05 DE=-5.32D-09 OVMax= 2.27D-05

 Cycle   9  Pass 1  IDiag  3:
 E= 0.335156623354322E-01 Delta-E=       -0.000000000778 Rises=F Damp=F
 DIIS: error= 7.53D-07 at cycle   9 NSaved=   9.
 NSaved= 9 IEnMin= 9 EnMin= 0.335156623354322E-01 IErMin= 9 ErrMin= 7.53D-07
 ErrMax= 7.53D-07  0.00D+00 EMaxC= 1.00D-01 BMatC= 3.02D-11 BMatP= 3.84D-10
 IDIUse=1 WtCom= 1.00D+00 WtEn= 0.00D+00
 Coeff-Com: -0.116D-02 0.691D-02-0.109D-01 0.981D-02-0.952D-02 0.498D-02
 Coeff-Com:  0.230D+00-0.848D+00 0.162D+01
 Coeff:     -0.116D-02 0.691D-02-0.109D-01 0.981D-02-0.952D-02 0.498D-02
 Coeff:      0.230D+00-0.848D+00 0.162D+01
 Gap=     0.379 Goal=   None    Shift=    0.000
 Gap=     0.514 Goal=   None    Shift=    0.000
 RMSDP=1.02D-06 MaxDP=4.63D-06 DE=-7.78D-10 OVMax= 4.26D-06

 Cycle  10  Pass 1  IDiag  3:
 E= 0.335156622809194E-01 Delta-E=       -0.000000000055 Rises=F Damp=F
 DIIS: error= 2.12D-07 at cycle  10 NSaved=  10.
 NSaved=10 IEnMin=10 EnMin= 0.335156622809194E-01 IErMin=10 ErrMin= 2.12D-07
 ErrMax= 2.12D-07  0.00D+00 EMaxC= 1.00D-01 BMatC= 2.23D-12 BMatP= 3.02D-11
 IDIUse=1 WtCom= 1.00D+00 WtEn= 0.00D+00
 Coeff-Com: -0.351D-03 0.394D-03-0.793D-03 0.642D-03 0.989D-03 0.510D-03
 Coeff-Com: -0.126D+00 0.469D+00-0.108D+01 0.174D+01
 Coeff:     -0.351D-03 0.394D-03-0.793D-03 0.642D-03 0.989D-03 0.510D-03
 Coeff:     -0.126D+00 0.469D+00-0.108D+01 0.174D+01
 Gap=     0.379 Goal=   None    Shift=    0.000
 Gap=     0.514 Goal=   None    Shift=    0.000
 RMSDP=3.25D-07 MaxDP=1.34D-06 DE=-5.45D-11 OVMax= 1.68D-06

 Cycle  11  Pass 1  IDiag  3:
 E= 0.335156622767556E-01 Delta-E=       -0.000000000004 Rises=F Damp=F
 DIIS: error= 5.62D-08 at cycle  11 NSaved=  11.
 NSaved=11 IEnMin=11 EnMin= 0.335156622767556E-01 IErMin=11 ErrMin= 5.62D-08
 ErrMax= 5.62D-08  0.00D+00 EMaxC= 1.00D-01 BMatC= 9.29D-14 BMatP= 2.23D-12
 IDIUse=1 WtCom= 1.00D+00 WtEn= 0.00D+00
 Coeff-Com: -0.495D-04 0.811D-03-0.132D-02 0.126D-02-0.178D-02 0.916D-03
 Coeff-Com:  0.637D-01-0.242D+00 0.580D+00-0.105D+01 0.164D+01
 Coeff:     -0.495D-04 0.811D-03-0.132D-02 0.126D-02-0.178D-02 0.916D-03
 Coeff:      0.637D-01-0.242D+00 0.580D+00-0.105D+01 0.164D+01
 Gap=     0.379 Goal=   None    Shift=    0.000
 Gap=     0.514 Goal=   None    Shift=    0.000
 RMSDP=6.24D-08 MaxDP=3.59D-07 DE=-4.16D-12 OVMax= 4.43D-07

 Cycle  12  Pass 1  IDiag  3:
 E= 0.335156622766277E-01 Delta-E=       -0.000000000000 Rises=F Damp=F
 DIIS: error= 1.34D-08 at cycle  12 NSaved=  12.
 NSaved=12 IEnMin=12 EnMin= 0.335156622766277E-01 IErMin=12 ErrMin= 1.34D-08
 ErrMax= 1.34D-08  0.00D+00 EMaxC= 1.00D-01 BMatC= 7.48D-15 BMatP= 9.29D-14
 IDIUse=1 WtCom= 1.00D+00 WtEn= 0.00D+00
 Coeff-Com:  0.115D-03-0.719D-03 0.122D-02-0.114D-02 0.120D-02-0.834D-03
 Coeff-Com: -0.219D-01 0.857D-01-0.215D+00 0.412D+00-0.885D+00 0.163D+01
 Coeff:      0.115D-03-0.719D-03 0.122D-02-0.114D-02 0.120D-02-0.834D-03
 Coeff:     -0.219D-01 0.857D-01-0.215D+00 0.412D+00-0.885D+00 0.163D+01
 Gap=     0.379 Goal=   None    Shift=    0.000
 Gap=     0.514 Goal=   None    Shift=    0.000
 RMSDP=2.53D-08 MaxDP=1.80D-07 DE=-1.28D-13 OVMax= 2.01D-07

 Cycle  13  Pass 1  IDiag  3:
 E= 0.335156622765638E-01 Delta-E=       -0.000000000000 Rises=F Damp=F
 DIIS: error= 3.23D-09 at cycle  13 NSaved=  13.
 NSaved=13 IEnMin=13 EnMin= 0.335156622765638E-01 IErMin=13 ErrMin= 3.23D-09
 ErrMax= 3.23D-09  0.00D+00 EMaxC= 1.00D-01 BMatC= 4.30D-16 BMatP= 7.48D-15
 IDIUse=1 WtCom= 1.00D+00 WtEn= 0.00D+00
 Coeff-Com: -0.152D-04 0.131D-03-0.240D-03 0.236D-03-0.283D-03 0.138D-03
 Coeff-Com:  0.607D-02-0.236D-01 0.613D-01-0.120D+00 0.296D+00-0.701D+00
 Coeff-Com:  0.148D+01
 Coeff:     -0.152D-04 0.131D-03-0.240D-03 0.236D-03-0.283D-03 0.138D-03
 Coeff:      0.607D-02-0.236D-01 0.613D-01-0.120D+00 0.296D+00-0.701D+00
 Coeff:      0.148D+01
 Gap=     0.379 Goal=   None    Shift=    0.000
 Gap=     0.514 Goal=   None    Shift=    0.000
 RMSDP=7.73D-09 MaxDP=5.23D-08 DE=-6.39D-14 OVMax= 7.62D-08

 Cycle  14  Pass 2  IDiag  1:
 SCF Done:  E(UPM3) =  0.335156622766E-01 A.U. after   14 cycles
            NFock= 13  Conv=0.77D-08     -V/T= 1.0009
 <Sx>= 0.0000 <Sy>= 0.0000 <Sz>= 0.5000 <S**2>= 0.7844 S= 0.5171
 <L.S>= 0.000000000000E+00
 KE=-3.750427958421D+01 PE=-3.895076744304D+01 EE= 3.340349573870D+01
 Annihilation of the first spin contaminant:
 S**2 before annihilation     0.7844,   after     0.7504
 Leave Link  502 at Wed Oct 21 14:22:37 2020, MaxMem=  2684354560 cpu:              14.2 elap:               2.3
 (Enter /udrive/faculty/rpeverati/g16/g16/l508.exe)
 QCSCF skips out because SCF is already converged.
 Leave Link  508 at Wed Oct 21 14:22:39 2020, MaxMem=  2684354560 cpu:               0.7 elap:               1.1
 (Enter /udrive/faculty/rpeverati/g16/g16/l701.exe)
 ... and contract with generalized density number  0.
 Compute integral first derivatives.
 Leave Link  701 at Wed Oct 21 14:22:41 2020, MaxMem=  2684354560 cpu:               3.8 elap:               1.0
 (Enter /udrive/faculty/rpeverati/g16/g16/l702.exe)
 L702 exits ... SP integral derivatives will be done elsewhere.
 Leave Link  702 at Wed Oct 21 14:22:43 2020, MaxMem=  2684354560 cpu:               2.0 elap:               1.3
 (Enter /udrive/faculty/rpeverati/g16/g16/l703.exe)
 Integral derivatives from FoFJK, PRISM(SPDF).
 Compute integral first derivatives, UseDBF=F ICtDFT=           0.
 Calling FoFJK, ICntrl=      2127 FMM=F ISym2X=1 I1Cent= 0 IOpClX= 1 NMat=1 NMatS=1 NMatT=0.
 FoFJK:  IHMeth= 9 ICntrl=    2127 DoSepK=F KAlg= 0 I1Cent=           0 FoldK=F
 IRaf=         0 NMat=       1 IRICut=       1 DoRegI=T DoRafI=F ISym2E= 1 IDoP0=3 IntGTp=3.
 FoFCou: FMM=F IPFlag=           0 FMFlag=      100000 FMFlg1=         800
         NFxFlg=           0 DoJE=F BraDBF=F KetDBF=F FulRan=T
         wScrn=  0.000000 ICntrl=      2127 IOpCl=  1 I1Cent=           0 NGrid=           0
         NMat0=    1 NMatS0=      1 NMatT0=    0 NMatD0=    1 NMtDS0=    0 NMtDT0=    0
 Petite list used in FoFCou.
 Leave Link  703 at Wed Oct 21 14:22:44 2020, MaxMem=  2684354560 cpu:               3.1 elap:               1.1
 (Enter /udrive/faculty/rpeverati/g16/g16/l716.exe)
 Dipole        = 8.33809139D-03-1.44573685D-01 2.66453526D-15
 ***** Axes restored to original set *****
 -------------------------------------------------------------------
 Center     Atomic                   Forces (Hartrees/Bohr)
 Number     Number              X              Y              Z
 -------------------------------------------------------------------
      1        1          -0.001874780   -0.064734432   -0.000000000
      2        9           0.002345952    0.042587445   -0.000000000
      3        6           0.000088404    0.035798059    0.000000000
      4        1           0.001139294   -0.004317828   -0.000000000
      5        1          -0.000849435   -0.004666623    0.001387100
      6        1          -0.000849435   -0.004666623   -0.001387100
 -------------------------------------------------------------------
 Cartesian Forces:  Max     0.064734432 RMS     0.020225880
 Leave Link  716 at Wed Oct 21 14:22:46 2020, MaxMem=  2684354560 cpu:               2.2 elap:               1.3
 (Enter /udrive/faculty/rpeverati/g16/g16/l103.exe)

 GradGradGradGradGradGradGradGradGradGradGradGradGradGradGradGradGradGrad
 Berny optimization.
 Optmz: redundant internal coordinate code flag= 1
 Red2BG:  D1=  2.57D-01 OD1=  8.77D-02 B2RMS=  0.00D+00 IAprox=0
 FormGI is forming the generalized inverse of G from B-inverse, IUseBI=4.
 Internal  Forces:  Max     0.064761238 RMS     0.018428753
 Search for a saddle point.
 Step number   2 out of a maximum of   50
 All quantities printed in internal units (Hartrees-Bohrs-Radians)
 Swapping is turned off.
 Update second derivatives using D2CorX and points    1    2
 The second derivative matrix:
                          R1        R2        R3        R4        R5
           R1          -0.07071
           R2          -0.01764   0.20753
           R3           0.00197  -0.00042   0.36023
           R4          -0.00000   0.00001  -0.00000   0.36033
           R5          -0.00000   0.00001  -0.00000   0.00000   0.36033
           A1           0.01376  -0.00040  -0.00004  -0.00000  -0.00000
           A2           0.00046   0.00075  -0.00003   0.00000   0.00000
           A3           0.00046   0.00075  -0.00003   0.00000   0.00000
           A4          -0.00358   0.00018   0.00001   0.00000   0.00000
           A5          -0.00632  -0.00024   0.00004   0.00000   0.00000
           A6          -0.00073  -0.00075   0.00004  -0.00000  -0.00000
           A7          -0.00986   0.01367  -0.00054   0.00001   0.00001
           A8          -0.00000  -0.00000   0.00000  -0.00000  -0.00000
           D1          -0.00790   0.00011   0.00003   0.00000   0.00000
                          A1        A2        A3        A4        A5
           A1           0.15947
           A2          -0.00009   0.16004
           A3          -0.00009   0.00004   0.16004
           A4           0.00013   0.00003   0.00003   0.15997
           A5           0.00029   0.00002   0.00002  -0.00007   0.15986
           A6           0.00010  -0.00004  -0.00004  -0.00003  -0.00002
           A7          -0.00092   0.00083   0.00083   0.00032  -0.00006
           A8           0.00000  -0.00000  -0.00000  -0.00000  -0.00000
           D1           0.00032   0.00005   0.00005  -0.00008  -0.00017
                          A6        A7        A8        D1
           A6           0.16004
           A7          -0.00082   0.01809
           A8           0.00000  -0.00000   0.00230
           D1          -0.00005   0.00040  -0.00000   0.00353
 ITU=  0  0
 Eigenvectors of the second derivative matrix:
                           1         2         3         4         5
     Eigenvalues --    -0.07447   0.00230   0.01783   0.05563   0.16000
   1         R1        -0.98800  -0.00000  -0.08778  -0.09647   0.00000
   2         R2        -0.05708  -0.00000  -0.07958  -0.01152  -0.00000
   3         R3         0.00431   0.00000   0.00199   0.00044  -0.00000
   4         R4         0.00000  -0.00000  -0.00003  -0.00000   0.00000
   5         R5         0.00000   0.00000  -0.00003  -0.00000   0.00000
   6         A1         0.06282   0.00000   0.02170  -0.25490  -0.27936
   7         A2         0.00753   0.00000   0.00175  -0.26289   0.09568
   8         A3         0.00753   0.00000   0.00175  -0.26289   0.19036
   9         A4        -0.02033  -0.00000  -0.01218   0.29672   0.01138
  10         A5        -0.02909  -0.00000  -0.00712   0.12697  -0.66922
  11         A6        -0.00587  -0.00000   0.00143   0.13072   0.65467
  12         A7        -0.09598  -0.00000   0.99223   0.02395   0.00000
  13         A8        -0.00000   1.00000  -0.00000   0.00000   0.00000
  14         D1        -0.07748  -0.00000  -0.02742   0.81581  -0.00000
                           6         7         8         9        10
     Eigenvalues --     0.16000   0.16002   0.16030   0.20979   0.36024
   1         R1        -0.00000  -0.01759   0.04533  -0.06670  -0.00476
   2         R2        -0.00000   0.00632   0.04288   0.99418   0.00348
   3         R3        -0.00000  -0.00003  -0.00038   0.00393  -0.99994
   4         R4         0.00000   0.00000   0.00001  -0.00008  -0.00611
   5         R5         0.00000   0.00000   0.00001  -0.00008  -0.00611
   6         A1         0.01875  -0.21697   0.74308  -0.02828  -0.00019
   7         A2        -0.71512  -0.05863  -0.39285   0.01484   0.00013
   8         A3         0.69592  -0.05863  -0.39285   0.01484   0.00013
   9         A4        -0.00076  -0.70619  -0.09470   0.00987   0.00011
  10         A5         0.04491   0.49411  -0.18027   0.00387  -0.00001
  11         A6        -0.04393   0.45039   0.30610  -0.01477  -0.00015
  12         A7        -0.00000  -0.00186  -0.01035   0.07464   0.00187
  13         A8        -0.00000  -0.00000  -0.00000  -0.00000  -0.00000
  14         D1         0.00000   0.00027  -0.00129   0.00286  -0.00001
                          11        12
     Eigenvalues --     0.36033   0.36033
   1         R1         0.00000   0.00005
   2         R2        -0.00000  -0.00014
   3         R3         0.00000   0.00864
   4         R4        -0.70711  -0.70708
   5         R5         0.70711  -0.70708
   6         A1         0.00000   0.00001
   7         A2        -0.00000  -0.00001
   8         A3        -0.00000  -0.00001
   9         A4        -0.00000  -0.00000
  10         A5        -0.00000  -0.00000
  11         A6         0.00000   0.00001
  12         A7        -0.00000  -0.00007
  13         A8        -0.00000  -0.00000
  14         D1        -0.00000  -0.00000
 RLam0= 3.84D-02.
 Iter=   1 RLamda= 0.00000000D+00 Sum=-5.38737734D-03.
 Iter=   2 RLamda=-5.38737734D-03 Sum=-4.48464315D-03.
 Iter=   3 RLamda=-4.48464315D-03 Sum=-4.60679254D-03.
 Iter=   4 RLamda=-4.60679254D-03 Sum=-4.58971884D-03.
 Iter=   5 RLamda=-4.58971884D-03 Sum=-4.59209473D-03.
 Iter=   6 RLamda=-4.59209473D-03 Sum=-4.59176390D-03.
 Iter=   7 RLamda=-4.59176390D-03 Sum=-4.59180996D-03.
 Iter=   8 RLamda=-4.59180996D-03 Sum=-4.59180355D-03.
 RFO step:  Lambda0=3.841489206D-02 Lambda=-4.59180996D-03.
 Linear search not attempted -- option 19 set.
 Maximum step size (   0.100) exceeded in Quadratic search.
    -- Step size scaled by   0.145
 Iteration  1 RMS(Cart)=  0.02635644 RMS(Int)=  0.00063734
 Iteration  2 RMS(Cart)=  0.00085011 RMS(Int)=  0.00000150
 Iteration  3 RMS(Cart)=  0.00000071 RMS(Int)=  0.00000135
 ITry= 1 IFail=0 DXMaxC= 5.76D-02 DCOld= 1.00D+10 DXMaxT= 1.00D-01 DXLimC= 3.00D+00 Rises=F
 ClnCor:  largest displacement from symmetrization is 3.55D-04 for atom     6.
 Variable       Old X    -DE/DX   Delta X   Delta X   Delta X     New X
                                 (Linear)    (Quad)   (Total)
    R1        2.27909  -0.06476   0.00000   0.07938   0.07938   2.35847
    R2        3.12104  -0.02215   0.00000  -0.01136  -0.01136   3.10968
    R3        2.04211   0.00204   0.00000   0.00041   0.00041   2.04252
    R4        2.04027   0.00262   0.00000   0.00104   0.00114   2.04141
    R5        2.04027   0.00262   0.00000   0.00104   0.00114   2.04141
    A1        1.79625   0.00180   0.00000  -0.00645  -0.00645   1.78980
    A2        1.78980   0.00217   0.00000   0.00098   0.00095   1.79075
    A3        1.78980   0.00217   0.00000   0.00098   0.00095   1.79075
    A4        2.01199   0.00011   0.00000   0.00245   0.00225   2.01424
    A5        2.01199  -0.00216   0.00000   0.00192   0.00225   2.01424
    A6        2.01466  -0.00232   0.00000  -0.00119  -0.00128   2.01338
    A7        3.10687   0.00048   0.00000   0.05926   0.05926   3.16613
    A8        3.14159  -0.00000   0.00000   0.00000   0.00000   3.14159
    D1        2.41503  -0.00540   0.00000   0.00500   0.00498   2.42001
         Item               Value     Threshold  Converged?
 Maximum Force            0.064761     0.000450     NO 
 RMS     Force            0.018429     0.000300     NO 
 Maximum Displacement     0.057553     0.001800     NO 
 RMS     Displacement     0.026603     0.001200     NO 
 Predicted change in Energy= 4.666762D-03
 Lowest energy point so far.  Saving SCF results.
 Largest change from initial coordinates is atom    2       0.015 Angstoms.
 GradGradGradGradGradGradGradGradGradGradGradGradGradGradGradGradGradGrad

 Leave Link  103 at Wed Oct 21 14:22:49 2020, MaxMem=  2684354560 cpu:               8.2 elap:               1.9
 (Enter /udrive/faculty/rpeverati/g16/g16/l202.exe)
                          Input orientation:                          
 ---------------------------------------------------------------------
 Center     Atomic      Atomic             Coordinates (Angstroms)
 Number     Number       Type             X           Y           Z
 ---------------------------------------------------------------------
      1          1           0       -0.008617    1.995684   -0.000000
      2          9           0        0.012605    0.747815   -0.000000
      3          6           0        0.000208   -0.897709    0.000000
      4          1           0        1.053445   -1.140473    0.000000
      5          1           0       -0.528849   -1.129431    0.912899
      6          1           0       -0.528849   -1.129431   -0.912899
 ---------------------------------------------------------------------
                    Distance matrix (angstroms):
                    1          2          3          4          5
     1  H    0.000000
     2  F    1.248049   0.000000
     3  C    2.893406   1.645570   0.000000
     4  H    3.311110   2.156149   1.080853   0.000000
     5  H    3.297024   2.156527   1.080269   1.826790   0.000000
     6  H    3.297024   2.156527   1.080269   1.826790   1.825798
                    6
     6  H    0.000000
 Stoichiometry    CH4F(2)
 Framework group  CS[SG(CH2F),X(H2)]
 Deg. of freedom     8
 Full point group                 CS      NOp   2
 RotChk:  IX=0 Diff= 2.34D-02
 Largest Abelian subgroup         CS      NOp   2
 Largest concise Abelian subgroup CS      NOp   2
                         Standard orientation:                         
 ---------------------------------------------------------------------
 Center     Atomic      Atomic             Coordinates (Angstroms)
 Number     Number       Type             X           Y           Z
 ---------------------------------------------------------------------
      1          1           0       -0.029035    1.998657    0.000000
      2          9           0        0.001588    0.750983    0.000000
      3          6           0        0.001588   -0.894587    0.000000
      4          1           0        1.056625   -1.129409    0.000000
      5          1           0       -0.525708   -1.130288    0.912899
      6          1           0       -0.525708   -1.130288   -0.912899
 ---------------------------------------------------------------------
 Rotational constants (GHZ):         150.2832217          16.9846790          16.9828413
 Leave Link  202 at Wed Oct 21 14:22:50 2020, MaxMem=  2684354560 cpu:               3.1 elap:               1.3
 (Enter /udrive/faculty/rpeverati/g16/g16/l301.exe)
 Standard basis: VSTO-6G (5D, 7F)
 Ernie: Thresh=  0.10000D-02 Tol=  0.10000D-05 Strict=F.
  NNHCO=     0 NNPyr=     0 NCTC=     0               EPep=         0.000000000
    EC=        19.668734546  ECS=         0.510834063   EG=         0.146173287
   EHC=         0.000000000  EAt=       -22.087827183  AtH=         0.634552969
 EPDDG=         0.000000000  ECC=        20.325741896 EAtT=        22.722380152
 There are     9 symmetry adapted cartesian basis functions of A'  symmetry.
 There are     3 symmetry adapted cartesian basis functions of A"  symmetry.
 There are     9 symmetry adapted basis functions of A'  symmetry.
 There are     3 symmetry adapted basis functions of A"  symmetry.
    12 basis functions,    72 primitive gaussians,    12 cartesian basis functions
     8 alpha electrons        7 beta electrons
       nuclear repulsion energy        43.0481220477 Hartrees.
 IExCor=    0 DFT=F Ex=HF Corr=None ExCW=0 ScaHFX=  1.000000
 ScaDFX=  1.000000  1.000000  1.000000  1.000000 ScalE2=  1.000000  1.000000
 IRadAn=      5 IRanWt=     -1 IRanGd=            0 ICorTp=0 IEmpDi=  4
 Integral buffers will be    131072 words long.
 Regular integral format.
 Two-electron integral symmetry is turned off.
 Leave Link  301 at Wed Oct 21 14:22:53 2020, MaxMem=  2684354560 cpu:               5.7 elap:               1.5
 (Enter /udrive/faculty/rpeverati/g16/g16/l302.exe)
 Do NDO integrals.
 NPDir=0 NMtPBC=     1 NCelOv=     1 NCel=       1 NClECP=     1 NCelD=      1
         NCelK=      1 NCelE2=     1 NClLst=     1 CellRange=     0.0.
 One-electron integrals computed using PRISM.
 NBasis=    12 RedAO= T EigKep=  1.00D+00  NBF=     9     3
 NBsUse=    12 1.00D-06 EigRej= -1.00D+00 NBFU=     9     3
 Leave Link  302 at Wed Oct 21 14:22:55 2020, MaxMem=  2684354560 cpu:               3.3 elap:               1.4
 (Enter /udrive/faculty/rpeverati/g16/g16/l303.exe)
 DipDrv:  MaxL=1.
 Leave Link  303 at Wed Oct 21 14:22:56 2020, MaxMem=  2684354560 cpu:               3.3 elap:               1.0
 (Enter /udrive/faculty/rpeverati/g16/g16/l401.exe)
 Initial guess from the checkpoint file:  "MN_53_hfch3ts_BH76_PM3_SE.chk"
 SCF N**3 symmetry information disabled.
 B after Tr=     0.000000    0.000000    0.000000
         Rot=    0.999992    0.000000   -0.000000   -0.003953 Ang=  -0.45 deg.
 Guess basis will be translated and rotated to current coordinates.
 JPrj=0 DoOrth=T DoCkMO=T.
 Initial guess orbital symmetries:
 Alpha Orbitals:
       Occupied  (A') (A') (A') (A") (A') (A") (A') (A')
       Virtual   (A') (A') (A') (A")
 Beta  Orbitals:
       Occupied  (A') (A') (A') (A") (A') (A") (A')
       Virtual   (A') (A') (A') (A') (A")
 The electronic state of the initial guess is 2-A'.
 Initial guess <Sx>= 0.0000 <Sy>= 0.0000 <Sz>= 0.5000 <S**2>= 0.7844 S= 0.5171
 Leave Link  401 at Wed Oct 21 14:22:58 2020, MaxMem=  2684354560 cpu:               4.7 elap:               1.4
 (Enter /udrive/faculty/rpeverati/g16/g16/l502.exe)
 Keep J ints in memory in canonical form, NReq=859461.
 FoFCou: FMM=F IPFlag=           0 FMFlag=           0 FMFlg1=           0
         NFxFlg=           0 DoJE=F BraDBF=F KetDBF=F FulRan=T
         wScrn=  0.000000 ICntrl=       600 IOpCl=  2 I1Cent=           0 NGrid=           0
         NMat0=    1 NMatS0=     24 NMatT0=    0 NMatD0=    1 NMtDS0=    0 NMtDT0=    0
 Symmetry not used in FoFCou.
 Two-electron integral symmetry not used.
 UHF open shell SCF:
 Using DIIS extrapolation, IDIIS=  1040.
 Overlap will be assumed to be unity.
 NGot=  2684354560 LenX=  2684293796 LenY=  2684292914
 Requested convergence on RMS density matrix=1.00D-08 within 120 cycles.
 Requested convergence on MAX density matrix=1.00D-06.
 Requested convergence on             energy=1.00D-06.
 No special actions if energy rises.

 Cycle   1  Pass 1  IDiag  1:
 E= 0.388683994735928E-01
 DIIS: error= 3.75D-03 at cycle   1 NSaved=   1.
 NSaved= 1 IEnMin= 1 EnMin= 0.388683994735928E-01 IErMin= 1 ErrMin= 3.75D-03
 ErrMax= 3.75D-03  0.00D+00 EMaxC= 1.00D-01 BMatC= 4.01D-04 BMatP= 4.01D-04
 IDIUse=3 WtCom= 9.63D-01 WtEn= 3.75D-02
 Coeff-Com:  0.100D+01
 Coeff-En:   0.100D+01
 Coeff:      0.100D+01
 GapD=    2.000 DampG=2.000 DampE=1.000 DampFc=2.0000 IDamp=-1.
 RMSDP=2.04D-03 MaxDP=1.01D-02              OVMax= 0.00D+00

 Cycle   2  Pass 1  IDiag  3:
 E= 0.383213713626134E-01 Delta-E=       -0.000547028111 Rises=F Damp=F
 DIIS: error= 1.95D-03 at cycle   2 NSaved=   2.
 NSaved= 2 IEnMin= 2 EnMin= 0.383213713626134E-01 IErMin= 2 ErrMin= 1.95D-03
 ErrMax= 1.95D-03  0.00D+00 EMaxC= 1.00D-01 BMatC= 1.73D-04 BMatP= 4.01D-04
 IDIUse=3 WtCom= 9.80D-01 WtEn= 1.95D-02
 Coeff-Com: -0.113D+01 0.213D+01
 Coeff-En:   0.000D+00 0.100D+01
 Coeff:     -0.111D+01 0.211D+01
 Gap=     0.377 Goal=   None    Shift=    0.000
 Gap=     0.513 Goal=   None    Shift=    0.000
 RMSDP=3.16D-03 MaxDP=2.05D-02 DE=-5.47D-04 OVMax= 3.02D-02

 Cycle   3  Pass 1  IDiag  3:
 E= 0.378300416855097E-01 Delta-E=       -0.000491329677 Rises=F Damp=F
 DIIS: error= 9.74D-04 at cycle   3 NSaved=   3.
 NSaved= 3 IEnMin= 3 EnMin= 0.378300416855097E-01 IErMin= 3 ErrMin= 9.74D-04
 ErrMax= 9.74D-04  0.00D+00 EMaxC= 1.00D-01 BMatC= 4.39D-05 BMatP= 1.73D-04
 IDIUse=3 WtCom= 9.90D-01 WtEn= 9.74D-03
 Coeff-Com:  0.806D+00-0.192D+01 0.212D+01
 Coeff-En:   0.000D+00 0.000D+00 0.100D+01
 Coeff:      0.798D+00-0.190D+01 0.211D+01
 Gap=     0.379 Goal=   None    Shift=    0.000
 Gap=     0.516 Goal=   None    Shift=    0.000
 RMSDP=2.37D-03 MaxDP=1.71D-02 DE=-4.91D-04 OVMax= 2.51D-02

 Cycle   4  Pass 1  IDiag  3:
 E= 0.376473185018824E-01 Delta-E=       -0.000182723184 Rises=F Damp=F
[...]
     13  0.000000D+00  0.000000D+00  0.000000D+00  0.171634D-04 -0.171634D-04
     14 -0.623299D-02 -0.587857D-02  0.112323D-01  0.112317D-01  0.520772D-02
                6             7             8             9            10 
      6  0.723361D-01
      7 -0.260578D-01  0.723403D-01
      8 -0.274096D-01 -0.274138D-01  0.696366D-01
      9  0.907229D-02  0.906830D-02 -0.982506D-03  0.476417D-01
     10 -0.715851D-02 -0.196091D-01 -0.645924D-02 -0.318675D-01  0.861920D-01
     11 -0.196139D-01 -0.716206D-02 -0.645628D-02 -0.318698D-01 -0.231494D-01
     12  0.155788D-02 -0.791507D-03 -0.791507D-03 -0.491758D-04 -0.553748D-04
     13 -0.579857D-05  0.668797D-03 -0.680394D-03 -0.431126D-04  0.564059D-04
     14 -0.765217D-02 -0.765629D-02 -0.106214D-01  0.154586D-01  0.443503D-02
               11            12            13            14 
     11  0.861921D-01
     12  0.128156D-03  0.126845D-01
     13  0.302743D-05  0.000000D+00  0.316824D-02
     14  0.443352D-02 -0.108930D-04 -0.127186D-04  0.264102D-01
 Leave Link  716 at Wed Oct 21 14:28:27 2020, MaxMem=  2684354560 cpu:               5.9 elap:               1.5
 (Enter /udrive/faculty/rpeverati/g16/g16/l103.exe)

 GradGradGradGradGradGradGradGradGradGradGradGradGradGradGradGradGradGrad
 Berny optimization.
 Optmz: redundant internal coordinate code flag= 1
 Red2BG:  D1=  2.86D-01 OD1=  1.93D-14 B2RMS=  0.00D+00 IAprox=1
 Red2BG is reusing G-inverse.
 Internal  Forces:  Max     0.000086217 RMS     0.000024213
 Search for a local minimum.
 Step number   1 out of a maximum of    2
 All quantities printed in internal units (Hartrees-Bohrs-Radians)
 Second derivative matrix not updated -- analytic derivatives used.
 The second derivative matrix:
                          R1        R2        R3        R4        R5
           R1           0.12144
           R2           0.22949   0.09338
           R3          -0.00178   0.00229   0.34493
           R4          -0.00178   0.00229   0.01288   0.34493
           R5          -0.00178   0.00229   0.01288   0.01288   0.34493
           A1           0.00294   0.00280  -0.00505  -0.00264  -0.00539
           A2           0.00295   0.00277  -0.00264  -0.00505  -0.00539
           A3           0.00295   0.00277  -0.00264  -0.00264  -0.00780
           A4          -0.00040  -0.00038   0.00740   0.00740  -0.01302
           A5          -0.00395  -0.00372   0.01379  -0.01149   0.01522
           A6          -0.00395  -0.00372  -0.01149   0.01379   0.01523
           A7          -0.00004  -0.00001   0.00004  -0.00002  -0.00002
           A8           0.00000  -0.00000   0.00000   0.00002  -0.00002
           D1          -0.00623  -0.00588   0.01123   0.01123   0.00521
                          A1        A2        A3        A4        A5
           A1           0.07234
           A2          -0.02606   0.07234
           A3          -0.02741  -0.02741   0.06964
           A4           0.00907   0.00907  -0.00098   0.04764
           A5          -0.00716  -0.01961  -0.00646  -0.03187   0.08619
           A6          -0.01961  -0.00716  -0.00646  -0.03187  -0.02315
           A7           0.00156  -0.00079  -0.00079  -0.00005  -0.00006
           A8          -0.00001   0.00067  -0.00068  -0.00004   0.00006
           D1          -0.00765  -0.00766  -0.01062   0.01546   0.00444
                          A6        A7        A8        D1
           A6           0.08619
           A7           0.00013   0.01268
           A8           0.00000   0.00000   0.00317
           D1           0.00443  -0.00001  -0.00001   0.02641
 ITU=  0
 Eigenvectors of the second derivative matrix:
                           1         2         3         4         5
     Eigenvalues --    -0.12256   0.00316   0.01264   0.04333   0.08920
   1         R1        -0.68512  -0.00000   0.00004   0.02923   0.00019
   2         R2         0.72836  -0.00000  -0.00020   0.02473   0.00005
   3         R3        -0.00590   0.00000   0.00059  -0.04604  -0.04870
   4         R4        -0.00589   0.00022  -0.00028  -0.04604   0.04882
   5         R5        -0.00591  -0.00021  -0.00028  -0.01855  -0.00058
   6         A1        -0.00054   0.00001   0.01889  -0.27329  -0.56896
   7         A2        -0.00040   0.00728  -0.00936  -0.27328   0.57288
   8         A3        -0.00042  -0.00726  -0.00937  -0.20269  -0.00660
   9         A4         0.00021  -0.00143  -0.00204   0.43914  -0.00275
  10         A5         0.00053   0.00140  -0.00194   0.13190   0.41671
  11         A6         0.00053  -0.00001   0.00382   0.13191  -0.41144
  12         A7        -0.00018  -0.00000  -0.99972  -0.00232  -0.01847
  13         A8        -0.00000  -0.99994   0.00000  -0.00161   0.00481
  14         D1         0.00104  -0.00084  -0.00127   0.75885   0.00026
                           6         7         8         9        10
     Eigenvalues --     0.09003   0.11440   0.11573   0.33450   0.33489
   1         R1         0.01490   0.01874  -0.00013   0.10199   0.00031
   2         R2         0.01299   0.01638  -0.00003   0.09561   0.00029
   3         R3         0.00759   0.00914  -0.06176  -0.41299  -0.70365
   4         R4         0.00673   0.00971   0.06168  -0.41614   0.70178
   5         R5        -0.07041  -0.08852   0.00039   0.79168   0.00175
   6         A1         0.22430  -0.36287   0.41860  -0.00653   0.00300
   7         A2         0.21494  -0.36655  -0.41520  -0.00652  -0.00302
   8         A3        -0.76483   0.36016  -0.00178  -0.01268  -0.00003
   9         A4        -0.33077  -0.49263   0.00219  -0.06956  -0.00016
  10         A5         0.31448   0.42217   0.56591   0.04702  -0.07850
  11         A6         0.32174   0.41687  -0.56958   0.04667   0.07871
  12         A7         0.01067  -0.00496   0.00848  -0.00005  -0.00007
  13         A8         0.00802  -0.00395  -0.00220  -0.00003   0.00002
  14         D1         0.03292  -0.02954   0.00017  -0.02211  -0.00006
                          11        12
     Eigenvalues --     0.33805   0.37283
   1         R1         0.71998  -0.02049
   2         R2         0.67770  -0.00547
   3         R3         0.07079   0.56641
   4         R4         0.07063   0.56644
   5         R5        -0.09640   0.59226
   6         A1         0.01580  -0.02568
   7         A2         0.01578  -0.02567
   8         A3         0.01540  -0.02400
   9         A4         0.01177  -0.00430
  10         A5        -0.02791   0.03749
  11         A6        -0.02793   0.03751
  12         A7        -0.00010   0.00001
  13         A8         0.00000   0.00000
  14         D1        -0.02521   0.04873
 Eigenvalue     1 is  -1.23D-01 should be greater than     0.000000 Eigenvector:
                          R2        R1        R5        R3        R4
   1                    0.72836  -0.68512  -0.00591  -0.00590  -0.00589
                          D1        A1        A6        A5        A3
   1                    0.00104  -0.00054   0.00053   0.00053  -0.00042
 Angle between quadratic step and forces=  60.33 degrees.
 Linear search not attempted -- first point.
 Iteration  1 RMS(Cart)=  0.00059454 RMS(Int)=  0.00000051
 Iteration  2 RMS(Cart)=  0.00000053 RMS(Int)=  0.00000000
 ITry= 1 IFail=0 DXMaxC= 1.42D-03 DCOld= 1.00D+10 DXMaxT= 3.00D-01 DXLimC= 3.00D+00 Rises=F
 ClnCor:  largest displacement from symmetrization is 2.26D-07 for atom     6.
 Variable       Old X    -DE/DX   Delta X   Delta X   Delta X     New X
                                 (Linear)    (Quad)   (Total)
    R1        2.00082   0.00000   0.00000  -0.00022  -0.00022   2.00060
    R2        2.75723   0.00009   0.00000   0.00048   0.00048   2.75771
    R3        2.05803  -0.00001   0.00000  -0.00001  -0.00001   2.05802
    R4        2.05803  -0.00001   0.00000  -0.00001  -0.00001   2.05802
    R5        2.05803  -0.00001   0.00000  -0.00001  -0.00001   2.05802
    A1        1.88241   0.00001   0.00000   0.00012   0.00012   1.88253
    A2        1.88252   0.00000   0.00000   0.00001   0.00001   1.88253
    A3        1.88252   0.00000   0.00000   0.00001   0.00001   1.88253
    A4        1.93793  -0.00000   0.00000  -0.00005  -0.00005   1.93788
    A5        1.93793  -0.00000   0.00000  -0.00005  -0.00005   1.93788
    A6        1.93791  -0.00000   0.00000  -0.00003  -0.00003   1.93788
    A7        3.14342  -0.00002   0.00000  -0.00183  -0.00183   3.14159
    A8        3.14159   0.00000   0.00000  -0.00000   0.00000   3.14159
    D1        2.16507  -0.00001   0.00000  -0.00012  -0.00012   2.16495
         Item               Value     Threshold  Converged?
 Maximum Force            0.000086     0.000450     YES
 RMS     Force            0.000024     0.000300     YES
 Maximum Displacement     0.001421     0.001800     YES
 RMS     Displacement     0.000594     0.001200     YES
 Predicted change in Energy=-7.383127D-08
 Optimization completed.
    -- Stationary point found.
                           ----------------------------
                           !   Optimized Parameters   !
                           ! (Angstroms and Degrees)  !
 --------------------------                            --------------------------
 ! Name  Definition              Value          Derivative Info.                !
 --------------------------------------------------------------------------------
 ! R1    R(1,2)                  1.0588         -DE/DX =    0.0                 !
 ! R2    R(2,3)                  1.4591         -DE/DX =    0.0001              !
 ! R3    R(3,4)                  1.0891         -DE/DX =    0.0                 !
 ! R4    R(3,5)                  1.0891         -DE/DX =    0.0                 !
 ! R5    R(3,6)                  1.0891         -DE/DX =    0.0                 !
 ! A1    A(2,3,4)              107.854          -DE/DX =    0.0                 !
 ! A2    A(2,3,5)              107.8604         -DE/DX =    0.0                 !
 ! A3    A(2,3,6)              107.8604         -DE/DX =    0.0                 !
 ! A4    A(4,3,5)              111.0353         -DE/DX =    0.0                 !
 ! A5    A(4,3,6)              111.0353         -DE/DX =    0.0                 !
 ! A6    A(5,3,6)              111.034          -DE/DX =    0.0                 !
 ! A7    L(1,2,3,4,-1)         180.1047         -DE/DX =    0.0                 !
 ! A8    L(1,2,3,4,-2)         180.0            -DE/DX =    0.0                 !
 ! D1    D(4,3,6,5)            124.0496         -DE/DX =    0.0                 !
 --------------------------------------------------------------------------------
 GradGradGradGradGradGradGradGradGradGradGradGradGradGradGradGradGradGrad

 Leave Link  103 at Wed Oct 21 14:28:29 2020, MaxMem=  2684354560 cpu:               8.4 elap:               1.9
 (Enter /udrive/faculty/rpeverati/g16/g16/l9999.exe)

 ----------------------------------------------------------------------

 Electric dipole moment (input orientation):
 (Debye = 10**-18 statcoulomb cm , SI units = C m)
                  (au)            (Debye)         (10**-30 SI)
   Tot        0.229405D+00      0.583089D+00      0.194498D+01
   x         -0.620383D-03     -0.157686D-02     -0.525983D-02
   y         -0.229404D+00     -0.583087D+00     -0.194497D+01
   z          0.000000D+00      0.000000D+00      0.000000D+00

 Dipole polarizability, Alpha (input orientation).
 (esu units = cm**3 , SI units = C**2 m**2 J**-1)
 Alpha(0;0):
               (au)            (10**-24 esu)      (10**-40 SI)
   iso        0.193428D+02      0.286631D+01      0.318920D+01
   aniso      0.343737D+02      0.509365D+01      0.566745D+01
   xx         0.788524D+01      0.116847D+01      0.130010D+01
   yx         0.336340D-01      0.498404D-02      0.554549D-02
   yy         0.422586D+02      0.626207D+01      0.696750D+01
   zx         0.000000D+00      0.000000D+00      0.000000D+00
   zy         0.000000D+00      0.000000D+00      0.000000D+00
   zz         0.788462D+01      0.116838D+01      0.130000D+01

 First dipole hyperpolarizability, Beta (input orientation).
 ||, _|_  parallel and perpendicular components, (z) with respect to z axis,
 vector components x,y,z.  Values do not include the 1/n! factor of 1/2.
 (esu units = statvolt**-1 cm**4 , SI units = C**3 m**3 J**-2)
 Beta(0;0,0):
               (au)            (10**-30 esu)      (10**-50 SI)
   || (z)     0.000000D+00      0.000000D+00      0.000000D+00
   _|_(z)     0.000000D+00      0.000000D+00      0.000000D+00
   x         -0.724372D+00     -0.625801D-02     -0.232260D-02
   y         -0.131368D+04     -0.113491D+02     -0.421212D+01
   z          0.000000D+00      0.000000D+00      0.000000D+00
   ||         0.262735D+03      0.226983D+01      0.842424D+00
   xxx        0.173572D+02      0.149952D+00      0.556533D-01
   xxy       -0.286580D+02     -0.247583D+00     -0.918880D-01
   yxy       -0.957473D-01     -0.827182D-03     -0.307001D-03
   yyy       -0.380640D+03     -0.328844D+01     -0.122047D+01
   xxz        0.000000D+00      0.000000D+00      0.000000D+00
   yxz        0.000000D+00      0.000000D+00      0.000000D+00
   yyz        0.000000D+00      0.000000D+00      0.000000D+00
   zxz       -0.175029D+02     -0.151211D+00     -0.561205D-01
   zyz       -0.285935D+02     -0.247026D+00     -0.916811D-01
   zzz        0.000000D+00      0.000000D+00      0.000000D+00

 ----------------------------------------------------------------------

 Dipole orientation:
     1         -0.00561945          0.00001520         -3.33195658
     9         -0.00030164          0.00000082         -1.33114258
     6          0.00198681         -0.00000537          1.42608296
     1          1.96142059         -0.00530431          2.05543546
     1         -0.97230294          1.69906122          2.05809218
     1         -0.98147827         -1.69377756          2.05809218

 Electric dipole moment (dipole orientation):
 (Debye = 10**-18 statcoulomb cm , SI units = C m)
                  (au)            (Debye)         (10**-30 SI)
   Tot        0.229405D+00      0.583089D+00      0.194498D+01
   x          0.000000D+00      0.000000D+00      0.000000D+00
   y          0.000000D+00      0.000000D+00      0.000000D+00
   z          0.229405D+00      0.583089D+00      0.194498D+01

 Dipole polarizability, Alpha (dipole orientation).
 (esu units = cm**3 , SI units = C**2 m**2 J**-1)
 Alpha(0;0):
               (au)            (10**-24 esu)      (10**-40 SI)
   iso        0.193428D+02      0.286631D+01      0.318920D+01
   aniso      0.343737D+02      0.509365D+01      0.566745D+01
   xx         0.788531D+01      0.116848D+01      0.130011D+01
   yx         0.000000D+00      0.000000D+00      0.000000D+00
   yy         0.788462D+01      0.116838D+01      0.130000D+01
   zx         0.593222D-01      0.879064D-02      0.978091D-02
   zy        -0.160426D-03     -0.237727D-04     -0.264507D-04
   zz         0.422585D+02      0.626206D+01      0.696748D+01

 First dipole hyperpolarizability, Beta (dipole orientation).
 ||, _|_  parallel and perpendicular components, (z) with respect to z axis,
 vector components x,y,z.  Values do not include the 1/n! factor of 1/2.
 (esu units = statvolt**-1 cm**4 , SI units = C**3 m**3 J**-2)
 Beta(0;0,0):
               (au)            (10**-30 esu)      (10**-50 SI)
   || (z)     0.262735D+03      0.226982D+01      0.842422D+00
   _|_(z)     0.875782D+02      0.756608D+00      0.280807D+00
   x          0.282821D+01      0.244335D-01      0.906827D-02
   y         -0.764840D-02     -0.660762D-04     -0.245235D-04
   z          0.131367D+04      0.113491D+02      0.421211D+01
   ||         0.262735D+03      0.226983D+01      0.842424D+00
   xxx        0.175889D+02      0.151954D+00      0.563963D-01
   xxy       -0.141814D+00     -0.122516D-02     -0.454707D-03
   yxy       -0.174249D+02     -0.150538D+00     -0.558705D-01
   yyy        0.141370D+00      0.122133D-02      0.453285D-03
   xxz        0.286126D+02      0.247191D+00      0.917424D-01
   yxz        0.760803D-04      0.657274D-06      0.243941D-06
   yyz        0.286407D+02      0.247434D+00      0.918326D-01
   zxz        0.778744D+00      0.672774D-02      0.249693D-02
   zyz       -0.210597D-02     -0.181940D-04     -0.675252D-05
   zzz        0.380638D+03      0.328841D+01      0.122046D+01

 ----------------------------------------------------------------------

 Test job not archived.
 1\1\GINC-NODE56\Freq\UPM3\ZDO\C1H4F1(2)\RPEVERATI\21-Oct-2020\0\\#P Fr
 eq PM3 5D 7F Integral=UltraFineGrid SCF=(NoSymm,XQC,MaxCyc=120) IOp(1/
 33=1) Geom=Check Guess=Read\\TS search on BH76.\\0,2\H,0.0017945481,1.
 7631970821,0.\F,0.0017453248,0.7044081719,0.\C,-0.000989435,-0.7546506
 887,0.\H,1.0349976253,-1.0904925508,0.\H,-0.5198935027,-1.087693502,0.
 8977097649\H,-0.5198935027,-1.087693502,-0.8977097649\\Version=ES64L-G
 16RevA.03\State=2-A'\HF=0.0135016\S2=0.76227\S2-1=0.\S2A=0.750061\RMSD
 =5.876e-10\RMSF=2.753e-05\ZeroPoint=0.0399559\Thermal=0.0437763\Dipole
 =-0.0006204,-0.2294042,0.\DipoleDeriv=0.0530737,0.0000337,0.,-0.002328
 2,-2.0739594,0.,0.,0.,0.0530918,-0.1557402,0.0036249,0.,0.0040785,3.96
 9968,0.,0.,0.,-0.1558239,0.0759504,-0.0032314,0.,-0.0015484,-1.6863597
 ,0.,0.,0.,0.0760137,0.0124272,-0.0604422,0.,0.0120482,-0.0697765,0.,0.
 ,0.,0.005347,0.007149,0.0300026,-0.0030636,-0.0061251,-0.0699394,0.010
 4734,-0.0031485,-0.0521935,0.0106865,0.007149,0.0300026,0.0030636,-0.0
 061251,-0.0699394,-0.0104734,0.0031485,0.0521935,0.0106865\Polar=7.885
 2417,0.033634,42.2585634,0.,0.,7.884623\HyperPolar=17.3571501,-28.6580
 142,-0.0957473,-380.6404812,0.,0.,0.,-17.5028599,-28.5935122,0.\PG=CS 
 [SG(C1H2F1),X(H2)]\NImag=1\\0.00316771,0.00003133,0.12143706,0.,0.,0.0
 0316834,-0.00504129,0.00038947,0.,0.02734726,-0.00001328,0.10805414,0.
 ,-0.00028437,-0.24416659,0.,0.,-0.00504340,0.,0.,0.02735668,0.00178932
 ,-0.00039892,0.,-0.03594544,0.00033607,0.,0.53291801,-0.00001288,-0.21
 603070,0.,-0.00005555,0.13899865,0.,-0.00051553,0.25488896,0.,0.,0.001
 79134,0.,0.,-0.03595255,0.,0.,0.53291443,0.00010135,-0.00332594,0.,0.0
 0568662,0.00395186,0.,-0.29062986,0.07486612,0.,0.32261000,0.00037958,
 -0.00447547,0.,0.01457967,-0.00101197,0.,0.07668867,-0.05954564,0.,-0.
 08128770,0.05578803,0.,0.,-0.00004595,0.,0.,0.00343608,0.,0.,-0.041604
 95,0.,0.,0.04026949,-0.00000875,0.00165153,-0.00006325,0.00397650,-0.0
 0199358,-0.00093920,-0.10406609,-0.03714207,0.10806764,-0.01888402,-0.
 00518009,0.02383277,0.11107494,-0.00019238,-0.00449314,0.00032948,-0.0
 0731462,-0.00093706,0.01264835,-0.03805514,-0.05915512,0.06585461,0.00
 289764,0.00462254,-0.00442542,0.04030327,0.05535387,-0.00006421,-0.002
 87391,0.00006473,-0.00096012,0.00343674,0.00510191,0.10806404,0.064278
 33,-0.22857418,0.00708147,0.00026912,-0.00102739,-0.12250955,-0.069758
 83,0.25224367,-0.00000875,0.00165153,0.00006325,0.00397650,-0.00199358
 ,0.00093920,-0.10406609,-0.03714207,-0.10806764,-0.01888402,-0.0051800
 9,-0.02383277,0.00790758,0.00236113,0.00838844,0.11107494,-0.00019238,
 -0.00449314,-0.00032948,-0.00731462,-0.00093706,-0.01264835,-0.0380551
 4,-0.05915512,-0.06585461,0.00289764,0.00462254,0.00442542,0.00236113,
 0.00460894,0.00464822,0.04030327,0.05535387,0.00006421,0.00287391,0.00
 006473,0.00096012,-0.00343674,0.00510191,-0.10806404,-0.06427833,-0.22
 857418,-0.00708147,-0.00026912,-0.00102739,-0.00838844,-0.00464822,-0.
 02780884,0.12250955,0.06975883,0.25224367\\-0.00001150,-0.00000185,0.,
 0.00002198,-0.00008438,0.,-0.00001112,0.00007461,0.,0.00000796,0.00000
 588,0.,-0.00000366,0.00000287,0.00000577,-0.00000366,0.00000287,-0.000
 00577\\\@


 IN SO FAR AS QUANTUM MECHANICS IS CORRECT, CHEMICAL 
 QUESTIONS ARE PROBLEMS IN APPLIED MATHEMATICS.

                    -- EYRING, WALTER, & KIMBALL, 1944
 Job cpu time:       0 days  0 hours  2 minutes 34.1 seconds.
 Elapsed time:       0 days  0 hours  0 minutes 33.5 seconds.
 File lengths (MBytes):  RWF=      5 Int=      0 D2E=      0 Chk=      2 Scr=      1
 Normal termination of Gaussian 16 at Wed Oct 21 14:28:32 2020.
