 Entering Gaussian System, Link 0=g16
 Input=MN_78_RKT01_BH76_PM3_SE.in
 Output=MN_78_RKT01_BH76_PM3_SE.log
 Initial command:
 /udrive/faculty/rpeverati/g16/g16/l1.exe "/udrive/scratch-directories/gaussian09/rpeverati/Gau-38043.inp" -scrdir="/udrive/scratch-directories/gaussian09/rpeverati/"
 Entering Link 1 = /udrive/faculty/rpeverati/g16/g16/l1.exe PID=     38044.
  
 Copyright (c) 1988,1990,1992,1993,1995,1998,2003,2009,2016,
            Gaussian, Inc.  All Rights Reserved.
  
 This is part of the Gaussian(R) 16 program.  It is based on
 the Gaussian(R) 09 system (copyright 2009, Gaussian, Inc.),
 the Gaussian(R) 03 system (copyright 2003, Gaussian, Inc.),
 the Gaussian(R) 98 system (copyright 1998, Gaussian, Inc.),
 the Gaussian(R) 94 system (copyright 1995, Gaussian, Inc.),
 the Gaussian 92(TM) system (copyright 1992, Gaussian, Inc.),
 the Gaussian 90(TM) system (copyright 1990, Gaussian, Inc.),
 the Gaussian 88(TM) system (copyright 1988, Gaussian, Inc.),
 the Gaussian 86(TM) system (copyright 1986, Carnegie Mellon
 University), and the Gaussian 82(TM) system (copyright 1983,
 Carnegie Mellon University). Gaussian is a federally registered
 trademark of Gaussian, Inc.
  
 This software contains proprietary and confidential information,
 including trade secrets, belonging to Gaussian, Inc.
  
 This software is provided under written license and may be
 used, copied, transmitted, or stored only in accord with that
 written license.
  
 The following legend is applicable only to US Government
 contracts under FAR:
  
                    RESTRICTED RIGHTS LEGEND
  
 Use, reproduction and disclosure by the US Government is
 subject to restrictions as set forth in subparagraphs (a)
 and (c) of the Commercial Computer Software - Restricted
 Rights clause in FAR 52.227-19.
  
 Gaussian, Inc.
 340 Quinnipiac St., Bldg. 40, Wallingford CT 06492
  
  
 ---------------------------------------------------------------
 Warning -- This program may not be used in any manner that
 competes with the business of Gaussian, Inc. or will provide
 assistance to any competitor of Gaussian, Inc.  The licensee
 of this program is prohibited from giving any competitor of
 Gaussian, Inc. access to this program.  By using this program,
 the user acknowledges that Gaussian, Inc. is engaged in the
 business of creating and licensing software in the field of
 computational chemistry and represents and warrants to the
 licensee that it is not a competitor of Gaussian, Inc. and that
 it will not use this program in any manner prohibited above.
 ---------------------------------------------------------------
  

 Cite this work as:
 Gaussian 16, Revision A.03,
 M. J. Frisch, G. W. Trucks, H. B. Schlegel, G. E. Scuseria, 
 M. A. Robb, J. R. Cheeseman, G. Scalmani, V. Barone, 
 G. A. Petersson, H. Nakatsuji, X. Li, M. Caricato, A. V. Marenich, 
 J. Bloino, B. G. Janesko, R. Gomperts, B. Mennucci, H. P. Hratchian, 
 J. V. Ortiz, A. F. Izmaylov, J. L. Sonnenberg, D. Williams-Young, 
 F. Ding, F. Lipparini, F. Egidi, J. Goings, B. Peng, A. Petrone, 
 T. Henderson, D. Ranasinghe, V. G. Zakrzewski, J. Gao, N. Rega, 
 G. Zheng, W. Liang, M. Hada, M. Ehara, K. Toyota, R. Fukuda, 
 J. Hasegawa, M. Ishida, T. Nakajima, Y. Honda, O. Kitao, H. Nakai, 
 T. Vreven, K. Throssell, J. A. Montgomery, Jr., J. E. Peralta, 
 F. Ogliaro, M. J. Bearpark, J. J. Heyd, E. N. Brothers, K. N. Kudin, 
 V. N. Staroverov, T. A. Keith, R. Kobayashi, J. Normand, 
 K. Raghavachari, A. P. Rendell, J. C. Burant, S. S. Iyengar, 
 J. Tomasi, M. Cossi, J. M. Millam, M. Klene, C. Adamo, R. Cammi, 
 J. W. Ochterski, R. L. Martin, K. Morokuma, O. Farkas, 
 J. B. Foresman, and D. J. Fox, Gaussian, Inc., Wallingford CT, 2016.
 
 ******************************************
 Gaussian 16:  ES64L-G16RevA.03 25-Dec-2016
                21-Oct-2020 
 ******************************************
 %NoSave
 %nproc=12
 Will use up to   12 processors via shared memory.
 %mem=20GB
 %chk=MN_78_RKT01_BH76_PM3_SE
 ----------------------------------------------------------------------
 #P Opt(TS,MaxCyc=50,NoEigenTest,MaxStep=10,AddRedundant) PM3 5D 7F Int
 egral=UltraFineGrid SCF=(NoSymm,XQC,MaxCyc=120) IOp(1/33=1)
 ----------------------------------------------------------------------
 1/5=1,6=50,8=10,11=1,18=120,26=1,33=1,38=1/1,3;
 2/9=110,12=2,17=6,18=5,40=1/2;
 3/5=2,8=11,25=1,41=800000,71=1,75=-5/1,2,3;
 4/9=2,35=1/1;
 5/5=2,7=120,8=3,13=1,35=1,38=5/2,8;
 6/7=2,8=2,9=2,10=2,28=1/1;
 7//1,2,3,16;
 1/5=1,6=50,8=10,11=1,18=20,26=1,33=1/3(2);
 2/9=110/2;
 99//99;
 2/9=110/2;
 3/5=2,8=11,25=1,41=800000,71=1,75=-5,135=20/1,2,3;
 4/5=5,9=2,16=3,35=1/1;
 5/5=2,7=120,8=3,13=1,35=1,38=5/2,8;
 7//1,2,3,16;
 1/5=1,6=50,8=10,11=1,18=20,26=1,33=1/3(-5);
 2/9=110/2;
 6/7=2,8=2,9=2,10=2,19=2,28=1/1;
 99/9=1/99;
 Leave Link    1 at Wed Oct 21 14:23:29 2020, MaxMem=  2684354560 cpu:              16.2 elap:               1.9
 (Enter /udrive/faculty/rpeverati/g16/g16/l101.exe)
 ONIOM data not found on unit 2.
 ------------------
 TS search on BH76.
 ------------------
 TstMul:  ICh=     0
 TstMul:  Mul=     2
 TstMul:  ICh=     0
 TstMul:  Mul=     2
 Symbolic Z-matrix:
 Charge =  0 Multiplicity = 2
 H                     0.        0.       -1.34063 
 Cl                    0.        0.        0.20325 
 H                     0.        0.       -2.11466 
 
 RdStrC is calling ZToCFu for IStruc=1 NZ=     3.
 PrtBox:  NBox=     1 Levels=  1 BoxLen=    8.00 SMaxX=        4.38
          Shift=            0.000000            0.000000            3.996130
 Box      1 Number                   0 centers from      1 to      3:
 After GenITR:
 ITRead=  0  0  0
 MicOpt= -1 -1 -1
 Add virtual bond connecting atoms Cl2        and H1         Dist= 2.92D+00.
 The following ModRedundant input section has been read:
 
 ITRead=  0  0  0
 MicOpt= -1 -1 -1
 NAtoms=      3 NQM=        3 NQMF=       0 NMMI=      0 NMMIF=      0
                NMic=       0 NMicF=      0.
                    Isotopes and Nuclear Properties:
 (Nuclear quadrupole moments (NQMom) in fm**2, nuclear magnetic moments (NMagM)
  in nuclear magnetons)

  Atom         1           2           3
 IAtWgt=           1          35           1
 AtmWgt=   1.0078250  34.9688527   1.0078250
 NucSpn=           1           3           1
 AtZEff=   0.0000000   0.0000000   0.0000000
 NQMom=    0.0000000  -8.1650000   0.0000000
 NMagM=    2.7928460   0.8218740   2.7928460
 AtZNuc=   1.0000000  17.0000000   1.0000000
 No MM parameters found.
 Leave Link  101 at Wed Oct 21 14:23:31 2020, MaxMem=  2684354560 cpu:               5.6 elap:               0.9
 (Enter /udrive/faculty/rpeverati/g16/g16/l103.exe)

 GradGradGradGradGradGradGradGradGradGradGradGradGradGradGradGradGradGrad
 Berny optimization.
 Optmz: redundant internal coordinate code flag= 1
 Initialization pass.
                           ----------------------------
                           !    Initial Parameters    !
                           ! (Angstroms and Degrees)  !
 --------------------------                            --------------------------
 ! Name  Definition              Value          Derivative Info.                !
 --------------------------------------------------------------------------------
 ! R1    R(1,2)                  1.5439         estimate D2E/DX2                !
 ! R2    R(1,3)                  0.774          estimate D2E/DX2                !
 ! A1    L(2,1,3,-1,-1)        180.0            estimate D2E/DX2                !
 ! A2    L(2,1,3,-2,-2)        180.0            estimate D2E/DX2                !
 --------------------------------------------------------------------------------
 Maximum allowed force set to 1.00D+20.
 Trust Radius=1.00D-01 FncErr=1.00D-07 GrdErr=1.00D-07 EigMax=2.50D+02 EigMin=1.00D-04
 Number of steps in this run=     50 maximum allowed number of steps=    100.
 Search for a saddle point of order  1.
 GradGradGradGradGradGradGradGradGradGradGradGradGradGradGradGradGradGrad

 Leave Link  103 at Wed Oct 21 14:23:33 2020, MaxMem=  2684354560 cpu:               2.9 elap:               1.0
 (Enter /udrive/faculty/rpeverati/g16/g16/l202.exe)
                          Input orientation:                          
 ---------------------------------------------------------------------
 Center     Atomic      Atomic             Coordinates (Angstroms)
 Number     Number       Type             X           Y           Z
 ---------------------------------------------------------------------
      1          1           0        0.000000    0.000000   -1.340628
      2         17           0        0.000000    0.000000    0.203252
      3          1           0        0.000000    0.000000   -2.114661
 ---------------------------------------------------------------------
                    Distance matrix (angstroms):
                    1          2          3
     1  H    0.000000
     2  Cl   1.543880   0.000000
     3  H    0.774033   2.317913   0.000000
 Stoichiometry    ClH2(2)
 Framework group  C*V[C*(HHCl)]
 Deg. of freedom     2
 Full point group                 C*V     NOp   4
 Largest Abelian subgroup         C2V     NOp   4
 Largest concise Abelian subgroup C1      NOp   1
                         Standard orientation:                         
 ---------------------------------------------------------------------
 Center     Atomic      Atomic             Coordinates (Angstroms)
 Number     Number       Type             X           Y           Z
 ---------------------------------------------------------------------
      1          1           0        0.000000    0.000000   -1.340628
      2         17           0        0.000000    0.000000    0.203252
      3          1           0        0.000000    0.000000   -2.114661
 ---------------------------------------------------------------------
 Rotational constants (GHZ):           0.0000000          68.2261370          68.2261370
 Leave Link  202 at Wed Oct 21 14:23:34 2020, MaxMem=  2684354560 cpu:               2.7 elap:               1.3
 (Enter /udrive/faculty/rpeverati/g16/g16/l301.exe)
 Standard basis: VSTO-6G (5D, 7F)
 Ernie: Thresh=  0.10000D-02 Tol=  0.10000D-05 Strict=F.
  NNHCO=     0 NNPyr=     0 NCTC=     0               EPep=         0.000000000
    EC=         3.958889616  ECS=         0.121915010   EG=         0.006439478
   EHC=         0.000000000  EAt=       -12.544072622  AtH=         0.212258150
 EPDDG=         0.000000000  ECC=         4.087244104 EAtT=        12.756330772
 There are     4 symmetry adapted cartesian basis functions of A1  symmetry.
 There are     0 symmetry adapted cartesian basis functions of A2  symmetry.
 There are     1 symmetry adapted cartesian basis functions of B1  symmetry.
 There are     1 symmetry adapted cartesian basis functions of B2  symmetry.
 There are     4 symmetry adapted basis functions of A1  symmetry.
 There are     0 symmetry adapted basis functions of A2  symmetry.
 There are     1 symmetry adapted basis functions of B1  symmetry.
 There are     1 symmetry adapted basis functions of B2  symmetry.
     6 basis functions,    36 primitive gaussians,     6 cartesian basis functions
     5 alpha electrons        4 beta electrons
       nuclear repulsion energy        16.8435748766 Hartrees.
 IExCor=    0 DFT=F Ex=HF Corr=None ExCW=0 ScaHFX=  1.000000
 ScaDFX=  1.000000  1.000000  1.000000  1.000000 ScalE2=  1.000000  1.000000
 IRadAn=      5 IRanWt=     -1 IRanGd=            0 ICorTp=0 IEmpDi=  4
 Integral buffers will be    131072 words long.
 Regular integral format.
 Two-electron integral symmetry is turned off.
 Leave Link  301 at Wed Oct 21 14:23:36 2020, MaxMem=  2684354560 cpu:               2.9 elap:               1.1
 (Enter /udrive/faculty/rpeverati/g16/g16/l302.exe)
 Do NDO integrals.
 NPDir=0 NMtPBC=     1 NCelOv=     1 NCel=       1 NClECP=     1 NCelD=      1
         NCelK=      1 NCelE2=     1 NClLst=     1 CellRange=     0.0.
 One-electron integrals computed using PRISM.
 NBasis=     6 RedAO= T EigKep=  1.00D+00  NBF=     4     0     1     1
 NBsUse=     6 1.00D-06 EigRej= -1.00D+00 NBFU=     4     0     1     1
 Leave Link  302 at Wed Oct 21 14:23:38 2020, MaxMem=  2684354560 cpu:               4.0 elap:               1.3
 (Enter /udrive/faculty/rpeverati/g16/g16/l303.exe)
 DipDrv:  MaxL=1.
 Leave Link  303 at Wed Oct 21 14:23:40 2020, MaxMem=  2684354560 cpu:               3.0 elap:               1.2
 (Enter /udrive/faculty/rpeverati/g16/g16/l401.exe)
 SCF N**3 symmetry information disabled.
 Simple Huckel Guess.
 JPrj=0 DoOrth=F DoCkMO=F.
 Initial guess orbital symmetries:
 Alpha Orbitals:
       Occupied  (SG) (SG) (PI) (PI) (SG)
       Virtual   (SG)
 Beta  Orbitals:
       Occupied  (SG) (SG) (PI) (PI)
       Virtual   (SG) (SG)
 The electronic state of the initial guess is 2-SG.
 Initial guess <Sx>= 0.0000 <Sy>= 0.0000 <Sz>= 0.5000 <S**2>= 0.7500 S= 0.5000
 Leave Link  401 at Wed Oct 21 14:23:42 2020, MaxMem=  2684354560 cpu:               3.6 elap:               1.0
 (Enter /udrive/faculty/rpeverati/g16/g16/l502.exe)
 Keep J ints in memory in canonical form, NReq=859134.
 FoFCou: FMM=F IPFlag=           0 FMFlag=           0 FMFlg1=           0
         NFxFlg=           0 DoJE=F BraDBF=F KetDBF=F FulRan=T
         wScrn=  0.000000 ICntrl=       600 IOpCl=  2 I1Cent=           0 NGrid=           0
         NMat0=    1 NMatS0=     12 NMatT0=    0 NMatD0=    1 NMtDS0=    0 NMtDT0=    0
 Symmetry not used in FoFCou.
 Two-electron integral symmetry not used.
 UHF open shell SCF:
 Using DIIS extrapolation, IDIIS=  1040.
 Overlap will be assumed to be unity.
 NGot=  2684354560 LenX=  2684294129 LenY=  2684293247
 Requested convergence on RMS density matrix=1.00D-08 within 120 cycles.
 Requested convergence on MAX density matrix=1.00D-06.
 Requested convergence on             energy=1.00D-06.
 No special actions if energy rises.

 Cycle   1  Pass 1  IDiag  1:
 E= 0.118426649774801    
 DIIS: error= 1.25D-01 at cycle   1 NSaved=   1.
 NSaved= 1 IEnMin= 1 EnMin= 0.118426649774801     IErMin= 1 ErrMin= 1.25D-01
 ErrMax= 1.25D-01  0.00D+00 EMaxC= 1.00D-01 BMatC= 3.57D-01 BMatP= 3.57D-01
 IDIUse=3 WtCom= 0.00D+00 WtEn= 1.00D+00
 Coeff-Com:  0.100D+01
 Coeff-En:   0.100D+01
 Coeff:      0.100D+01
 GapD=    2.000 DampG=2.000 DampE=0.250 DampFc=0.5000 IDamp=-1.
 Damping current iteration by 5.00D-01
 RMSDP=3.71D-02 MaxDP=1.27D-01              OVMax= 0.00D+00

 Cycle   2  Pass 1  IDiag  1:
 E= 0.700334780114424E-01 Delta-E=       -0.048393171763 Rises=F Damp=T
 DIIS: error= 6.75D-02 at cycle   2 NSaved=   2.
 NSaved= 2 IEnMin= 2 EnMin= 0.700334780114424E-01 IErMin= 2 ErrMin= 6.75D-02
 ErrMax= 6.75D-02  0.00D+00 EMaxC= 1.00D-01 BMatC= 1.06D-01 BMatP= 3.57D-01
 IDIUse=3 WtCom= 3.25D-01 WtEn= 6.75D-01
 Coeff-Com: -0.119D+01 0.219D+01
 Coeff-En:   0.000D+00 0.100D+01
 Coeff:     -0.386D+00 0.139D+01
 RMSDP=2.11D-02 MaxDP=7.09D-02 DE=-4.84D-02 OVMax= 0.00D+00

 Cycle   3  Pass 1  IDiag  1:
 E= 0.164182982281282E-01 Delta-E=       -0.053615179783 Rises=F Damp=F
 DIIS: error= 3.81D-03 at cycle   3 NSaved=   3.
 NSaved= 3 IEnMin= 3 EnMin= 0.164182982281282E-01 IErMin= 3 ErrMin= 3.81D-03
 ErrMax= 3.81D-03  0.00D+00 EMaxC= 1.00D-01 BMatC= 6.19D-04 BMatP= 1.06D-01
 IDIUse=3 WtCom= 9.62D-01 WtEn= 3.81D-02
 Coeff-Com:  0.158D+01-0.306D+01 0.248D+01
 Coeff-En:   0.000D+00 0.000D+00 0.100D+01
 Coeff:      0.152D+01-0.294D+01 0.242D+01
 RMSDP=4.49D-03 MaxDP=1.81D-02 DE=-5.36D-02 OVMax= 0.00D+00

 Cycle   4  Pass 1  IDiag  3:
 E= 0.159457870880679E-01 Delta-E=       -0.000472511140 Rises=F Damp=F
 DIIS: error= 1.27D-03 at cycle   4 NSaved=   4.
 NSaved= 4 IEnMin= 4 EnMin= 0.159457870880679E-01 IErMin= 4 ErrMin= 1.27D-03
 ErrMax= 1.27D-03  0.00D+00 EMaxC= 1.00D-01 BMatC= 2.73D-05 BMatP= 6.19D-04
 IDIUse=3 WtCom= 9.87D-01 WtEn= 1.27D-02
 Coeff-Com: -0.142D+00 0.297D+00-0.583D+00 0.143D+01
 Coeff-En:   0.000D+00 0.000D+00 0.000D+00 0.100D+01
 Coeff:     -0.140D+00 0.293D+00-0.576D+00 0.142D+01
 Gap=     0.479 Goal=   None    Shift=    0.000
 Gap=     0.312 Goal=   None    Shift=    0.000
 RMSDP=1.71D-03 MaxDP=6.64D-03 DE=-4.73D-04 OVMax= 7.10D-03

 Cycle   5  Pass 1  IDiag  3:
 E= 0.158959417325235E-01 Delta-E=       -0.000049845356 Rises=F Damp=F
 DIIS: error= 5.23D-04 at cycle   5 NSaved=   5.
 NSaved= 5 IEnMin= 5 EnMin= 0.158959417325235E-01 IErMin= 5 ErrMin= 5.23D-04
 ErrMax= 5.23D-04  0.00D+00 EMaxC= 1.00D-01 BMatC= 4.74D-06 BMatP= 2.73D-05
 IDIUse=3 WtCom= 9.95D-01 WtEn= 5.23D-03
 Coeff-Com:  0.270D+00-0.535D+00 0.631D+00-0.133D+01 0.197D+01
 Coeff-En:   0.000D+00 0.000D+00 0.000D+00 0.000D+00 0.100D+01
 Coeff:      0.269D+00-0.533D+00 0.627D+00-0.132D+01 0.196D+01
 Gap=     0.479 Goal=   None    Shift=    0.000
 Gap=     0.312 Goal=   None    Shift=    0.000
 RMSDP=1.06D-03 MaxDP=4.67D-03 DE=-4.98D-05 OVMax= 4.76D-03

 Cycle   6  Pass 1  IDiag  3:
 E= 0.158822454155931E-01 Delta-E=       -0.000013696317 Rises=F Damp=F
 DIIS: error= 1.84D-04 at cycle   6 NSaved=   6.
 NSaved= 6 IEnMin= 6 EnMin= 0.158822454155931E-01 IErMin= 6 ErrMin= 1.84D-04
 ErrMax= 1.84D-04  0.00D+00 EMaxC= 1.00D-01 BMatC= 1.02D-06 BMatP= 4.74D-06
 IDIUse=3 WtCom= 9.98D-01 WtEn= 1.84D-03
 Coeff-Com: -0.378D-01 0.767D-01-0.116D+00 0.563D+00-0.180D+01 0.231D+01
 Coeff-En:   0.000D+00 0.000D+00 0.000D+00 0.000D+00 0.000D+00 0.100D+01
 Coeff:     -0.377D-01 0.766D-01-0.115D+00 0.562D+00-0.180D+01 0.231D+01
 Gap=     0.479 Goal=   None    Shift=    0.000
 Gap=     0.313 Goal=   None    Shift=    0.000
 RMSDP=8.94D-04 MaxDP=3.47D-03 DE=-1.37D-05 OVMax= 4.62D-03

 Cycle   7  Pass 1  IDiag  3:
 E= 0.158784727605408E-01 Delta-E=       -0.000003772655 Rises=F Damp=F
 DIIS: error= 2.52D-05 at cycle   7 NSaved=   7.
 NSaved= 7 IEnMin= 7 EnMin= 0.158784727605408E-01 IErMin= 7 ErrMin= 2.52D-05
 ErrMax= 2.52D-05  0.00D+00 EMaxC= 1.00D-01 BMatC= 1.29D-08 BMatP= 1.02D-06
 IDIUse=1 WtCom= 1.00D+00 WtEn= 0.00D+00
 Coeff-Com: -0.788D-03-0.536D-03 0.304D-01-0.332D+00 0.122D+01-0.165D+01
 Coeff-Com:  0.173D+01
 Coeff:     -0.788D-03-0.536D-03 0.304D-01-0.332D+00 0.122D+01-0.165D+01
 Coeff:      0.173D+01
 Gap=     0.479 Goal=   None    Shift=    0.000
 Gap=     0.313 Goal=   None    Shift=    0.000
 RMSDP=4.52D-05 MaxDP=2.04D-04 DE=-3.77D-06 OVMax= 2.62D-04

 Cycle   8  Pass 1  IDiag  3:
 E= 0.158784510972154E-01 Delta-E=       -0.000000021663 Rises=F Damp=F
 DIIS: error= 1.53D-06 at cycle   8 NSaved=   8.
 NSaved= 8 IEnMin= 8 EnMin= 0.158784510972154E-01 IErMin= 8 ErrMin= 1.53D-06
 ErrMax= 1.53D-06  0.00D+00 EMaxC= 1.00D-01 BMatC= 4.32D-11 BMatP= 1.29D-08
 IDIUse=1 WtCom= 1.00D+00 WtEn= 0.00D+00
 Coeff-Com: -0.606D-04 0.114D-03-0.821D-04-0.411D-02 0.174D-01-0.201D-01
 Coeff-Com: -0.594D-02 0.101D+01
 Coeff:     -0.606D-04 0.114D-03-0.821D-04-0.411D-02 0.174D-01-0.201D-01
 Coeff:     -0.594D-02 0.101D+01
 Gap=     0.479 Goal=   None    Shift=    0.000
 Gap=     0.313 Goal=   None    Shift=    0.000
 RMSDP=3.47D-06 MaxDP=1.43D-05 DE=-2.17D-08 OVMax= 2.06D-05

 Cycle   9  Pass 1  IDiag  3:
 E= 0.158784510092644E-01 Delta-E=       -0.000000000088 Rises=F Damp=F
 DIIS: error= 4.50D-08 at cycle   9 NSaved=   9.
 NSaved= 9 IEnMin= 9 EnMin= 0.158784510092644E-01 IErMin= 9 ErrMin= 4.50D-08
 ErrMax= 4.50D-08  0.00D+00 EMaxC= 1.00D-01 BMatC= 3.11D-14 BMatP= 4.32D-11
 IDIUse=1 WtCom= 1.00D+00 WtEn= 0.00D+00
 Coeff-Com: -0.377D-04 0.740D-04-0.690D-04 0.997D-03-0.383D-02 0.426D-02
 Coeff-Com:  0.289D-02-0.248D+00 0.124D+01
 Coeff:     -0.377D-04 0.740D-04-0.690D-04 0.997D-03-0.383D-02 0.426D-02
 Coeff:      0.289D-02-0.248D+00 0.124D+01
 Gap=     0.479 Goal=   None    Shift=    0.000
 Gap=     0.313 Goal=   None    Shift=    0.000
 RMSDP=7.92D-08 MaxDP=2.78D-07 DE=-8.80D-11 OVMax= 3.92D-07

 Cycle  10  Pass 1  IDiag  3:
 E= 0.158784510091934E-01 Delta-E=       -0.000000000000 Rises=F Damp=F
 DIIS: error= 1.45D-08 at cycle  10 NSaved=  10.
 NSaved=10 IEnMin=10 EnMin= 0.158784510091934E-01 IErMin=10 ErrMin= 1.45D-08
 ErrMax= 1.45D-08  0.00D+00 EMaxC= 1.00D-01 BMatC= 3.19D-15 BMatP= 3.11D-14
 IDIUse=1 WtCom= 1.00D+00 WtEn= 0.00D+00
 Coeff-Com:  0.820D-06-0.163D-05 0.158D-06-0.202D-03 0.845D-03-0.962D-03
 Coeff-Com: -0.868D-03 0.551D-01-0.551D+00 0.150D+01
 Coeff:      0.820D-06-0.163D-05 0.158D-06-0.202D-03 0.845D-03-0.962D-03
 Coeff:     -0.868D-03 0.551D-01-0.551D+00 0.150D+01
 Gap=     0.479 Goal=   None    Shift=    0.000
 Gap=     0.313 Goal=   None    Shift=    0.000
 RMSDP=2.83D-08 MaxDP=1.15D-07 DE=-7.11D-14 OVMax= 1.63D-07

 Cycle  11  Pass 1  IDiag  3:
 E= 0.158784510091863E-01 Delta-E=       -0.000000000000 Rises=F Damp=F
 DIIS: error= 6.13D-10 at cycle  11 NSaved=  11.
 NSaved=11 IEnMin=11 EnMin= 0.158784510091863E-01 IErMin=11 ErrMin= 6.13D-10
 ErrMax= 6.13D-10  0.00D+00 EMaxC= 1.00D-01 BMatC= 8.49D-18 BMatP= 3.19D-15
 IDIUse=1 WtCom= 1.00D+00 WtEn= 0.00D+00
 Coeff-Com: -0.663D-09 0.121D-08 0.439D-08 0.178D-06-0.160D-05 0.547D-05
 Coeff-Com:  0.312D-04 0.424D-04 0.247D-01-0.874D-01 0.106D+01
 Coeff:     -0.663D-09 0.121D-08 0.439D-08 0.178D-06-0.160D-05 0.547D-05
 Coeff:      0.312D-04 0.424D-04 0.247D-01-0.874D-01 0.106D+01
 Gap=     0.479 Goal=   None    Shift=    0.000
 Gap=     0.313 Goal=   None    Shift=    0.000
 RMSDP=2.19D-09 MaxDP=6.92D-09 DE=-7.11D-15 OVMax= 9.22D-09

 Cycle  12  Pass 2  IDiag  1:
 SCF Done:  E(UPM3) =  0.158784510092E-01 A.U. after   12 cycles
            NFock= 11  Conv=0.22D-08     -V/T= 1.0008
 <Sx>= 0.0000 <Sy>= 0.0000 <Sz>= 0.5000 <S**2>= 0.7649 S= 0.5074
 <L.S>= 0.000000000000E+00
 KE=-1.879703774777D+01 PE=-7.613846041093D+00 EE= 9.583187363286D+00
 Annihilation of the first spin contaminant:
 S**2 before annihilation     0.7649,   after     0.7500
 Leave Link  502 at Wed Oct 21 14:23:46 2020, MaxMem=  2684354560 cpu:              23.0 elap:               2.9
 (Enter /udrive/faculty/rpeverati/g16/g16/l508.exe)
 QCSCF skips out because SCF is already converged.
 Leave Link  508 at Wed Oct 21 14:23:47 2020, MaxMem=  2684354560 cpu:               1.6 elap:               0.9
 (Enter /udrive/faculty/rpeverati/g16/g16/l601.exe)
 Copying SCF densities to generalized density rwf, IOpCl= 1 IROHF=0.

 **********************************************************************

            Population analysis using the SCF density.

 **********************************************************************

 Orbital symmetries:
 Alpha Orbitals:
       Occupied  (SG) (SG) (PI) (PI) (SG)
       Virtual   (SG)
 Beta  Orbitals:
       Occupied  (SG) (SG) (PI) (PI)
       Virtual   (SG) (SG)
 The electronic state is 2-SG.
 Alpha  occ. eigenvalues --   -2.04233  -0.65703  -0.40207  -0.40207  -0.37257
 Alpha virt. eigenvalues --    0.10609
  Beta  occ. eigenvalues --   -1.95672  -0.60804  -0.40184  -0.40184
  Beta virt. eigenvalues --   -0.08920   0.13115
          Condensed to atoms (all electrons):
               1          2          3
     1  H    0.893966   0.000000   0.000000
     2  Cl   0.000000   7.132149   0.000000
     3  H    0.000000   0.000000   0.973885
          Atomic-Atomic Spin Densities.
               1          2          3
     1  H   -0.104549   0.000000   0.000000
     2  Cl   0.000000   0.722155   0.000000
     3  H    0.000000   0.000000   0.382394
 Mulliken charges and spin densities:
               1          2
     1  H    0.106034  -0.104549
     2  Cl  -0.132149   0.722155
     3  H    0.026115   0.382394
 Sum of Mulliken charges =  -0.00000   1.00000
 Mulliken charges and spin densities with hydrogens summed into heavy atoms:
               1          2
     2  Cl  -0.000000   1.000000
 Charge=             -0.0000 electrons
 Dipole moment (field-independent basis, Debye):
    X=              0.0000    Y=             -0.0000    Z=             -1.3947  Tot=              1.3947
 N-N= 1.684357487658D+01 E-N=-7.613846042954D+00  KE=-1.879703774777D+01
 Leave Link  601 at Wed Oct 21 14:23:49 2020, MaxMem=  2684354560 cpu:               3.2 elap:               1.2
 (Enter /udrive/faculty/rpeverati/g16/g16/l701.exe)
 ... and contract with generalized density number  0.
 Compute integral first derivatives.
 Leave Link  701 at Wed Oct 21 14:23:51 2020, MaxMem=  2684354560 cpu:               6.2 elap:               1.6
 (Enter /udrive/faculty/rpeverati/g16/g16/l702.exe)
 L702 exits ... SP integral derivatives will be done elsewhere.
 Leave Link  702 at Wed Oct 21 14:23:53 2020, MaxMem=  2684354560 cpu:               3.2 elap:               0.9
 (Enter /udrive/faculty/rpeverati/g16/g16/l703.exe)
 Integral derivatives from FoFJK, PRISM(SPDF).
 Compute integral first derivatives, UseDBF=F ICtDFT=           0.
 Calling FoFJK, ICntrl=      2127 FMM=F ISym2X=1 I1Cent= 0 IOpClX= 1 NMat=1 NMatS=1 NMatT=0.
 FoFJK:  IHMeth= 9 ICntrl=    2127 DoSepK=F KAlg= 0 I1Cent=           0 FoldK=F
 IRaf=         0 NMat=       1 IRICut=       1 DoRegI=T DoRafI=F ISym2E= 1 IDoP0=3 IntGTp=3.
 FoFCou: FMM=F IPFlag=           0 FMFlag=      100000 FMFlg1=         800
         NFxFlg=           0 DoJE=F BraDBF=F KetDBF=F FulRan=T
         wScrn=  0.000000 ICntrl=      2127 IOpCl=  1 I1Cent=           0 NGrid=           0
         NMat0=    1 NMatS0=      1 NMatT0=    0 NMatD0=    1 NMtDS0=    0 NMtDT0=    0
 Petite list used in FoFCou.
 Leave Link  703 at Wed Oct 21 14:23:55 2020, MaxMem=  2684354560 cpu:               4.9 elap:               1.6
 (Enter /udrive/faculty/rpeverati/g16/g16/l716.exe)
 Dipole        = 1.98466986D-16-1.89505457D-15-5.48714461D-01
 ***** Axes restored to original set *****
 -------------------------------------------------------------------
 Center     Atomic                   Forces (Hartrees/Bohr)
 Number     Number              X              Y              Z
 -------------------------------------------------------------------
      1        1          -0.000000000    0.000000000   -0.018759524
      2       17           0.000000000   -0.000000000    0.018184280
      3        1           0.000000000    0.000000000    0.000575244
 -------------------------------------------------------------------
 Cartesian Forces:  Max     0.018759524 RMS     0.008710904
 Leave Link  716 at Wed Oct 21 14:23:56 2020, MaxMem=  2684354560 cpu:               1.6 elap:               1.0
 (Enter /udrive/faculty/rpeverati/g16/g16/l103.exe)

 GradGradGradGradGradGradGradGradGradGradGradGradGradGradGradGradGradGrad
 Berny optimization.
 Optmz: redundant internal coordinate code flag= 1
 FormGI is forming the generalized inverse of G from B-inverse, IUseBI=4.
 Internal  Forces:  Max     0.018184280 RMS     0.009096688
 Search for a saddle point.
 Step number   1 out of a maximum of   50
 All quantities printed in internal units (Hartrees-Bohrs-Radians)
 Swapping is turned off.
 Second derivative matrix not updated -- first step.
 The second derivative matrix:
                          R1        R2        A1        A2
           R1           0.15072
           R2           0.00000   0.34879
           A1           0.00000   0.00000   0.00230
           A2           0.00000   0.00000   0.00000   0.00230
 ITU=  0
 Eigenvectors of the second derivative matrix:
                           1         2         3         4
     Eigenvalues --     0.00230   0.00230   0.15072   0.34879
   1         R1         0.00000   0.00000  -1.00000  -0.00000
   2         R2         0.00000   0.00000  -0.00000   1.00000
   3         A1         0.00000  -1.00000   0.00000   0.00000
   4         A2         1.00000   0.00000   0.00000   0.00000
 Eigenvalue     1 is   2.30D-03 should be less than     0.000000 Eigenvector:
                          A2        R2        A1        R1
   1                    1.00000   0.00000   0.00000   0.00000
 RLam0= 2.30D-03.
 Iter=   1 RLamda= 0.00000000D+00 Sum=-2.19492911D-03.
 Iter=   2 RLamda=-2.19492911D-03 Sum=-2.16343014D-03.
 Iter=   3 RLamda=-2.16343014D-03 Sum=-2.16387578D-03.
 Iter=   4 RLamda=-2.16387578D-03 Sum=-2.16386947D-03.
 RFO step:  Lambda0=2.300010000D-03 Lambda=-2.16387578D-03.
 Linear search not attempted -- option 19 set.
 Maximum step size (   0.100) exceeded in Quadratic search.
    -- Step size scaled by   0.594
 Iteration  1 RMS(Cart)=  0.03977428 RMS(Int)=  0.00100431
 Iteration  2 RMS(Cart)=  0.00091827 RMS(Int)=  0.00000028
 Iteration  3 RMS(Cart)=  0.00000022 RMS(Int)=  0.00000000
 ITry= 1 IFail=0 DXMaxC= 4.58D-02 DCOld= 1.00D+10 DXMaxT= 1.00D-01 DXLimC= 3.00D+00 Rises=F
 ClnCor:  largest displacement from symmetrization is 4.46D-02 for atom     1.
 Variable       Old X    -DE/DX   Delta X   Delta X   Delta X     New X
                                 (Linear)    (Quad)   (Total)
    R1        2.91751   0.01818   0.00000   0.07070   0.07011   2.98762
    R2        1.46271  -0.00058   0.00000  -0.00097  -0.00286   1.45985
    A1        3.14159   0.00000   0.00000   0.00000   0.00000   3.14159
    A2        3.14159   0.00000   0.00000  -0.07071   0.00000   3.14159
         Item               Value     Threshold  Converged?
 Maximum Force            0.018184     0.000450     NO 
 RMS     Force            0.009097     0.000300     NO 
 Maximum Displacement     0.045788     0.001800     NO 
 RMS     Displacement     0.028058     0.001200     NO 
 Predicted change in Energy=-9.047206D-04
 Lowest energy point so far.  Saving SCF results.
 Largest change from initial coordinates is atom    2       0.011 Angstoms.
 GradGradGradGradGradGradGradGradGradGradGradGradGradGradGradGradGradGrad

 Leave Link  103 at Wed Oct 21 14:23:59 2020, MaxMem=  2684354560 cpu:               9.8 elap:               1.7
 (Enter /udrive/faculty/rpeverati/g16/g16/l202.exe)
                          Input orientation:                          
 ---------------------------------------------------------------------
 Center     Atomic      Atomic             Coordinates (Angstroms)
 Number     Number       Type             X           Y           Z
 ---------------------------------------------------------------------
      1          1           0        0.000000    0.000000   -1.353500
      2         17           0        0.000000    0.000000    0.227482
      3          1           0        0.000000    0.000000   -2.126019
 ---------------------------------------------------------------------
                    Distance matrix (angstroms):
                    1          2          3
     1  H    0.000000
     2  Cl   1.580982   0.000000
     3  H    0.772519   2.353501   0.000000
 Stoichiometry    ClH2(2)
 Framework group  C*V[C*(HHCl)]
 Deg. of freedom     2
 Full point group                 C*V     NOp   4
 RotChk:  IX=0 Diff= 0.00D+00
 Largest Abelian subgroup         C2V     NOp   4
 Largest concise Abelian subgroup C1      NOp   1
                         Standard orientation:                         
 ---------------------------------------------------------------------
 Center     Atomic      Atomic             Coordinates (Angstroms)
 Number     Number       Type             X           Y           Z
 ---------------------------------------------------------------------
      1          1           0        0.000000    0.000000   -1.373904
      2         17           0        0.000000    0.000000    0.207078
      3          1           0        0.000000    0.000000   -2.146423
 ---------------------------------------------------------------------
 Rotational constants (GHZ):           0.0000000          65.8367965          65.8367965
 Leave Link  202 at Wed Oct 21 14:24:01 2020, MaxMem=  2684354560 cpu:               2.8 elap:               1.2
 (Enter /udrive/faculty/rpeverati/g16/g16/l301.exe)
 Standard basis: VSTO-6G (5D, 7F)
 Ernie: Thresh=  0.10000D-02 Tol=  0.10000D-05 Strict=F.
  NNHCO=     0 NNPyr=     0 NCTC=     0               EPep=         0.000000000
    EC=         3.904352326  ECS=         0.115842743   EG=         0.005207152
   EHC=         0.000000000  EAt=       -12.544072622  AtH=         0.212258150
 EPDDG=         0.000000000  ECC=         4.025402221 EAtT=        12.756330772
 There are     4 symmetry adapted cartesian basis functions of A1  symmetry.
 There are     0 symmetry adapted cartesian basis functions of A2  symmetry.
 There are     1 symmetry adapted cartesian basis functions of B1  symmetry.
 There are     1 symmetry adapted cartesian basis functions of B2  symmetry.
 There are     4 symmetry adapted basis functions of A1  symmetry.
 There are     0 symmetry adapted basis functions of A2  symmetry.
 There are     1 symmetry adapted basis functions of B1  symmetry.
 There are     1 symmetry adapted basis functions of B2  symmetry.
     6 basis functions,    36 primitive gaussians,     6 cartesian basis functions
     5 alpha electrons        4 beta electrons
       nuclear repulsion energy        16.7817329933 Hartrees.
 IExCor=    0 DFT=F Ex=HF Corr=None ExCW=0 ScaHFX=  1.000000
 ScaDFX=  1.000000  1.000000  1.000000  1.000000 ScalE2=  1.000000  1.000000
 IRadAn=      5 IRanWt=     -1 IRanGd=            0 ICorTp=0 IEmpDi=  4
 Integral buffers will be    131072 words long.
 Regular integral format.
 Two-electron integral symmetry is turned off.
 Leave Link  301 at Wed Oct 21 14:24:03 2020, MaxMem=  2684354560 cpu:               3.2 elap:               1.6
 (Enter /udrive/faculty/rpeverati/g16/g16/l302.exe)
 Do NDO integrals.
 NPDir=0 NMtPBC=     1 NCelOv=     1 NCel=       1 NClECP=     1 NCelD=      1
         NCelK=      1 NCelE2=     1 NClLst=     1 CellRange=     0.0.
 One-electron integrals computed using PRISM.
 NBasis=     6 RedAO= T EigKep=  1.00D+00  NBF=     4     0     1     1
 NBsUse=     6 1.00D-06 EigRej= -1.00D+00 NBFU=     4     0     1     1
 Leave Link  302 at Wed Oct 21 14:24:05 2020, MaxMem=  2684354560 cpu:               5.5 elap:               1.3
 (Enter /udrive/faculty/rpeverati/g16/g16/l303.exe)
 DipDrv:  MaxL=1.
 Leave Link  303 at Wed Oct 21 14:24:07 2020, MaxMem=  2684354560 cpu:               2.6 elap:               1.3
 (Enter /udrive/faculty/rpeverati/g16/g16/l401.exe)
 Initial guess from the checkpoint file:  "MN_78_RKT01_BH76_PM3_SE.chk"
 SCF N**3 symmetry information disabled.
 B after Tr=     0.000000    0.000000   -0.000000
         Rot=    1.000000    0.000000    0.000000    0.000000 Ang=   0.00 deg.
 Guess basis will be translated and rotated to current coordinates.
 JPrj=0 DoOrth=T DoCkMO=T.
 Initial guess orbital symmetries:
 Alpha Orbitals:
       Occupied  (SG) (SG) (PI) (PI) (SG)
       Virtual   (SG)
 Beta  Orbitals:
       Occupied  (SG) (SG) (PI) (PI)
       Virtual   (SG) (SG)
 The electronic state of the initial guess is 2-SG.
 Initial guess <Sx>= 0.0000 <Sy>= 0.0000 <Sz>= 0.5000 <S**2>= 0.7649 S= 0.5074
 Leave Link  401 at Wed Oct 21 14:24:09 2020, MaxMem=  2684354560 cpu:               8.6 elap:               1.8
 (Enter /udrive/faculty/rpeverati/g16/g16/l502.exe)
 Keep J ints in memory in canonical form, NReq=859134.
 FoFCou: FMM=F IPFlag=           0 FMFlag=           0 FMFlg1=           0
         NFxFlg=           0 DoJE=F BraDBF=F KetDBF=F FulRan=T
         wScrn=  0.000000 ICntrl=       600 IOpCl=  2 I1Cent=           0 NGrid=           0
         NMat0=    1 NMatS0=     12 NMatT0=    0 NMatD0=    1 NMtDS0=    0 NMtDT0=    0
 Symmetry not used in FoFCou.
 Two-electron integral symmetry not used.
 UHF open shell SCF:
 Using DIIS extrapolation, IDIIS=  1040.
 Overlap will be assumed to be unity.
 NGot=  2684354560 LenX=  2684294129 LenY=  2684293247
 Requested convergence on RMS density matrix=1.00D-08 within 120 cycles.
 Requested convergence on MAX density matrix=1.00D-06.
 Requested convergence on             energy=1.00D-06.
 No special actions if energy rises.

 Cycle   1  Pass 1  IDiag  1:
 E= 0.150310938559741E-01
 DIIS: error= 2.24D-03 at cycle   1 NSaved=   1.
 NSaved= 1 IEnMin= 1 EnMin= 0.150310938559741E-01 IErMin= 1 ErrMin= 2.24D-03
 ErrMax= 2.24D-03  0.00D+00 EMaxC= 1.00D-01 BMatC= 1.74D-04 BMatP= 1.74D-04
 IDIUse=3 WtCom= 9.78D-01 WtEn= 2.24D-02
 Coeff-Com:  0.100D+01
 Coeff-En:   0.100D+01
 Coeff:      0.100D+01
 GapD=    2.000 DampG=2.000 DampE=1.000 DampFc=2.0000 IDamp=-1.
 RMSDP=1.93D-03 MaxDP=7.14D-03              OVMax= 0.00D+00

 Cycle   2  Pass 1  IDiag  3:
 E= 0.149006106974099E-01 Delta-E=       -0.000130483159 Rises=F Damp=F
 DIIS: error= 9.10D-04 at cycle   2 NSaved=   2.
 NSaved= 2 IEnMin= 2 EnMin= 0.149006106974099E-01 IErMin= 2 ErrMin= 9.10D-04
 ErrMax= 9.10D-04  0.00D+00 EMaxC= 1.00D-01 BMatC= 2.85D-05 BMatP= 1.74D-04
 IDIUse=3 WtCom= 9.91D-01 WtEn= 9.10D-03
 Coeff-Com: -0.227D+00 0.123D+01
 Coeff-En:   0.000D+00 0.100D+01
 Coeff:     -0.225D+00 0.122D+01
 Gap=     0.480 Goal=   None    Shift=    0.000
 Gap=     0.308 Goal=   None    Shift=    0.000
 RMSDP=1.48D-03 MaxDP=4.83D-03 DE=-1.30D-04 OVMax= 6.27D-03

 Cycle   3  Pass 1  IDiag  3:
 E= 0.148476918280096E-01 Delta-E=       -0.000052918869 Rises=F Damp=F
 DIIS: error= 6.10D-04 at cycle   3 NSaved=   3.
 NSaved= 3 IEnMin= 3 EnMin= 0.148476918280096E-01 IErMin= 3 ErrMin= 6.10D-04
 ErrMax= 6.10D-04  0.00D+00 EMaxC= 1.00D-01 BMatC= 1.11D-05 BMatP= 2.85D-05
 IDIUse=3 WtCom= 9.94D-01 WtEn= 6.10D-03
 Coeff-Com:  0.175D+00-0.170D+01 0.253D+01
 Coeff-En:   0.000D+00 0.000D+00 0.100D+01
 Coeff:      0.174D+00-0.169D+01 0.252D+01
 Gap=     0.482 Goal=   None    Shift=    0.000
 Gap=     0.308 Goal=   None    Shift=    0.000
 RMSDP=2.11D-03 MaxDP=6.85D-03 DE=-5.29D-05 OVMax= 9.52D-03

 Cycle   4  Pass 1  IDiag  3:
 E= 0.148118215075748E-01 Delta-E=       -0.000035870320 Rises=F Damp=F
 DIIS: error= 3.28D-04 at cycle   4 NSaved=   4.
 NSaved= 4 IEnMin= 4 EnMin= 0.148118215075748E-01 IErMin= 4 ErrMin= 3.28D-04
 ErrMax= 3.28D-04  0.00D+00 EMaxC= 1.00D-01 BMatC= 1.58D-06 BMatP= 1.11D-05
 IDIUse=3 WtCom= 9.97D-01 WtEn= 3.28D-03
 Coeff-Com: -0.273D+00 0.270D+01-0.422D+01 0.279D+01
 Coeff-En:   0.000D+00 0.000D+00 0.000D+00 0.100D+01
 Coeff:     -0.272D+00 0.269D+01-0.420D+01 0.278D+01
 Gap=     0.481 Goal=   None    Shift=    0.000
 Gap=     0.308 Goal=   None    Shift=    0.000
 RMSDP=8.18D-04 MaxDP=3.67D-03 DE=-3.59D-05 OVMax= 3.56D-03

 Cycle   5  Pass 1  IDiag  3:
 E= 0.148073658172727E-01 Delta-E=       -0.000004455690 Rises=F Damp=F
 DIIS: error= 4.30D-05 at cycle   5 NSaved=   5.
 NSaved= 5 IEnMin= 5 EnMin= 0.148073658172727E-01 IErMin= 5 ErrMin= 4.30D-05
 ErrMax= 4.30D-05  0.00D+00 EMaxC= 1.00D-01 BMatC= 3.73D-08 BMatP= 1.58D-06
 IDIUse=1 WtCom= 1.00D+00 WtEn= 0.00D+00
 Coeff-Com:  0.626D-01-0.617D+00 0.970D+00-0.768D+00 0.135D+01
 Coeff:      0.626D-01-0.617D+00 0.970D+00-0.768D+00 0.135D+01
 Gap=     0.481 Goal=   None    Shift=    0.000
 Gap=     0.308 Goal=   None    Shift=    0.000
 RMSDP=9.43D-05 MaxDP=4.08D-04 DE=-4.46D-06 OVMax= 3.39D-04

 Cycle   6  Pass 1  IDiag  3:
 E= 0.148072990749100E-01 Delta-E=       -0.000000066742 Rises=F Damp=F
 DIIS: error= 8.40D-06 at cycle   6 NSaved=   6.
 NSaved= 6 IEnMin= 6 EnMin= 0.148072990749100E-01 IErMin= 6 ErrMin= 8.40D-06
 ErrMax= 8.40D-06  0.00D+00 EMaxC= 1.00D-01 BMatC= 1.34D-09 BMatP= 3.73D-08
 IDIUse=1 WtCom= 1.00D+00 WtEn= 0.00D+00
 Coeff-Com: -0.325D-01 0.325D+00-0.510D+00 0.428D+00-0.956D+00 0.175D+01
 Coeff:     -0.325D-01 0.325D+00-0.510D+00 0.428D+00-0.956D+00 0.175D+01
 Gap=     0.481 Goal=   None    Shift=    0.000
 Gap=     0.308 Goal=   None    Shift=    0.000
 RMSDP=1.56D-05 MaxDP=6.21D-05 DE=-6.67D-08 OVMax= 8.29D-05

 Cycle   7  Pass 1  IDiag  3:
 E= 0.148072969667368E-01 Delta-E=       -0.000000002108 Rises=F Damp=F
 DIIS: error= 8.53D-07 at cycle   7 NSaved=   7.
 NSaved= 7 IEnMin= 7 EnMin= 0.148072969667368E-01 IErMin= 7 ErrMin= 8.53D-07
 ErrMax= 8.53D-07  0.00D+00 EMaxC= 1.00D-01 BMatC= 1.67D-11 BMatP= 1.34D-09
 IDIUse=1 WtCom= 1.00D+00 WtEn= 0.00D+00
 Coeff-Com:  0.680D-03-0.673D-02 0.914D-02-0.652D-02 0.260D-01-0.229D-01
 Coeff-Com:  0.100D+01
 Coeff:      0.680D-03-0.673D-02 0.914D-02-0.652D-02 0.260D-01-0.229D-01
 Coeff:      0.100D+01
 Gap=     0.481 Goal=   None    Shift=    0.000
 Gap=     0.308 Goal=   None    Shift=    0.000
 RMSDP=2.23D-06 MaxDP=7.28D-06 DE=-2.11D-09 OVMax= 9.92D-06

 Cycle   8  Pass 1  IDiag  3:
 E= 0.148072969317425E-01 Delta-E=       -0.000000000035 Rises=F Damp=F
 DIIS: error= 5.46D-08 at cycle   8 NSaved=   8.
 NSaved= 8 IEnMin= 8 EnMin= 0.148072969317425E-01 IErMin= 8 ErrMin= 5.46D-08
 ErrMax= 5.46D-08  0.00D+00 EMaxC= 1.00D-01 BMatC= 4.66D-14 BMatP= 1.67D-11
 IDIUse=1 WtCom= 1.00D+00 WtEn= 0.00D+00
 Coeff-Com: -0.189D-03 0.183D-02-0.245D-02 0.168D-02-0.714D-02 0.624D-02
 Coeff-Com: -0.261D+00 0.126D+01
 Coeff:     -0.189D-03 0.183D-02-0.245D-02 0.168D-02-0.714D-02 0.624D-02
 Coeff:     -0.261D+00 0.126D+01
 Gap=     0.481 Goal=   None    Shift=    0.000
 Gap=     0.308 Goal=   None    Shift=    0.000
 RMSDP=6.22D-08 MaxDP=3.36D-07 DE=-3.50D-11 OVMax= 3.03D-07

 Cycle   9  Pass 1  IDiag  3:
 E= 0.148072969316928E-01 Delta-E=       -0.000000000000 Rises=F Damp=F
 DIIS: error= 1.28D-08 at cycle   9 NSaved=   9.
 NSaved= 9 IEnMin= 9 EnMin= 0.148072969316928E-01 IErMin= 9 ErrMin= 1.28D-08
 ErrMax= 1.28D-08  0.00D+00 EMaxC= 1.00D-01 BMatC= 3.12D-15 BMatP= 4.66D-14
 IDIUse=1 WtCom= 1.00D+00 WtEn= 0.00D+00
 Coeff-Com: -0.445D-05 0.591D-04-0.218D-03 0.306D-03 0.329D-03 0.128D-02
 Coeff-Com:  0.629D-01-0.549D+00 0.148D+01
 Coeff:     -0.445D-05 0.591D-04-0.218D-03 0.306D-03 0.329D-03 0.128D-02
 Coeff:      0.629D-01-0.549D+00 0.148D+01
 Gap=     0.481 Goal=   None    Shift=    0.000
 Gap=     0.308 Goal=   None    Shift=    0.000
 RMSDP=1.95D-08 MaxDP=6.45D-08 DE=-4.97D-14 OVMax= 7.32D-08

 Cycle  10  Pass 1  IDiag  3:
 E= 0.148072969316857E-01 Delta-E=       -0.000000000000 Rises=F Damp=F
 DIIS: error= 4.84D-10 at cycle  10 NSaved=  10.
 NSaved=10 IEnMin=10 EnMin= 0.148072969316857E-01 IErMin=10 ErrMin= 4.84D-10
 ErrMax= 4.84D-10  0.00D+00 EMaxC= 1.00D-01 BMatC= 6.48D-18 BMatP= 3.12D-15
 IDIUse=1 WtCom= 1.00D+00 WtEn= 0.00D+00
 Coeff-Com: -0.238D-07 0.417D-06-0.148D-05 0.124D-05 0.141D-05 0.589D-05
 Coeff-Com:  0.952D-03-0.251D-02 0.448D-02 0.997D+00
 Coeff:     -0.238D-07 0.417D-06-0.148D-05 0.124D-05 0.141D-05 0.589D-05
 Coeff:      0.952D-03-0.251D-02 0.448D-02 0.997D+00
 Gap=     0.481 Goal=   None    Shift=    0.000
 Gap=     0.308 Goal=   None    Shift=    0.000
 RMSDP=9.83D-10 MaxDP=3.86D-09 DE=-7.11D-15 OVMax= 3.33D-09

 Cycle  11  Pass 2  IDiag  1:
 SCF Done:  E(UPM3) =  0.148072969317E-01 A.U. after   11 cycles
            NFock= 10  Conv=0.98D-09     -V/T= 1.0008
 <Sx>= 0.0000 <Sy>= 0.0000 <Sz>= 0.5000 <S**2>= 0.7638 S= 0.5069
 <L.S>= 0.000000000000E+00
 KE=-1.878106523253D+01 PE=-7.527602592812D+00 EE= 9.541742128979D+00
 Annihilation of the first spin contaminant:
 S**2 before annihilation     0.7638,   after     0.7500
 Leave Link  502 at Wed Oct 21 14:24:13 2020, MaxMem=  2684354560 cpu:              30.3 elap:               3.9
 (Enter /udrive/faculty/rpeverati/g16/g16/l508.exe)
 QCSCF skips out because SCF is already converged.
 Leave Link  508 at Wed Oct 21 14:24:15 2020, MaxMem=  2684354560 cpu:               1.2 elap:               1.2
 (Enter /udrive/faculty/rpeverati/g16/g16/l701.exe)
 ... and contract with generalized density number  0.
 Compute integral first derivatives.
 Leave Link  701 at Wed Oct 21 14:24:17 2020, MaxMem=  2684354560 cpu:               5.5 elap:               1.4
 (Enter /udrive/faculty/rpeverati/g16/g16/l702.exe)
 L702 exits ... SP integral derivatives will be done elsewhere.
 Leave Link  702 at Wed Oct 21 14:24:19 2020, MaxMem=  2684354560 cpu:               1.3 elap:               1.2
 (Enter /udrive/faculty/rpeverati/g16/g16/l703.exe)
 Integral derivatives from FoFJK, PRISM(SPDF).
 Compute integral first derivatives, UseDBF=F ICtDFT=           0.
 Calling FoFJK, ICntrl=      2127 FMM=F ISym2X=1 I1Cent= 0 IOpClX= 1 NMat=1 NMatS=1 NMatT=0.
 FoFJK:  IHMeth= 9 ICntrl=    2127 DoSepK=F KAlg= 0 I1Cent=           0 FoldK=F
 IRaf=         0 NMat=       1 IRICut=       1 DoRegI=T DoRafI=F ISym2E= 1 IDoP0=3 IntGTp=3.
 FoFCou: FMM=F IPFlag=           0 FMFlag=      100000 FMFlg1=         800
         NFxFlg=           0 DoJE=F BraDBF=F KetDBF=F FulRan=T
         wScrn=  0.000000 ICntrl=      2127 IOpCl=  1 I1Cent=           0 NGrid=           0
         NMat0=    1 NMatS0=      1 NMatT0=    0 NMatD0=    1 NMtDS0=    0 NMtDT0=    0
 Petite list used in FoFCou.
 Leave Link  703 at Wed Oct 21 14:24:21 2020, MaxMem=  2684354560 cpu:               4.2 elap:               1.3
 (Enter /udrive/faculty/rpeverati/g16/g16/l716.exe)
 Dipole        =-3.52196953D-16 8.95312836D-17-5.31765472D-01
 ***** Axes restored to original set *****
 -------------------------------------------------------------------
 Center     Atomic                   Forces (Hartrees/Bohr)
 Number     Number              X              Y              Z
 -------------------------------------------------------------------
      1        1          -0.000000000    0.000000000   -0.017321731
      2       17          -0.000000000   -0.000000000    0.012087564
      3        1           0.000000000   -0.000000000    0.005234166
 -------------------------------------------------------------------
 Cartesian Forces:  Max     0.017321731 RMS     0.007253720
 Leave Link  716 at Wed Oct 21 14:24:23 2020, MaxMem=  2684354560 cpu:               1.6 elap:               1.4
 (Enter /udrive/faculty/rpeverati/g16/g16/l103.exe)

 GradGradGradGradGradGradGradGradGradGradGradGradGradGradGradGradGradGrad
 Berny optimization.
 Optmz: redundant internal coordinate code flag= 1
 Red2BG:  D1=  1.00D+00 OD1=  3.33D-16 B2RMS=  0.00D+00 IAprox=1
 Red2BG is reusing G-inverse.
 Internal  Forces:  Max     0.012087564 RMS     0.006586078
 Search for a saddle point.
 Step number   2 out of a maximum of   50
 All quantities printed in internal units (Hartrees-Bohrs-Radians)
 Swapping is turned off.
 Update second derivatives using D2CorX and points    1    2
 The second derivative matrix:
                          R1        R2        A1        A2
           R1           0.09017
           R2           0.07885   0.30387
           A1           0.00000  -0.00000   0.00230
           A2           0.00000  -0.00000  -0.00000   0.00230
 ITU=  0  0
 Eigenvectors of the second derivative matrix:
                           1         2         3         4
     Eigenvalues --     0.00230   0.00230   0.06423   0.32981
   1         R1         0.00000   0.00000  -0.94990  -0.31255
   2         R2        -0.00000  -0.00000   0.31255  -0.94990
   3         A1        -0.95361   0.30104  -0.00000   0.00000
   4         A2         0.30104   0.95361   0.00000  -0.00000
 Eigenvalue     1 is   2.30D-03 should be less than     0.000000 Eigenvector:
                          A1        A2        R1        R2
   1                   -0.95361   0.30104   0.00000  -0.00000
 RLam0= 2.30D-03.
 Iter=   1 RLamda= 0.00000000D+00 Sum=-2.68344009D-03.
 Iter=   2 RLamda=-2.68344009D-03 Sum=-2.57596434D-03.
 Iter=   3 RLamda=-2.57596434D-03 Sum=-2.58010296D-03.
 Iter=   4 RLamda=-2.58010296D-03 Sum=-2.57994335D-03.
 Iter=   5 RLamda=-2.57994335D-03 Sum=-2.57994950D-03.
 RFO step:  Lambda0=2.300010000D-03 Lambda=-2.57994335D-03.
 Linear search not attempted -- option 19 set.
 Maximum step size (   0.100) exceeded in Quadratic search.
    -- Step size scaled by   0.360
 Iteration  1 RMS(Cart)=  0.03659100 RMS(Int)=  0.00101020
 Iteration  2 RMS(Cart)=  0.00090099 RMS(Int)=  0.00000563
 Iteration  3 RMS(Cart)=  0.00000007 RMS(Int)=  0.00000563
 ITry= 1 IFail=0 DXMaxC= 4.22D-02 DCOld= 1.00D+10 DXMaxT= 1.00D-01 DXLimC= 3.00D+00 Rises=F
 ClnCor:  largest displacement from symmetrization is 4.42D-02 for atom     1.
 Variable       Old X    -DE/DX   Delta X   Delta X   Delta X     New X
                                 (Linear)    (Quad)   (Total)
    R1        2.98762   0.01209   0.00000   0.06675   0.06619   3.05381
    R2        1.45985  -0.00523   0.00000  -0.02333  -0.02523   1.43462
    A1        3.14159   0.00000   0.00000   0.06743   0.00000   3.14159
    A2        3.14159   0.00000   0.00000  -0.02129   0.00000   3.14159
         Item               Value     Threshold  Converged?
 Maximum Force            0.012088     0.000450     NO 
 RMS     Force            0.006586     0.000300     NO 
 Maximum Displacement     0.035716     0.001800     NO 
 RMS     Displacement     0.023620     0.001200     NO 
 Predicted change in Energy=-7.695397D-04
 Lowest energy point so far.  Saving SCF results.
 Largest change from initial coordinates is atom    1       0.035 Angstoms.
 GradGradGradGradGradGradGradGradGradGradGradGradGradGradGradGradGradGrad

 Leave Link  103 at Wed Oct 21 14:24:25 2020, MaxMem=  2684354560 cpu:               8.0 elap:               1.7
 (Enter /udrive/faculty/rpeverati/g16/g16/l202.exe)
                          Input orientation:                          
 ---------------------------------------------------------------------
 Center     Atomic      Atomic             Coordinates (Angstroms)
 Number     Number       Type             X           Y           Z
 ---------------------------------------------------------------------
      1          1           0       -0.000000    0.000000   -1.369625
      2         17           0        0.000000    0.000000    0.246382
      3          1           0        0.000000    0.000000   -2.128794
 ---------------------------------------------------------------------
                    Distance matrix (angstroms):
                    1          2          3
     1  H    0.000000
     2  Cl   1.616007   0.000000
     3  H    0.759169   2.375176   0.000000
 Stoichiometry    ClH2(2)
 Framework group  C*V[C*(HHCl)]
 Deg. of freedom     2
 Full point group                 C*V     NOp   4
 RotChk:  IX=0 Diff= 0.00D+00
 Largest Abelian subgroup         C2V     NOp   4
 Largest concise Abelian subgroup C1      NOp   1
                         Standard orientation:                         
 ---------------------------------------------------------------------
 Center     Atomic      Atomic             Coordinates (Angstroms)
 Number     Number       Type             X           Y           Z
 ---------------------------------------------------------------------
      1          1           0        0.000000    0.000000   -1.405945
      2         17           0        0.000000    0.000000    0.210062
      3          1           0        0.000000    0.000000   -2.165114
 ---------------------------------------------------------------------
 Rotational constants (GHZ):           0.0000000          64.1340200          64.1340200
 Leave Link  202 at Wed Oct 21 14:24:28 2020, MaxMem=  2684354560 cpu:               4.0 elap:               1.9
 (Enter /udrive/faculty/rpeverati/g16/g16/l301.exe)
 Standard basis: VSTO-6G (5D, 7F)
 Ernie: Thresh=  0.10000D-02 Tol=  0.10000D-05 Strict=F.
  NNHCO=     0 NNPyr=     0 NCTC=     0               EPep=         0.000000000
    EC=         3.863032176  ECS=         0.113938312   EG=         0.004106887
   EHC=         0.000000000  EAt=       -12.544072622  AtH=         0.212258150
 EPDDG=         0.000000000  ECC=         3.981077375 EAtT=        12.756330772
 There are     4 symmetry adapted cartesian basis functions of A1  symmetry.
 There are     0 symmetry adapted cartesian basis functions of A2  symmetry.
 There are     1 symmetry adapted cartesian basis functions of B1  symmetry.
 There are     1 symmetry adapted cartesian basis functions of B2  symmetry.
 There are     4 symmetry adapted basis functions of A1  symmetry.
 There are     0 symmetry adapted basis functions of A2  symmetry.
 There are     1 symmetry adapted basis functions of B1  symmetry.
 There are     1 symmetry adapted basis functions of B2  symmetry.
     6 basis functions,    36 primitive gaussians,     6 cartesian basis functions
     5 alpha electrons        4 beta electrons
       nuclear repulsion energy        16.7374081467 Hartrees.
 IExCor=    0 DFT=F Ex=HF Corr=None ExCW=0 ScaHFX=  1.000000
 ScaDFX=  1.000000  1.000000  1.000000  1.000000 ScalE2=  1.000000  1.000000
 IRadAn=      5 IRanWt=     -1 IRanGd=            0 ICorTp=0 IEmpDi=  4
 Integral buffers will be    131072 words long.
 Regular integral format.
 Two-electron integral symmetry is turned off.
 Leave Link  301 at Wed Oct 21 14:24:30 2020, MaxMem=  2684354560 cpu:               4.8 elap:               2.0
 (Enter /udrive/faculty/rpeverati/g16/g16/l302.exe)
 Do NDO integrals.
 NPDir=0 NMtPBC=     1 NCelOv=     1 NCel=       1 NClECP=     1 NCelD=      1
         NCelK=      1 NCelE2=     1 NClLst=     1 CellRange=     0.0.
 One-electron integrals computed using PRISM.
 NBasis=     6 RedAO= T EigKep=  1.00D+00  NBF=     4     0     1     1
 NBsUse=     6 1.00D-06 EigRej= -1.00D+00 NBFU=     4     0     1     1
 Leave Link  302 at Wed Oct 21 14:24:33 2020, MaxMem=  2684354560 cpu:               8.2 elap:               2.0
 (Enter /udrive/faculty/rpeverati/g16/g16/l303.exe)
 DipDrv:  MaxL=1.
 Leave Link  303 at Wed Oct 21 14:24:34 2020, MaxMem=  2684354560 cpu:               2.3 elap:               1.1
 (Enter /udrive/faculty/rpeverati/g16/g16/l401.exe)
 Initial guess from the checkpoint file:  "MN_78_RKT01_BH76_PM3_SE.chk"
 SCF N**3 symmetry information disabled.
 B after Tr=     0.000000    0.000000    0.000000
         Rot=    1.000000    0.000000    0.000000    0.000000 Ang=   0.00 deg.
 Guess basis will be translated and rotated to current coordinates.
 JPrj=0 DoOrth=T DoCkMO=T.
 Initial guess orbital symmetries:
 Alpha Orbitals:
       Occupied  (SG) (SG) (PI) (PI) (SG)
       Virtual   (SG)
 Beta  Orbitals:
       Occupied  (SG) (SG) (PI) (PI)
       Virtual   (SG) (SG)
 The electronic state of the initial guess is 2-SG.
 Initial guess <Sx>= 0.0000 <Sy>= 0.0000 <Sz>= 0.5000 <S**2>= 0.7638 S= 0.5069
 Leave Link  401 at Wed Oct 21 14:24:37 2020, MaxMem=  2684354560 cpu:               6.0 elap:               1.8
 (Enter /udrive/faculty/rpeverati/g16/g16/l502.exe)
 Keep J ints in memory in canonical form, NReq=859134.
 FoFCou: FMM=F IPFlag=           0 FMFlag=           0 FMFlg1=           0
         NFxFlg=           0 DoJE=F BraDBF=F KetDBF=F FulRan=T
         wScrn=  0.000000 ICntrl=       600 IOpCl=  2 I1Cent=           0 NGrid=           0
         NMat0=    1 NMatS0=     12 NMatT0=    0 NMatD0=    1 NMtDS0=    0 NMtDT0=    0
 Symmetry not used in FoFCou.
 Two-electron integral symmetry not used.
 UHF open shell SCF:
 Using DIIS extrapolation, IDIIS=  1040.
 Overlap will be assumed to be unity.
 NGot=  2684354560 LenX=  2684294129 LenY=  2684293247
 Requested convergence on RMS density matrix=1.00D-08 within 120 cycles.
 Requested convergence on MAX density matrix=1.00D-06.
 Requested convergence on             energy=1.00D-06.
 No special actions if energy rises.

 Cycle   1  Pass 1  IDiag  1:
 E= 0.143170331878508E-01
 DIIS: error= 2.30D-03 at cycle   1 NSaved=   1.
 NSaved= 1 IEnMin= 1 EnMin= 0.143170331878508E-01 IErMin= 1 ErrMin= 2.30D-03
 ErrMax= 2.30D-03  0.00D+00 EMaxC= 1.00D-01 BMatC= 1.95D-04 BMatP= 1.95D-04
 IDIUse=3 WtCom= 9.77D-01 WtEn= 2.30D-02
 Coeff-Com:  0.100D+01
 Coeff-En:   0.100D+01
 Coeff:      0.100D+01
 GapD=    2.000 DampG=2.000 DampE=1.000 DampFc=2.0000 IDamp=-1.
 RMSDP=2.14D-03 MaxDP=7.34D-03              OVMax= 0.00D+00

 Cycle   2  Pass 1  IDiag  3:
 E= 0.141600079871829E-01 Delta-E=       -0.000157025201 Rises=F Damp=F
 DIIS: error= 1.04D-03 at cycle   2 NSaved=   2.
 NSaved= 2 IEnMin= 2 EnMin= 0.141600079871829E-01 IErMin= 2 ErrMin= 1.04D-03
 ErrMax= 1.04D-03  0.00D+00 EMaxC= 1.00D-01 BMatC= 3.68D-05 BMatP= 1.95D-04
 IDIUse=3 WtCom= 9.90D-01 WtEn= 1.04D-02
 Coeff-Com: -0.279D+00 0.128D+01
 Coeff-En:   0.000D+00 0.100D+01
 Coeff:     -0.276D+00 0.128D+01
 Gap=     0.485 Goal=   None    Shift=    0.000
 Gap=     0.304 Goal=   None    Shift=    0.000
 RMSDP=1.74D-03 MaxDP=5.25D-03 DE=-1.57D-04 OVMax= 7.31D-03

 Cycle   3  Pass 1  IDiag  3:
 E= 0.140903976821356E-01 Delta-E=       -0.000069610305 Rises=F Damp=F
 DIIS: error= 7.30D-04 at cycle   3 NSaved=   3.
 NSaved= 3 IEnMin= 3 EnMin= 0.140903976821356E-01 IErMin= 3 ErrMin= 7.30D-04
 ErrMax= 7.30D-04  0.00D+00 EMaxC= 1.00D-01 BMatC= 1.38D-05 BMatP= 3.68D-05
 IDIUse=3 WtCom= 9.93D-01 WtEn= 7.30D-03
 Coeff-Com:  0.204D+00-0.170D+01 0.250D+01
 Coeff-En:   0.000D+00 0.000D+00 0.100D+01
 Coeff:      0.203D+00-0.169D+01 0.249D+01
 Gap=     0.487 Goal=   None    Shift=    0.000
 Gap=     0.304 Goal=   None    Shift=    0.000
 RMSDP=2.33D-03 MaxDP=7.84D-03 DE=-6.96D-05 OVMax= 1.04D-02

 Cycle   4  Pass 1  IDiag  3:
 E= 0.140468120030484E-01 Delta-E=       -0.000043585679 Rises=F Damp=F
 DIIS: error= 3.73D-04 at cycle   4 NSaved=   4.
 NSaved= 4 IEnMin= 4 EnMin= 0.140468120030484E-01 IErMin= 4 ErrMin= 3.73D-04
 ErrMax= 3.73D-04  0.00D+00 EMaxC= 1.00D-01 BMatC= 1.88D-06 BMatP= 1.38D-05
 IDIUse=3 WtCom= 9.96D-01 WtEn= 3.73D-03
 Coeff-Com: -0.295D+00 0.255D+01-0.397D+01 0.271D+01
 Coeff-En:   0.000D+00 0.000D+00 0.000D+00 0.100D+01
 Coeff:     -0.294D+00 0.255D+01-0.396D+01 0.271D+01
 Gap=     0.486 Goal=   None    Shift=    0.000
 Gap=     0.304 Goal=   None    Shift=    0.000
 RMSDP=8.36D-04 MaxDP=3.91D-03 DE=-4.36D-05 OVMax= 3.34D-03

 Cycle   5  Pass 1  IDiag  3:
 E= 0.140419358693471E-01 Delta-E=       -0.000004876134 Rises=F Damp=F
 DIIS: error= 4.45D-05 at cycle   5 NSaved=   5.
 NSaved= 5 IEnMin= 5 EnMin= 0.140419358693471E-01 IErMin= 5 ErrMin= 4.45D-05
 ErrMax= 4.45D-05  0.00D+00 EMaxC= 1.00D-01 BMatC= 2.95D-08 BMatP= 1.88D-06
 IDIUse=1 WtCom= 1.00D+00 WtEn= 0.00D+00
 Coeff-Com:  0.563D-01-0.500D+00 0.786D+00-0.634D+00 0.129D+01
 Coeff:      0.563D-01-0.500D+00 0.786D+00-0.634D+00 0.129D+01
 Gap=     0.486 Goal=   None    Shift=    0.000
 Gap=     0.304 Goal=   None    Shift=    0.000
 RMSDP=7.58D-05 MaxDP=3.09D-04 DE=-4.88D-06 OVMax= 2.98D-04

 Cycle   6  Pass 1  IDiag  3:
 E= 0.140418869421239E-01 Delta-E=       -0.000000048927 Rises=F Damp=F
 DIIS: error= 7.68D-06 at cycle   6 NSaved=   6.
 NSaved= 6 IEnMin= 6 EnMin= 0.140418869421239E-01 IErMin= 6 ErrMin= 7.68D-06
 ErrMax= 7.68D-06  0.00D+00 EMaxC= 1.00D-01 BMatC= 1.22D-09 BMatP= 2.95D-08
 IDIUse=1 WtCom= 1.00D+00 WtEn= 0.00D+00
 Coeff-Com: -0.305D-01 0.274D+00-0.429D+00 0.360D+00-0.934D+00 0.176D+01
 Coeff:     -0.305D-01 0.274D+00-0.429D+00 0.360D+00-0.934D+00 0.176D+01
 Gap=     0.486 Goal=   None    Shift=    0.000
 Gap=     0.304 Goal=   None    Shift=    0.000
 RMSDP=1.46D-05 MaxDP=5.40D-05 DE=-4.89D-08 OVMax= 7.48D-05

 Cycle   7  Pass 1  IDiag  3:
 E= 0.140418850663835E-01 Delta-E=       -0.000000001876 Rises=F Damp=F
 DIIS: error= 1.00D-06 at cycle   7 NSaved=   7.
 NSaved= 7 IEnMin= 7 EnMin= 0.140418850663835E-01 IErMin= 7 ErrMin= 1.00D-06
 ErrMax= 1.00D-06  0.00D+00 EMaxC= 1.00D-01 BMatC= 2.05D-11 BMatP= 1.22D-09
 IDIUse=1 WtCom= 1.00D+00 WtEn= 0.00D+00
 Coeff-Com:  0.299D-02-0.268D-01 0.404D-01-0.316D-01 0.933D-01-0.152D+00
 Coeff-Com:  0.107D+01
 Coeff:      0.299D-02-0.268D-01 0.404D-01-0.316D-01 0.933D-01-0.152D+00
 Coeff:      0.107D+01
 Gap=     0.486 Goal=   None    Shift=    0.000
 Gap=     0.304 Goal=   None    Shift=    0.000
 RMSDP=2.51D-06 MaxDP=8.14D-06 DE=-1.88D-09 OVMax= 1.02D-05

 Cycle   8  Pass 1  IDiag  3:
 E= 0.140418850257369E-01 Delta-E=       -0.000000000041 Rises=F Damp=F
 DIIS: error= 1.04D-07 at cycle   8 NSaved=   8.
 NSaved= 8 IEnMin= 8 EnMin= 0.140418850257369E-01 IErMin= 8 ErrMin= 1.04D-07
 ErrMax= 1.04D-07  0.00D+00 EMaxC= 1.00D-01 BMatC= 2.08D-13 BMatP= 2.05D-11
 IDIUse=1 WtCom= 1.00D+00 WtEn= 0.00D+00
 Coeff-Com: -0.160D-04 0.156D-03-0.123D-03-0.122D-03-0.502D-03-0.116D-02
 Coeff-Com:  0.116D-01 0.990D+00
 Coeff:     -0.160D-04 0.156D-03-0.123D-03-0.122D-03-0.502D-03-0.116D-02
 Coeff:      0.116D-01 0.990D+00
 Gap=     0.486 Goal=   None    Shift=    0.000
 Gap=     0.304 Goal=   None    Shift=    0.000
 RMSDP=2.20D-07 MaxDP=7.31D-07 DE=-4.06D-11 OVMax= 9.02D-07

 Cycle   9  Pass 1  IDiag  3:
 E= 0.140418850253461E-01 Delta-E=       -0.000000000000 Rises=F Damp=F
 DIIS: error= 1.71D-09 at cycle   9 NSaved=   9.
 NSaved= 9 IEnMin= 9 EnMin= 0.140418850253461E-01 IErMin= 9 ErrMin= 1.71D-09
 ErrMax= 1.71D-09  0.00D+00 EMaxC= 1.00D-01 BMatC= 5.75D-17 BMatP= 2.08D-13
 IDIUse=1 WtCom= 1.00D+00 WtEn= 0.00D+00
 Coeff-Com: -0.467D-05 0.314D-04-0.143D-03 0.298D-03-0.115D-03 0.187D-02
 Coeff-Com: -0.200D-01-0.858D+00 0.188D+01
 Coeff:     -0.467D-05 0.314D-04-0.143D-03 0.298D-03-0.115D-03 0.187D-02
 Coeff:     -0.200D-01-0.858D+00 0.188D+01
 Gap=     0.486 Goal=   None    Shift=    0.000
 Gap=     0.304 Goal=   None    Shift=    0.000
 RMSDP=4.04D-09 MaxDP=1.27D-08 DE=-3.91D-13 OVMax= 1.56D-08

 Cycle  10  Pass 2  IDiag  1:
 SCF Done:  E(UPM3) =  0.140418850253E-01 A.U. after   10 cycles
            NFock=  9  Conv=0.40D-08     -V/T= 1.0007
 <Sx>= 0.0000 <Sy>= 0.0000 <Sz>= 0.5000 <S**2>= 0.7616 S= 0.5058
 <L.S>= 0.000000000000E+00
 KE=-1.876723058998D+01 PE=-7.466374703219D+00 EE= 9.510239031479D+00
 Annihilation of the first spin contaminant:
 S**2 before annihilation     0.7616,   after     0.7500
 Leave Link  502 at Wed Oct 21 14:24:42 2020, MaxMem=  2684354560 cpu:              27.8 elap:               3.8
 (Enter /udrive/faculty/rpeverati/g16/g16/l508.exe)
 QCSCF skips out because SCF is already converged.
 Leave Link  508 at Wed Oct 21 14:24:43 2020, MaxMem=  2684354560 cpu:               0.8 elap:               1.2
 (Enter /udrive/faculty/rpeverati/g16/g16/l701.exe)
 ... and contract with generalized density number  0.
 Compute integral first derivatives.
 Leave Link  701 at Wed Oct 21 14:24:46 2020, MaxMem=  2684354560 cpu:               4.9 elap:               1.6
 (Enter /udrive/faculty/rpeverati/g16/g16/l702.exe)
 L702 exits ... SP integral derivatives will be done elsewhere.
 Leave Link  702 at Wed Oct 21 14:24:47 2020, MaxMem=  2684354560 cpu:               1.8 elap:               1.2
 (Enter /udrive/faculty/rpeverati/g16/g16/l703.exe)
 Integral derivatives from FoFJK, PRISM(SPDF).
 Compute integral first derivatives, UseDBF=F ICtDFT=           0.
 Calling FoFJK, ICntrl=      2127 FMM=F ISym2X=1 I1Cent= 0 IOpClX= 1 NMat=1 NMatS=1 NMatT=0.
 FoFJK:  IHMeth= 9 ICntrl=    2127 DoSepK=F KAlg= 0 I1Cent=           0 FoldK=F
 IRaf=         0 NMat=       1 IRICut=       1 DoRegI=T DoRafI=F ISym2E= 1 IDoP0=3 IntGTp=3.
 FoFCou: FMM=F IPFlag=           0 FMFlag=      100000 FMFlg1=         800
         NFxFlg=           0 DoJE=F BraDBF=F KetDBF=F FulRan=T
         wScrn=  0.000000 ICntrl=      2127 IOpCl=  1 I1Cent=           0 NGrid=           0
         NMat0=    1 NMatS0=      1 NMatT0=    0 NMatD0=    1 NMtDS0=    0 NMtDT0=    0
 Petite list used in FoFCou.
 Leave Link  703 at Wed Oct 21 14:24:49 2020, MaxMem=  2684354560 cpu:               3.9 elap:               1.2
 (Enter /udrive/faculty/rpeverati/g16/g16/l716.exe)
 Dipole        = 7.94941892D-17 7.16780073D-16-5.10736640D-01
 ***** Axes restored to original set *****
 -------------------------------------------------------------------
 Center     Atomic                   Forces (Hartrees/Bohr)
 Number     Number              X              Y              Z
 -------------------------------------------------------------------
      1        1           0.000000000   -0.000000000   -0.010876224
      2       17          -0.000000000    0.000000000    0.007737626
      3        1           0.000000000   -0.000000000    0.003138598
 -------------------------------------------------------------------
 Cartesian Forces:  Max     0.010876224 RMS     0.004570606
 Leave Link  716 at Wed Oct 21 14:24:51 2020, MaxMem=  2684354560 cpu:               1.8 elap:               1.3
 (Enter /udrive/faculty/rpeverati/g16/g16/l103.exe)

 GradGradGradGradGradGradGradGradGradGradGradGradGradGradGradGradGradGrad
 Berny optimization.
 Optmz: redundant internal coordinate code flag= 1
 Red2BG:  D1=  1.00D+00 OD1=  3.33D-16 B2RMS=  0.00D+00 IAprox=1
 Red2BG is reusing G-inverse.
 Internal  Forces:  Max     0.007737626 RMS     0.004174975
 Search for a saddle point.
 Step number   3 out of a maximum of   50
 All quantities printed in internal units (Hartrees-Bohrs-Radians)
 Swapping is turned off.
 Update second derivatives using D2CorX and points    1    2    3
 The second derivative matrix:
                          R1        R2        A1        A2
           R1           0.09772
           R2           0.08396   0.30334
           A1          -0.00000  -0.00000   0.00230
           A2           0.00000  -0.00000  -0.00000   0.00230
 ITU=  0  0  0
 Eigenvectors of the second derivative matrix:
                           1         2         3         4
     Eigenvalues --     0.00230   0.00230   0.06780   0.33327
   1         R1         0.00000   0.00000  -0.94195  -0.33575
   2         R2        -0.00000  -0.00000   0.33575  -0.94195
   3         A1        -0.97657  -0.21521  -0.00000   0.00000
   4         A2        -0.21521   0.97657   0.00000  -0.00000
 Eigenvalue     1 is   2.30D-03 should be less than     0.000000 Eigenvector:
                          A1        A2        R1        R2
   1                   -0.97657  -0.21521   0.00000  -0.00000
 RLam0= 2.30D-03.
 Iter=   1 RLamda= 0.00000000D+00 Sum=-1.02689744D-03.
 Iter=   2 RLamda=-1.02689744D-03 Sum=-1.01157976D-03.
 Iter=   3 RLamda=-1.01157976D-03 Sum=-1.01180488D-03.
 Iter=   4 RLamda=-1.01180488D-03 Sum=-1.01180157D-03.
 RFO step:  Lambda0=2.300010000D-03 Lambda=-1.01180488D-03.
 Linear search not attempted -- option 19 set.
 Maximum step size (   0.100) exceeded in Quadratic search.
    -- Step size scaled by   0.583
 Iteration  1 RMS(Cart)=  0.03631402 RMS(Int)=  0.00102410
 Iteration  2 RMS(Cart)=  0.00090419 RMS(Int)=  0.00000473
 Iteration  3 RMS(Cart)=  0.00000011 RMS(Int)=  0.00000472
 ITry= 1 IFail=0 DXMaxC= 4.28D-02 DCOld= 1.00D+10 DXMaxT= 1.00D-01 DXLimC= 3.00D+00 Rises=F
 ClnCor:  largest displacement from symmetrization is 4.38D-02 for atom     1.
 Variable       Old X    -DE/DX   Delta X   Delta X   Delta X     New X
                                 (Linear)    (Quad)   (Total)
    R1        3.05381   0.00774   0.00000   0.06639   0.06586   3.11967
    R2        1.43462  -0.00314   0.00000  -0.02433  -0.02625   1.40837
    A1        3.14159  -0.00000   0.00000   0.06905   0.00000   3.14159
    A2        3.14159  -0.00000   0.00000   0.01522   0.00000   3.14159
         Item               Value     Threshold  Converged?
 Maximum Force            0.007738     0.000450     NO 
 RMS     Force            0.004175     0.000300     NO 
 Maximum Displacement     0.035156     0.001800     NO 
 RMS     Displacement     0.023444     0.001200     NO 
 Predicted change in Energy=-4.206832D-04
 Lowest energy point so far.  Saving SCF results.
 Largest change from initial coordinates is atom    1       0.053 Angstoms.
 GradGradGradGradGradGradGradGradGradGradGradGradGradGradGradGradGradGrad

 Leave Link  103 at Wed Oct 21 14:24:54 2020, MaxMem=  2684354560 cpu:               8.2 elap:               2.1
 (Enter /udrive/faculty/rpeverati/g16/g16/l202.exe)
                          Input orientation:                          
 ---------------------------------------------------------------------
 Center     Atomic      Atomic             Coordinates (Angstroms)
 Number     Number       Type             X           Y           Z
 ---------------------------------------------------------------------
      1          1           0       -0.000000    0.000000   -1.385872
      2         17           0        0.000000    0.000000    0.264986
      3          1           0        0.000000    0.000000   -2.131151
 ---------------------------------------------------------------------
                    Distance matrix (angstroms):
                    1          2          3
     1  H    0.000000
     2  Cl   1.650858   0.000000
     3  H    0.745279   2.396136   0.000000
 Stoichiometry    ClH2(2)
 Framework group  C*V[C*(HHCl)]
 Deg. of freedom     2
 Full point group                 C*V     NOp   4
 RotChk:  IX=0 Diff= 0.00D+00
 Largest Abelian subgroup         C2V     NOp   4
 Largest concise Abelian subgroup C1      NOp   1
                         Standard orientation:                         
 ---------------------------------------------------------------------
 Center     Atomic      Atomic             Coordinates (Angstroms)
 Number     Number       Type             X           Y           Z
 ---------------------------------------------------------------------
      1          1           0        0.000000    0.000000   -1.437858
      2         17           0        0.000000    0.000000    0.213000
      3          1           0        0.000000    0.000000   -2.183137
 ---------------------------------------------------------------------
 Rotational constants (GHZ):           0.0000000          62.5216939          62.5216939
 Leave Link  202 at Wed Oct 21 14:24:57 2020, MaxMem=  2684354560 cpu:               3.8 elap:               1.8
 (Enter /udrive/faculty/rpeverati/g16/g16/l301.exe)
 Standard basis: VSTO-6G (5D, 7F)
 Ernie: Thresh=  0.10000D-02 Tol=  0.10000D-05 Strict=F.
  NNHCO=     0 NNPyr=     0 NCTC=     0               EPep=         0.000000000
    EC=         3.823399506  ECS=         0.112938490   EG=         0.003228313
   EHC=         0.000000000  EAt=       -12.544072622  AtH=         0.212258150
 EPDDG=         0.000000000  ECC=         3.939566310 EAtT=        12.756330772
 There are     4 symmetry adapted cartesian basis functions of A1  symmetry.
 There are     0 symmetry adapted cartesian basis functions of A2  symmetry.
 There are     1 symmetry adapted cartesian basis functions of B1  symmetry.
 There are     1 symmetry adapted cartesian basis functions of B2  symmetry.
 There are     4 symmetry adapted basis functions of A1  symmetry.
 There are     0 symmetry adapted basis functions of A2  symmetry.
 There are     1 symmetry adapted basis functions of B1  symmetry.
 There are     1 symmetry adapted basis functions of B2  symmetry.
     6 basis functions,    36 primitive gaussians,     6 cartesian basis functions
     5 alpha electrons        4 beta electrons
       nuclear repulsion energy        16.6958970818 Hartrees.
 IExCor=    0 DFT=F Ex=HF Corr=None ExCW=0 ScaHFX=  1.000000
 ScaDFX=  1.000000  1.000000  1.000000  1.000000 ScalE2=  1.000000  1.000000
 IRadAn=      5 IRanWt=     -1 IRanGd=            0 ICorTp=0 IEmpDi=  4
 Integral buffers will be    131072 words long.
 Regular integral format.
 Two-electron integral symmetry is turned off.
 Leave Link  301 at Wed Oct 21 14:24:58 2020, MaxMem=  2684354560 cpu:               3.5 elap:               1.2
 (Enter /udrive/faculty/rpeverati/g16/g16/l302.exe)
 Do NDO integrals.
 NPDir=0 NMtPBC=     1 NCelOv=     1 NCel=       1 NClECP=     1 NCelD=      1
         NCelK=      1 NCelE2=     1 NClLst=     1 CellRange=     0.0.
 One-electron integrals computed using PRISM.
 NBasis=     6 RedAO= T EigKep=  1.00D+00  NBF=     4     0     1     1
 NBsUse=     6 1.00D-06 EigRej= -1.00D+00 NBFU=     4     0     1     1
 Leave Link  302 at Wed Oct 21 14:25:01 2020, MaxMem=  2684354560 cpu:               5.1 elap:               1.3
 (Enter /udrive/faculty/rpeverati/g16/g16/l303.exe)
 DipDrv:  MaxL=1.
 Leave Link  303 at Wed Oct 21 14:25:02 2020, MaxMem=  2684354560 cpu:               2.2 elap:               1.1
 (Enter /udrive/faculty/rpeverati/g16/g16/l401.exe)
 Initial guess from the checkpoint file:  "MN_78_RKT01_BH76_PM3_SE.chk"
 SCF N**3 symmetry information disabled.
 B after Tr=     0.000000    0.000000    0.000000
         Rot=    1.000000    0.000000    0.000000    0.000000 Ang=   0.00 deg.
 Guess basis will be translated and rotated to current coordinates.
 JPrj=0 DoOrth=T DoCkMO=T.
 Initial guess orbital symmetries:
 Alpha Orbitals:
       Occupied  (SG) (SG) (PI) (PI) (SG)
       Virtual   (SG)
 Beta  Orbitals:
       Occupied  (SG) (SG) (PI) (PI)
       Virtual   (SG) (SG)
 The electronic state of the initial guess is 2-SG.
 Initial guess <Sx>= 0.0000 <Sy>= 0.0000 <Sz>= 0.5000 <S**2>= 0.7616 S= 0.5058
 Leave Link  401 at Wed Oct 21 14:25:05 2020, MaxMem=  2684354560 cpu:               5.4 elap:               1.5
 (Enter /udrive/faculty/rpeverati/g16/g16/l502.exe)
 Keep J ints in memory in canonical form, NReq=859134.
 FoFCou: FMM=F IPFlag=           0 FMFlag=           0 FMFlg1=           0
         NFxFlg=           0 DoJE=F BraDBF=F KetDBF=F FulRan=T
         wScrn=  0.000000 ICntrl=       600 IOpCl=  2 I1Cent=           0 NGrid=           0
         NMat0=    1 NMatS0=     12 NMatT0=    0 NMatD0=    1 NMtDS0=    0 NMtDT0=    0
 Symmetry not used in FoFCou.
 Two-electron integral symmetry not used.
 UHF open shell SCF:
 Using DIIS extrapolation, IDIIS=  1040.
 Overlap will be assumed to be unity.
 NGot=  2684354560 LenX=  2684294129 LenY=  2684293247
 Requested convergence on RMS density matrix=1.00D-08 within 120 cycles.
 Requested convergence on MAX density matrix=1.00D-06.
 Requested convergence on             energy=1.00D-06.
 No special actions if energy rises.

 Cycle   1  Pass 1  IDiag  1:
 E= 0.138852278397152E-01
 DIIS: error= 2.17D-03 at cycle   1 NSaved=   1.
 NSaved= 1 IEnMin= 1 EnMin= 0.138852278397152E-01 IErMin= 1 ErrMin= 2.17D-03
 ErrMax= 2.17D-03  0.00D+00 EMaxC= 1.00D-01 BMatC= 1.82D-04 BMatP= 1.82D-04
 IDIUse=3 WtCom= 9.78D-01 WtEn= 2.17D-02
 Coeff-Com:  0.100D+01
 Coeff-En:   0.100D+01
 Coeff:      0.100D+01
 GapD=    2.000 DampG=2.000 DampE=1.000 DampFc=2.0000 IDamp=-1.
 RMSDP=2.08D-03 MaxDP=7.02D-03              OVMax= 0.00D+00

 Cycle   2  Pass 1  IDiag  3:
 E= 0.137379844431784E-01 Delta-E=       -0.000147243397 Rises=F Damp=F
 DIIS: error= 1.01D-03 at cycle   2 NSaved=   2.
 NSaved= 2 IEnMin= 2 EnMin= 0.137379844431784E-01 IErMin= 2 ErrMin= 1.01D-03
 ErrMax= 1.01D-03  0.00D+00 EMaxC= 1.00D-01 BMatC= 3.33D-05 BMatP= 1.82D-04
 IDIUse=3 WtCom= 9.90D-01 WtEn= 1.01D-02
 Coeff-Com: -0.290D+00 0.129D+01
 Coeff-En:   0.000D+00 0.100D+01
 Coeff:     -0.287D+00 0.129D+01
 Gap=     0.491 Goal=   None    Shift=    0.000
 Gap=     0.301 Goal=   None    Shift=    0.000
 RMSDP=1.66D-03 MaxDP=4.95D-03 DE=-1.47D-04 OVMax= 7.07D-03

 Cycle   3  Pass 1  IDiag  3:
 E= 0.136759785864236E-01 Delta-E=       -0.000062005857 Rises=F Damp=F
 DIIS: error= 6.80D-04 at cycle   3 NSaved=   3.
 NSaved= 3 IEnMin= 3 EnMin= 0.136759785864236E-01 IErMin= 3 ErrMin= 6.80D-04
 ErrMax= 6.80D-04  0.00D+00 EMaxC= 1.00D-01 BMatC= 1.16D-05 BMatP= 3.33D-05
 IDIUse=3 WtCom= 9.93D-01 WtEn= 6.80D-03
 Coeff-Com:  0.195D+00-0.155D+01 0.236D+01
 Coeff-En:   0.000D+00 0.000D+00 0.100D+01
 Coeff:      0.194D+00-0.154D+01 0.235D+01
 Gap=     0.492 Goal=   None    Shift=    0.000
 Gap=     0.301 Goal=   None    Shift=    0.000
 RMSDP=1.99D-03 MaxDP=6.69D-03 DE=-6.20D-05 OVMax= 8.69D-03

 Cycle   4  Pass 1  IDiag  3:
 E= 0.136415975879167E-01 Delta-E=       -0.000034380999 Rises=F Damp=F
 DIIS: error= 3.56D-04 at cycle   4 NSaved=   4.
 NSaved= 4 IEnMin= 4 EnMin= 0.136415975879167E-01 IErMin= 4 ErrMin= 3.56D-04
 ErrMax= 3.56D-04  0.00D+00 EMaxC= 1.00D-01 BMatC= 1.69D-06 BMatP= 1.16D-05
 IDIUse=3 WtCom= 9.96D-01 WtEn= 3.56D-03
 Coeff-Com: -0.290D+00 0.242D+01-0.392D+01 0.278D+01
 Coeff-En:   0.000D+00 0.000D+00 0.000D+00 0.100D+01
 Coeff:     -0.289D+00 0.241D+01-0.390D+01 0.278D+01
 Gap=     0.492 Goal=   None    Shift=    0.000
 Gap=     0.301 Goal=   None    Shift=    0.000
 RMSDP=7.80D-04 MaxDP=3.68D-03 DE=-3.44D-05 OVMax= 2.98D-03

 Cycle   5  Pass 1  IDiag  3:
 E= 0.136373119324844E-01 Delta-E=       -0.000004285655 Rises=F Damp=F
 DIIS: error= 3.80D-05 at cycle   5 NSaved=   5.
 NSaved= 5 IEnMin= 5 EnMin= 0.136373119324844E-01 IErMin= 5 ErrMin= 3.80D-05
 ErrMax= 3.80D-05  0.00D+00 EMaxC= 1.00D-01 BMatC= 2.00D-08 BMatP= 1.69D-06
 IDIUse=1 WtCom= 1.00D+00 WtEn= 0.00D+00
 Coeff-Com:  0.583D-01-0.483D+00 0.782D+00-0.632D+00 0.127D+01
 Coeff:      0.583D-01-0.483D+00 0.782D+00-0.632D+00 0.127D+01
 Gap=     0.492 Goal=   None    Shift=    0.000
 Gap=     0.301 Goal=   None    Shift=    0.000
 RMSDP=5.73D-05 MaxDP=2.39D-04 DE=-4.29D-06 OVMax= 2.40D-04

 Cycle   6  Pass 1  IDiag  3:
 E= 0.136372810820369E-01 Delta-E=       -0.000000030850 Rises=F Damp=F
 DIIS: error= 7.13D-06 at cycle   6 NSaved=   6.
 NSaved= 6 IEnMin= 6 EnMin= 0.136372810820369E-01 IErMin= 6 ErrMin= 7.13D-06
 ErrMax= 7.13D-06  0.00D+00 EMaxC= 1.00D-01 BMatC= 9.58D-10 BMatP= 2.00D-08
 IDIUse=1 WtCom= 1.00D+00 WtEn= 0.00D+00
 Coeff-Com: -0.287D-01 0.238D+00-0.383D+00 0.319D+00-0.836D+00 0.169D+01
 Coeff:     -0.287D-01 0.238D+00-0.383D+00 0.319D+00-0.836D+00 0.169D+01
 Gap=     0.492 Goal=   None    Shift=    0.000
 Gap=     0.301 Goal=   None    Shift=    0.000
 RMSDP=1.16D-05 MaxDP=3.97D-05 DE=-3.09D-08 OVMax= 5.56D-05

 Cycle   7  Pass 1  IDiag  3:
 E= 0.136372796658399E-01 Delta-E=       -0.000000001416 Rises=F Damp=F
 DIIS: error= 6.50D-07 at cycle   7 NSaved=   7.
 NSaved= 7 IEnMin= 7 EnMin= 0.136372796658399E-01 IErMin= 7 ErrMin= 6.50D-07
 ErrMax= 6.50D-07  0.00D+00 EMaxC= 1.00D-01 BMatC= 7.64D-12 BMatP= 9.58D-10
 IDIUse=1 WtCom= 1.00D+00 WtEn= 0.00D+00
 Coeff-Com:  0.234D-02-0.194D-01 0.300D-01-0.232D-01 0.667D-01-0.143D+00
 Coeff-Com:  0.109D+01
 Coeff:      0.234D-02-0.194D-01 0.300D-01-0.232D-01 0.667D-01-0.143D+00
 Coeff:      0.109D+01
 Gap=     0.492 Goal=   None    Shift=    0.000
 Gap=     0.301 Goal=   None    Shift=    0.000
 RMSDP=1.44D-06 MaxDP=5.28D-06 DE=-1.42D-09 OVMax= 7.23D-06

 Cycle   8  Pass 1  IDiag  3:
 E= 0.136372796517676E-01 Delta-E=       -0.000000000014 Rises=F Damp=F
 DIIS: error= 6.13D-08 at cycle   8 NSaved=   8.
 NSaved= 8 IEnMin= 8 EnMin= 0.136372796517676E-01 IErMin= 8 ErrMin= 6.13D-08
 ErrMax= 6.13D-08  0.00D+00 EMaxC= 1.00D-01 BMatC= 7.57D-14 BMatP= 7.64D-12
 IDIUse=1 WtCom= 1.00D+00 WtEn= 0.00D+00
 Coeff-Com: -0.392D-04 0.323D-03-0.308D-03-0.500D-04-0.134D-02 0.167D-02
 Coeff-Com: -0.996D-01 0.110D+01
 Coeff:     -0.392D-04 0.323D-03-0.308D-03-0.500D-04-0.134D-02 0.167D-02
 Coeff:     -0.996D-01 0.110D+01
 Gap=     0.492 Goal=   None    Shift=    0.000
 Gap=     0.301 Goal=   None    Shift=    0.000
 RMSDP=1.39D-07 MaxDP=4.25D-07 DE=-1.41D-11 OVMax= 5.77D-07

 Cycle   9  Pass 1  IDiag  3:
 E= 0.136372796516255E-01 Delta-E=       -0.000000000000 Rises=F Damp=F
 DIIS: error= 2.42D-09 at cycle   9 NSaved=   9.
 NSaved= 9 IEnMin= 9 EnMin= 0.136372796516255E-01 IErMin= 9 ErrMin= 2.42D-09
 ErrMax= 2.42D-09  0.00D+00 EMaxC= 1.00D-01 BMatC= 1.01D-16 BMatP= 7.57D-14
 IDIUse=1 WtCom= 1.00D+00 WtEn= 0.00D+00
 Coeff-Com: -0.557D-05 0.471D-04-0.251D-03 0.460D-03 0.595D-04 0.864D-03
 Coeff-Com:  0.752D-01-0.927D+00 0.185D+01
 Coeff:     -0.557D-05 0.471D-04-0.251D-03 0.460D-03 0.595D-04 0.864D-03
 Coeff:      0.752D-01-0.927D+00 0.185D+01
 Gap=     0.492 Goal=   None    Shift=    0.000
 Gap=     0.301 Goal=   None    Shift=    0.000
 RMSDP=5.47D-09 MaxDP=1.86D-08 DE=-1.42D-13 OVMax= 2.34D-08

 Cycle  10  Pass 2  IDiag  1:
 SCF Done:  E(UPM3) =  0.136372796516E-01 A.U. after   10 cycles
            NFock=  9  Conv=0.55D-08     -V/T= 1.0007
 <Sx>= 0.0000 <Sy>= 0.0000 <Sz>= 0.5000 <S**2>= 0.7595 S= 0.5048
 <L.S>= 0.000000000000E+00
 KE=-1.875311391894D+01 PE=-7.407882062747D+00 EE= 9.478736179579D+00
 Annihilation of the first spin contaminant:
 S**2 before annihilation     0.7595,   after     0.7500
 Leave Link  502 at Wed Oct 21 14:25:08 2020, MaxMem=  2684354560 cpu:              21.7 elap:               2.7
 (Enter /udrive/faculty/rpeverati/g16/g16/l508.exe)
 QCSCF skips out because SCF is already converged.
 Leave Link  508 at Wed Oct 21 14:25:10 2020, MaxMem=  2684354560 cpu:               0.8 elap:               1.2
 (Enter /udrive/faculty/rpeverati/g16/g16/l701.exe)
 ... and contract with generalized density number  0.
 Compute integral first derivatives.
 Leave Link  701 at Wed Oct 21 14:25:12 2020, MaxMem=  2684354560 cpu:               4.7 elap:               1.5
 (Enter /udrive/faculty/rpeverati/g16/g16/l702.exe)
 L702 exits ... SP integral derivatives will be done elsewhere.
 Leave Link  702 at Wed Oct 21 14:25:14 2020, MaxMem=  2684354560 cpu:               1.8 elap:               1.2
 (Enter /udrive/faculty/rpeverati/g16/g16/l703.exe)
 Integral derivatives from FoFJK, PRISM(SPDF).
 Compute integral first derivatives, UseDBF=F ICtDFT=           0.
 Calling FoFJK, ICntrl=      2127 FMM=F ISym2X=1 I1Cent= 0 IOpClX= 1 NMat=1 NMatS=1 NMatT=0.
[...]
                     PI                     PI                     SG
 Frequencies --    397.9012               397.9012              1071.9289
 Red. masses --      1.0096                 1.0096                 1.0641
 Frc consts  --      0.0942                 0.0942                 0.7204
 IR Inten    --      2.9331                 2.9331                73.0489
  Atom  AN      X      Y      Z        X      Y      Z        X      Y      Z
     1   1     0.82  -0.09   0.00     0.09   0.82   0.00    -0.00  -0.00   0.73
     2  17    -0.01   0.00  -0.00    -0.00  -0.01  -0.00     0.00   0.00  -0.04
     3   1    -0.57   0.06   0.00    -0.06  -0.57   0.00     0.00   0.00   0.69
                      4
                     SG
 Frequencies --   3797.6308
 Red. masses --      1.0079
 Frc consts  --      8.5640
 IR Inten    --    139.0163
  Atom  AN      X      Y      Z
     1   1     0.00   0.00  -0.69
     2  17    -0.00  -0.00  -0.00
     3   1    -0.00  -0.00   0.73

 -------------------
 - Thermochemistry -
 -------------------
 Temperature   298.150 Kelvin.  Pressure   1.00000 Atm.
 Atom     1 has atomic number  1 and mass   1.00783
 Atom     2 has atomic number 17 and mass  34.96885
 Atom     3 has atomic number  1 and mass   1.00783
 Molecular mass:    36.98450 amu.
 Principal axes and moments of inertia in atomic units:
                           1         2         3
     Eigenvalues --     0.00000  29.43973  29.43973
           X            0.00000   0.00000   1.00000
           Y            0.00000   1.00000   0.00000
           Z            1.00000   0.00000   0.00000
 This molecule is a prolate symmetric top.
 Rotational symmetry number  1.
 Rotational temperature (Kelvin)      2.94208
 Rotational constant (GHZ):          61.302921
 Zero-point vibrational energy      33886.4 (Joules/Mol)
                                    8.09904 (Kcal/Mol)
 Warning -- explicit consideration of   2 degrees of freedom as
           vibrations may cause significant error
 Vibrational temperatures:    572.49   572.49  1542.27  5463.94
          (Kelvin)
 
 Zero-point correction=                           0.012907 (Hartree/Particle)
 Thermal correction to Energy=                    0.015918
 Thermal correction to Enthalpy=                  0.016862
 Thermal correction to Gibbs Free Energy=        -0.007515
 Sum of electronic and zero-point Energies=              0.026472
 Sum of electronic and thermal Energies=                 0.029483
 Sum of electronic and thermal Enthalpies=               0.030428
 Sum of electronic and thermal Free Energies=            0.006050
 
                     E (Thermal)             CV                S
                      KCal/Mol        Cal/Mol-Kelvin    Cal/Mol-Kelvin
 Total                    9.989              8.222             51.306
 Electronic               0.000              0.000              1.377
 Translational            0.889              2.981             36.753
 Rotational               0.592              1.987             11.165
 Vibrational              8.507              3.254              2.011
 Vibration     1          0.764              1.475              0.970
 Vibration     2          0.764              1.475              0.970
                       Q            Log10(Q)             Ln(Q)
 Total Bot       0.286289D+04          3.456804          7.959586
 Total V=0       0.247425D+10          9.393444         21.629203
 Vib (Bot)       0.159775D-05         -5.796490        -13.346911
 Vib (Bot)    1  0.448628D+00         -0.348114         -0.801562
 Vib (Bot)    2  0.448628D+00         -0.348114         -0.801562
 Vib (V=0)       0.138086D+01          0.140149          0.322705
 Vib (V=0)    1  0.117176D+01          0.068840          0.158510
 Vib (V=0)    2  0.117176D+01          0.068840          0.158510
 Electronic      0.200000D+01          0.301030          0.693147
 Translational   0.884064D+07          6.946484         15.994869
 Rotational      0.101340D+03          2.005781          4.618481
 
                                                          TS search on BH76.
                                                             IR Spectrum
 
     3                                                                                           1                                   
     7                                                                                           0                     3             
     9                                                                                           7                     9             
     8                                                                                           2                     8             
 
     X                                                                                           X                     X             
     X                                                                                           X                                   
     X                                                                                           X                                   
     X                                                                                           X                                   
     X                                                                                           X                                   
     X                                                                                           X                                   
     X                                                                                           X                                   
     X                                                                                           X                                   
     X                                                                                           X                                   
     X                                                                                           X                                   
     X                                                                                           X                                   
     X                                                                                                                               
     X                                                                                                                               
     X                                                                                                                               
     X                                                                                                                               
     X                                                                                                                               
     X                                                                                                                               
     X                                                                                                                               
     X                                                                                                                               
     X                                                                                                                               
 
 ***** Axes restored to original set *****
 -------------------------------------------------------------------
 Center     Atomic                   Forces (Hartrees/Bohr)
 Number     Number              X              Y              Z
 -------------------------------------------------------------------
      1        1          -0.000000000    0.000000000    0.000017730
      2       17           0.000000000   -0.000000000    0.000018517
      3        1          -0.000000000   -0.000000000   -0.000036247
 -------------------------------------------------------------------
 Cartesian Forces:  Max     0.000036247 RMS     0.000014799
 Force constants in Cartesian coordinates: 
                1             2             3             4             5 
      1  0.407661D-02
      2  0.000000D+00  0.407661D-02
      3  0.000000D+00  0.000000D+00  0.282431D+00
      4 -0.125542D-02  0.000000D+00  0.000000D+00  0.381360D-03
      5  0.000000D+00 -0.125542D-02  0.000000D+00  0.000000D+00  0.381360D-03
      6  0.000000D+00  0.000000D+00 -0.284834D-01  0.000000D+00  0.000000D+00
      7 -0.282119D-02  0.000000D+00  0.000000D+00  0.874056D-03  0.000000D+00
      8  0.000000D+00 -0.282119D-02  0.000000D+00  0.000000D+00  0.874056D-03
      9  0.000000D+00  0.000000D+00 -0.253947D+00  0.000000D+00  0.000000D+00
                6             7             8             9 
      6  0.835701D-01
      7  0.000000D+00  0.194713D-02
      8  0.000000D+00  0.000000D+00  0.194713D-02
      9 -0.550867D-01  0.000000D+00  0.000000D+00  0.309034D+00
 FormGI is forming the generalized inverse of G from B-inverse, IUseBI=4.
 Force constants in internal coordinates: 
                1             2             3             4 
      1  0.835701D-01
      2  0.550867D-01  0.309034D+00
      3  0.000000D+00  0.000000D+00  0.387410D-02
      4  0.000000D+00  0.000000D+00  0.000000D+00  0.387410D-02
 Leave Link  716 at Wed Oct 21 14:27:08 2020, MaxMem=  2684354560 cpu:               5.1 elap:               1.5
 (Enter /udrive/faculty/rpeverati/g16/g16/l103.exe)

 GradGradGradGradGradGradGradGradGradGradGradGradGradGradGradGradGradGrad
 Berny optimization.
 Optmz: redundant internal coordinate code flag= 1
 Red2BG:  D1=  1.00D+00 OD1=  3.33D-16 B2RMS=  0.00D+00 IAprox=1
 Red2BG is reusing G-inverse.
 Internal  Forces:  Max     0.000036247 RMS     0.000020351
 Search for a local minimum.
 Step number   1 out of a maximum of    2
 All quantities printed in internal units (Hartrees-Bohrs-Radians)
 Second derivative matrix not updated -- analytic derivatives used.
 The second derivative matrix:
                          R1        R2        A1        A2
           R1           0.08357
           R2           0.05509   0.30903
           A1           0.00000  -0.00000   0.00387
           A2          -0.00000  -0.00000  -0.00000   0.00387
 ITU=  0
 Eigenvectors of the second derivative matrix:
                           1         2         3         4
     Eigenvalues --     0.00387   0.00387   0.07083   0.32177
   1         R1        -0.00000  -0.00000  -0.97429  -0.22531
   2         R2         0.00000   0.00000   0.22531  -0.97429
   3         A1        -0.93094   0.36517  -0.00000   0.00000
   4         A2         0.36517   0.93094  -0.00000   0.00000
 Angle between quadratic step and forces=  34.60 degrees.
 Linear search not attempted -- first point.
 Iteration  1 RMS(Cart)=  0.00009028 RMS(Int)=  0.00000000
 Iteration  2 RMS(Cart)=  0.00000000 RMS(Int)=  0.00000000
 ITry= 1 IFail=0 DXMaxC= 1.38D-04 DCOld= 1.00D+10 DXMaxT= 3.00D-01 DXLimC= 3.00D+00 Rises=F
 ClnCor:  largest displacement from symmetrization is 5.89D-14 for atom     1.
 Variable       Old X    -DE/DX   Delta X   Delta X   Delta X     New X
                                 (Linear)    (Quad)   (Total)
    R1        3.16308   0.00002   0.00000   0.00016   0.00016   3.16324
    R2        1.40127   0.00004   0.00000   0.00009   0.00009   1.40136
    A1        3.14159   0.00000   0.00000   0.00000   0.00000   3.14159
    A2        3.14159   0.00000   0.00000   0.00000   0.00000   3.14159
         Item               Value     Threshold  Converged?
 Maximum Force            0.000036     0.000450     YES
 RMS     Force            0.000020     0.000300     YES
 Maximum Displacement     0.000138     0.001800     YES
 RMS     Displacement     0.000090     0.001200     YES
 Predicted change in Energy=-3.111065D-09
 Optimization completed.
    -- Stationary point found.
                           ----------------------------
                           !   Optimized Parameters   !
                           ! (Angstroms and Degrees)  !
 --------------------------                            --------------------------
 ! Name  Definition              Value          Derivative Info.                !
 --------------------------------------------------------------------------------
 ! R1    R(1,2)                  1.6738         -DE/DX =    0.0                 !
 ! R2    R(1,3)                  0.7415         -DE/DX =    0.0                 !
 ! A1    L(2,1,3,-1,-1)        180.0            -DE/DX =    0.0                 !
 ! A2    L(2,1,3,-2,-2)        180.0            -DE/DX =    0.0                 !
 --------------------------------------------------------------------------------
 GradGradGradGradGradGradGradGradGradGradGradGradGradGradGradGradGradGrad

 Leave Link  103 at Wed Oct 21 14:27:10 2020, MaxMem=  2684354560 cpu:               8.1 elap:               1.7
 (Enter /udrive/faculty/rpeverati/g16/g16/l9999.exe)

 ----------------------------------------------------------------------

 Electric dipole moment (input orientation):
 (Debye = 10**-18 statcoulomb cm , SI units = C m)
                  (au)            (Debye)         (10**-30 SI)
   Tot        0.470521D+00      0.119594D+01      0.398924D+01
   x          0.000000D+00      0.000000D+00      0.000000D+00
   y          0.000000D+00      0.000000D+00      0.000000D+00
   z         -0.470521D+00     -0.119594D+01     -0.398924D+01

 Dipole polarizability, Alpha (input orientation).
 (esu units = cm**3 , SI units = C**2 m**2 J**-1)
 Alpha(0;0):
               (au)            (10**-24 esu)      (10**-40 SI)
   iso        0.769985D+01      0.114100D+01      0.126953D+01
   aniso      0.228509D+02      0.338616D+01      0.376761D+01
   xx         0.828768D-01      0.122811D-01      0.136645D-01
   yx         0.000000D+00      0.000000D+00      0.000000D+00
   yy         0.828768D-01      0.122811D-01      0.136645D-01
   zx         0.000000D+00      0.000000D+00      0.000000D+00
   zy         0.000000D+00      0.000000D+00      0.000000D+00
   zz         0.229338D+02      0.339844D+01      0.378127D+01

 First dipole hyperpolarizability, Beta (input orientation).
 ||, _|_  parallel and perpendicular components, (z) with respect to z axis,
 vector components x,y,z.  Values do not include the 1/n! factor of 1/2.
 (esu units = statvolt**-1 cm**4 , SI units = C**3 m**3 J**-2)
 Beta(0;0,0):
               (au)            (10**-30 esu)      (10**-50 SI)
   || (z)     0.134387D+03      0.116100D+01      0.430893D+00
   _|_(z)     0.447956D+02      0.386999D+00      0.143631D+00
   x          0.000000D+00      0.000000D+00      0.000000D+00
   y          0.000000D+00      0.000000D+00      0.000000D+00
   z          0.671935D+03      0.580499D+01      0.215447D+01
   ||         0.134387D+03      0.116100D+01      0.430893D+00
   xxx        0.000000D+00      0.000000D+00      0.000000D+00
   xxy        0.000000D+00      0.000000D+00      0.000000D+00
   yxy        0.000000D+00      0.000000D+00      0.000000D+00
   yyy        0.000000D+00      0.000000D+00      0.000000D+00
   xxz        0.226862D+01      0.195991D-01      0.727401D-02
   yxz        0.000000D+00      0.000000D+00      0.000000D+00
   yyz        0.226862D+01      0.195991D-01      0.727401D-02
   zxz        0.000000D+00      0.000000D+00      0.000000D+00
   zyz        0.000000D+00      0.000000D+00      0.000000D+00
   zzz        0.219441D+03      0.189580D+01      0.703607D+00

 ----------------------------------------------------------------------

 Dipole orientation:
     1          0.00000000          0.00000000          2.63575571
    17         -0.00000000         -0.00000000         -0.52732194
     1          0.00000000          0.00000000          4.03702523

 Electric dipole moment (dipole orientation):
 (Debye = 10**-18 statcoulomb cm , SI units = C m)
                  (au)            (Debye)         (10**-30 SI)
   Tot        0.470521D+00      0.119594D+01      0.398924D+01
   x          0.000000D+00      0.000000D+00      0.000000D+00
   y          0.000000D+00      0.000000D+00      0.000000D+00
   z          0.470521D+00      0.119594D+01      0.398924D+01

 Dipole polarizability, Alpha (dipole orientation).
 (esu units = cm**3 , SI units = C**2 m**2 J**-1)
 Alpha(0;0):
               (au)            (10**-24 esu)      (10**-40 SI)
   iso        0.769985D+01      0.114100D+01      0.126953D+01
   aniso      0.228509D+02      0.338616D+01      0.376761D+01
   xx         0.828768D-01      0.122811D-01      0.136645D-01
   yx         0.000000D+00      0.000000D+00      0.000000D+00
   yy         0.828768D-01      0.122811D-01      0.136645D-01
   zx         0.000000D+00      0.000000D+00      0.000000D+00
   zy         0.000000D+00      0.000000D+00      0.000000D+00
   zz         0.229338D+02      0.339844D+01      0.378127D+01

 First dipole hyperpolarizability, Beta (dipole orientation).
 ||, _|_  parallel and perpendicular components, (z) with respect to z axis,
 vector components x,y,z.  Values do not include the 1/n! factor of 1/2.
 (esu units = statvolt**-1 cm**4 , SI units = C**3 m**3 J**-2)
 Beta(0;0,0):
               (au)            (10**-30 esu)      (10**-50 SI)
   || (z)    -0.134387D+03     -0.116100D+01     -0.430893D+00
   _|_(z)    -0.447956D+02     -0.386999D+00     -0.143631D+00
   x          0.000000D+00      0.000000D+00      0.000000D+00
   y          0.000000D+00      0.000000D+00      0.000000D+00
   z         -0.671935D+03     -0.580499D+01     -0.215447D+01
   ||         0.134387D+03      0.116100D+01      0.430893D+00
   xxx        0.000000D+00      0.000000D+00      0.000000D+00
   xxy        0.000000D+00      0.000000D+00      0.000000D+00
   yxy        0.000000D+00      0.000000D+00      0.000000D+00
   yyy        0.000000D+00      0.000000D+00      0.000000D+00
   xxz       -0.226862D+01     -0.195991D-01     -0.727401D-02
   yxz        0.000000D+00      0.000000D+00      0.000000D+00
   yyz       -0.226862D+01     -0.195991D-01     -0.727401D-02
   zxz        0.000000D+00      0.000000D+00      0.000000D+00
   zyz        0.000000D+00      0.000000D+00      0.000000D+00
   zzz       -0.219441D+03     -0.189580D+01     -0.703607D+00

 ----------------------------------------------------------------------

 Test job not archived.
 1\1\GINC-NODE52\Freq\UPM3\ZDO\Cl1H2(2)\RPEVERATI\21-Oct-2020\0\\#P Fre
 q PM3 5D 7F Integral=UltraFineGrid SCF=(NoSymm,XQC,MaxCyc=120) IOp(1/3
 3=1) Geom=Check Guess=Read\\TS search on BH76.\\0,2\H,0.,0.,-1.3947818
 557\Cl,0.,0.,0.2790467523\H,0.,0.,-2.1363017493\\Version=ES64L-G16RevA
 .03\State=2-SG\HF=0.0135657\S2=0.758605\S2-1=0.\S2A=0.75\RMSD=5.802e-1
 1\RMSF=1.480e-05\ZeroPoint=0.0129066\Thermal=0.0159178\Dipole=0.,0.,-0
 .4705205\DipoleDeriv=0.0927761,0.,0.,0.,0.0927761,0.,0.,0.,-0.4550483,
 -0.1315686,0.,0.,0.,-0.1315686,0.,0.,0.,0.3636635,0.0387925,0.,0.,0.,0
 .0387925,0.,0.,0.,0.0913851\Polar=0.0828768,0.,0.0828768,0.,0.,22.9337
 98\HyperPolar=0.,0.,0.,0.,2.2686181,0.,2.2686181,0.,0.,219.4409605\PG=
 C*V [C*(H1H1Cl1)]\NImag=0\\0.00407661,0.,0.00407661,0.,0.,0.28243078,-
 0.00125542,0.,0.,0.00038136,0.,-0.00125542,0.,0.,0.00038136,0.,0.,-0.0
 2848338,0.,0.,0.08357012,-0.00282119,0.,0.,0.00087406,0.,0.,0.00194713
 ,0.,-0.00282119,0.,0.,0.00087406,0.,0.,0.00194713,0.,0.,-0.25394745,0.
 ,0.,-0.05508672,0.,0.,0.30903419\\0.,0.,-0.00001773,0.,0.,-0.00001852,
 0.,0.,0.00003625\\\@


 CHARLIE BROWN -- WHICH DO YOU THINK LASTS LONGER IN LIFE, THE GOOD THINGS 
                  OR THE BAD THINGS?
 LINUS --         GOOD THINGS LAST EIGHT SECONDS ..
                  BAD THINGS LAST THREE WEEKS
 CHARLIE BROWN -- WHAT ABOUT IN BETWEEN?
 SNOOPY --        IN BETWEEN YOU SHOULD TAKE A NAP ...
 Job cpu time:       0 days  0 hours  2 minutes 14.2 seconds.
 Elapsed time:       0 days  0 hours  0 minutes 34.8 seconds.
 File lengths (MBytes):  RWF=      5 Int=      0 D2E=      0 Chk=      2 Scr=      1
 Normal termination of Gaussian 16 at Wed Oct 21 14:27:13 2020.
