 Entering Gaussian System, Link 0=g16
 Input=MN_70_NH2_BH76_PM3_SE.in
 Output=MN_70_NH2_BH76_PM3_SE.log
 Initial command:
 /udrive/faculty/rpeverati/g16/g16/l1.exe "/udrive/scratch-directories/gaussian09/rpeverati/Gau-27252.inp" -scrdir="/udrive/scratch-directories/gaussian09/rpeverati/"
 Entering Link 1 = /udrive/faculty/rpeverati/g16/g16/l1.exe PID=     27271.
  
 Copyright (c) 1988,1990,1992,1993,1995,1998,2003,2009,2016,
            Gaussian, Inc.  All Rights Reserved.
  
 This is part of the Gaussian(R) 16 program.  It is based on
 the Gaussian(R) 09 system (copyright 2009, Gaussian, Inc.),
 the Gaussian(R) 03 system (copyright 2003, Gaussian, Inc.),
 the Gaussian(R) 98 system (copyright 1998, Gaussian, Inc.),
 the Gaussian(R) 94 system (copyright 1995, Gaussian, Inc.),
 the Gaussian 92(TM) system (copyright 1992, Gaussian, Inc.),
 the Gaussian 90(TM) system (copyright 1990, Gaussian, Inc.),
 the Gaussian 88(TM) system (copyright 1988, Gaussian, Inc.),
 the Gaussian 86(TM) system (copyright 1986, Carnegie Mellon
 University), and the Gaussian 82(TM) system (copyright 1983,
 Carnegie Mellon University). Gaussian is a federally registered
 trademark of Gaussian, Inc.
  
 This software contains proprietary and confidential information,
 including trade secrets, belonging to Gaussian, Inc.
  
 This software is provided under written license and may be
 used, copied, transmitted, or stored only in accord with that
 written license.
  
 The following legend is applicable only to US Government
 contracts under FAR:
  
                    RESTRICTED RIGHTS LEGEND
  
 Use, reproduction and disclosure by the US Government is
 subject to restrictions as set forth in subparagraphs (a)
 and (c) of the Commercial Computer Software - Restricted
 Rights clause in FAR 52.227-19.
  
 Gaussian, Inc.
 340 Quinnipiac St., Bldg. 40, Wallingford CT 06492
  
  
 ---------------------------------------------------------------
 Warning -- This program may not be used in any manner that
 competes with the business of Gaussian, Inc. or will provide
 assistance to any competitor of Gaussian, Inc.  The licensee
 of this program is prohibited from giving any competitor of
 Gaussian, Inc. access to this program.  By using this program,
 the user acknowledges that Gaussian, Inc. is engaged in the
 business of creating and licensing software in the field of
 computational chemistry and represents and warrants to the
 licensee that it is not a competitor of Gaussian, Inc. and that
 it will not use this program in any manner prohibited above.
 ---------------------------------------------------------------
  

 Cite this work as:
 Gaussian 16, Revision A.03,
 M. J. Frisch, G. W. Trucks, H. B. Schlegel, G. E. Scuseria, 
 M. A. Robb, J. R. Cheeseman, G. Scalmani, V. Barone, 
 G. A. Petersson, H. Nakatsuji, X. Li, M. Caricato, A. V. Marenich, 
 J. Bloino, B. G. Janesko, R. Gomperts, B. Mennucci, H. P. Hratchian, 
 J. V. Ortiz, A. F. Izmaylov, J. L. Sonnenberg, D. Williams-Young, 
 F. Ding, F. Lipparini, F. Egidi, J. Goings, B. Peng, A. Petrone, 
 T. Henderson, D. Ranasinghe, V. G. Zakrzewski, J. Gao, N. Rega, 
 G. Zheng, W. Liang, M. Hada, M. Ehara, K. Toyota, R. Fukuda, 
 J. Hasegawa, M. Ishida, T. Nakajima, Y. Honda, O. Kitao, H. Nakai, 
 T. Vreven, K. Throssell, J. A. Montgomery, Jr., J. E. Peralta, 
 F. Ogliaro, M. J. Bearpark, J. J. Heyd, E. N. Brothers, K. N. Kudin, 
 V. N. Staroverov, T. A. Keith, R. Kobayashi, J. Normand, 
 K. Raghavachari, A. P. Rendell, J. C. Burant, S. S. Iyengar, 
 J. Tomasi, M. Cossi, J. M. Millam, M. Klene, C. Adamo, R. Cammi, 
 J. W. Ochterski, R. L. Martin, K. Morokuma, O. Farkas, 
 J. B. Foresman, and D. J. Fox, Gaussian, Inc., Wallingford CT, 2016.
 
 ******************************************
 Gaussian 16:  ES64L-G16RevA.03 25-Dec-2016
                21-Oct-2020 
 ******************************************
 %NoSave
 %nproc=12
 Will use up to   12 processors via shared memory.
 %mem=20GB
 %chk=MN_70_NH2_BH76_PM3_SE
 ----------------------------------------------------------------------
 #P Opt(MaxCyc=150) PM3 5D 7F Integral=UltraFineGrid SCF=(NoSymm,XQC,Ma
 xCyc=120) IOp(1/33=1)
 ----------------------------------------------------------------------
 1/6=150,18=20,19=15,26=1,33=1,38=1/1,3;
 2/9=110,12=2,17=6,18=5,40=1/2;
 3/5=2,8=11,25=1,41=800000,71=1,75=-5/1,2,3;
 4/9=2,35=1/1;
 5/5=2,7=120,8=3,13=1,35=1,38=5/2,8;
 6/7=2,8=2,9=2,10=2,28=1/1;
 7//1,2,3,16;
 1/6=150,18=20,19=15,26=1,33=1/3(2);
 2/9=110/2;
 99//99;
 2/9=110/2;
 3/5=2,8=11,25=1,41=800000,71=1,75=-5,135=20/1,2,3;
 4/5=5,9=2,16=3,35=1/1;
 5/5=2,7=120,8=3,13=1,35=1,38=5/2,8;
 7//1,2,3,16;
 1/6=150,18=20,19=15,26=1,33=1/3(-5);
 2/9=110/2;
 6/7=2,8=2,9=2,10=2,19=2,28=1/1;
 99/9=1/99;
 Leave Link    1 at Wed Oct 21 14:22:55 2020, MaxMem=  2684354560 cpu:               6.7 elap:               0.8
 (Enter /udrive/faculty/rpeverati/g16/g16/l101.exe)
 ONIOM data not found on unit 2.
 ------------------
 TS search on BH76.
 ------------------
 TstMul:  ICh=     0
 TstMul:  Mul=     2
 TstMul:  ICh=     0
 TstMul:  Mul=     2
 Symbolic Z-matrix:
 Charge =  0 Multiplicity = 2
 N                     0.        0.        0.14142 
 H                     0.        0.80231  -0.49495 
 H                     0.       -0.80231  -0.49495 
 
 RdStrC is calling ZToCFu for IStruc=1 NZ=     3.
 PrtBox:  NBox=     1 Levels=  1 BoxLen=    8.00 SMaxX=        3.03
          Shift=            0.000000            1.516150            0.935328
 Box      1 Number                   0 centers from      1 to      3:
 After GenITR:
 ITRead=  0  0  0
 MicOpt= -1 -1 -1
 ITRead=  0  0  0
 MicOpt= -1 -1 -1
 NAtoms=      3 NQM=        3 NQMF=       0 NMMI=      0 NMMIF=      0
                NMic=       0 NMicF=      0.
                    Isotopes and Nuclear Properties:
 (Nuclear quadrupole moments (NQMom) in fm**2, nuclear magnetic moments (NMagM)
  in nuclear magnetons)

  Atom         1           2           3
 IAtWgt=          14           1           1
 AtmWgt=  14.0030740   1.0078250   1.0078250
 NucSpn=           2           1           1
 AtZEff=   0.0000000   0.0000000   0.0000000
 NQMom=    2.0440000   0.0000000   0.0000000
 NMagM=    0.4037610   2.7928460   2.7928460
 AtZNuc=   7.0000000   1.0000000   1.0000000
 No MM parameters found.
 Leave Link  101 at Wed Oct 21 14:22:56 2020, MaxMem=  2684354560 cpu:               7.0 elap:               0.8
 (Enter /udrive/faculty/rpeverati/g16/g16/l103.exe)

 GradGradGradGradGradGradGradGradGradGradGradGradGradGradGradGradGradGrad
 Berny optimization.
 Optmz: redundant internal coordinate code flag= 1
 Initialization pass.
                           ----------------------------
                           !    Initial Parameters    !
                           ! (Angstroms and Degrees)  !
 --------------------------                            --------------------------
 ! Name  Definition              Value          Derivative Info.                !
 --------------------------------------------------------------------------------
 ! R1    R(1,2)                  1.024          estimate D2E/DX2                !
 ! R2    R(1,3)                  1.024          estimate D2E/DX2                !
 ! A1    A(2,1,3)              103.1592         estimate D2E/DX2                !
 --------------------------------------------------------------------------------
 Maximum allowed force set to 1.00D+20.
 Trust Radius=3.00D-01 FncErr=1.00D-07 GrdErr=1.00D-07 EigMax=2.50D+02 EigMin=1.00D-04
 Number of steps in this run=    100 maximum allowed number of steps=    100.
 GradGradGradGradGradGradGradGradGradGradGradGradGradGradGradGradGradGrad

 Leave Link  103 at Wed Oct 21 14:22:58 2020, MaxMem=  2684354560 cpu:               1.9 elap:               0.8
 (Enter /udrive/faculty/rpeverati/g16/g16/l202.exe)
                          Input orientation:                          
 ---------------------------------------------------------------------
 Center     Atomic      Atomic             Coordinates (Angstroms)
 Number     Number       Type             X           Y           Z
 ---------------------------------------------------------------------
      1          7           0        0.000000    0.000000    0.141415
      2          1           0        0.000000    0.802312   -0.494954
      3          1           0        0.000000   -0.802312   -0.494954
 ---------------------------------------------------------------------
                    Distance matrix (angstroms):
                    1          2          3
     1  N    0.000000
     2  H    1.024046   0.000000
     3  H    1.024046   1.604624   0.000000
 Stoichiometry    H2N(2)
 Framework group  C2V[C2(N),SGV(H2)]
 Deg. of freedom     2
 Full point group                 C2V     NOp   4
 Largest Abelian subgroup         C2V     NOp   4
 Largest concise Abelian subgroup C2      NOp   2
                         Standard orientation:                         
 ---------------------------------------------------------------------
 Center     Atomic      Atomic             Coordinates (Angstroms)
 Number     Number       Type             X           Y           Z
 ---------------------------------------------------------------------
      1          7           0        0.000000   -0.000000    0.141415
      2          1           0        0.000000    0.802312   -0.494954
      3          1           0       -0.000000   -0.802312   -0.494954
 ---------------------------------------------------------------------
 Rotational constants (GHZ):         708.2522038         389.5071682         251.3021681
 Leave Link  202 at Wed Oct 21 14:22:59 2020, MaxMem=  2684354560 cpu:               2.2 elap:               0.8
 (Enter /udrive/faculty/rpeverati/g16/g16/l301.exe)
 Standard basis: VSTO-6G (5D, 7F)
 Ernie: Thresh=  0.10000D-02 Tol=  0.10000D-05 Strict=F.
  NNHCO=     0 NNPyr=     0 NCTC=     0               EPep=         0.000000000
    EC=         3.817832545  ECS=         0.315800186   EG=         0.047425498
   EHC=         0.000000000  EAt=        -6.753071087  AtH=         0.346136607
 EPDDG=         0.000000000  ECC=         4.181058230 EAtT=         7.099207694
 There are     3 symmetry adapted cartesian basis functions of A1  symmetry.
 There are     0 symmetry adapted cartesian basis functions of A2  symmetry.
 There are     1 symmetry adapted cartesian basis functions of B1  symmetry.
 There are     2 symmetry adapted cartesian basis functions of B2  symmetry.
 There are     3 symmetry adapted basis functions of A1  symmetry.
 There are     0 symmetry adapted basis functions of A2  symmetry.
 There are     1 symmetry adapted basis functions of B1  symmetry.
 There are     2 symmetry adapted basis functions of B2  symmetry.
     6 basis functions,    36 primitive gaussians,     6 cartesian basis functions
     4 alpha electrons        3 beta electrons
       nuclear repulsion energy        11.2802659231 Hartrees.
 IExCor=    0 DFT=F Ex=HF Corr=None ExCW=0 ScaHFX=  1.000000
 ScaDFX=  1.000000  1.000000  1.000000  1.000000 ScalE2=  1.000000  1.000000
 IRadAn=      5 IRanWt=     -1 IRanGd=            0 ICorTp=0 IEmpDi=  4
 Integral buffers will be    131072 words long.
 Regular integral format.
 Two-electron integral symmetry is turned off.
 Leave Link  301 at Wed Oct 21 14:23:00 2020, MaxMem=  2684354560 cpu:               2.8 elap:               0.8
 (Enter /udrive/faculty/rpeverati/g16/g16/l302.exe)
 Do NDO integrals.
 NPDir=0 NMtPBC=     1 NCelOv=     1 NCel=       1 NClECP=     1 NCelD=      1
         NCelK=      1 NCelE2=     1 NClLst=     1 CellRange=     0.0.
 One-electron integrals computed using PRISM.
 NBasis=     6 RedAO= T EigKep=  1.00D+00  NBF=     3     0     1     2
 NBsUse=     6 1.00D-06 EigRej= -1.00D+00 NBFU=     3     0     1     2
 Leave Link  302 at Wed Oct 21 14:23:01 2020, MaxMem=  2684354560 cpu:               3.4 elap:               0.9
 (Enter /udrive/faculty/rpeverati/g16/g16/l303.exe)
 DipDrv:  MaxL=1.
 Leave Link  303 at Wed Oct 21 14:23:02 2020, MaxMem=  2684354560 cpu:               2.8 elap:               0.8
 (Enter /udrive/faculty/rpeverati/g16/g16/l401.exe)
 SCF N**3 symmetry information disabled.
 Simple Huckel Guess.
 JPrj=0 DoOrth=F DoCkMO=F.
 Initial guess orbital symmetries:
 Alpha Orbitals:
       Occupied  (A1) (B2) (A1) (B1)
       Virtual   (B2) (A1)
 Beta  Orbitals:
       Occupied  (A1) (B2) (A1)
       Virtual   (B1) (B2) (A1)
 The electronic state of the initial guess is 2-B1.
 Initial guess <Sx>= 0.0000 <Sy>= 0.0000 <Sz>= 0.5000 <S**2>= 0.7500 S= 0.5000
 Leave Link  401 at Wed Oct 21 14:23:03 2020, MaxMem=  2684354560 cpu:               2.4 elap:               0.8
 (Enter /udrive/faculty/rpeverati/g16/g16/l502.exe)
 Keep J ints in memory in canonical form, NReq=859134.
 FoFCou: FMM=F IPFlag=           0 FMFlag=           0 FMFlg1=           0
         NFxFlg=           0 DoJE=F BraDBF=F KetDBF=F FulRan=T
         wScrn=  0.000000 ICntrl=       600 IOpCl=  2 I1Cent=           0 NGrid=           0
         NMat0=    1 NMatS0=     12 NMatT0=    0 NMatD0=    1 NMtDS0=    0 NMtDT0=    0
 Symmetry not used in FoFCou.
 Two-electron integral symmetry not used.
 UHF open shell SCF:
 Using DIIS extrapolation, IDIIS=  1040.
 Overlap will be assumed to be unity.
 NGot=  2684354560 LenX=  2684294129 LenY=  2684293247
 Requested convergence on RMS density matrix=1.00D-08 within 120 cycles.
 Requested convergence on MAX density matrix=1.00D-06.
 Requested convergence on             energy=1.00D-06.
 No special actions if energy rises.

 Cycle   1  Pass 1  IDiag  1:
 E= 0.117255586846428    
 DIIS: error= 3.34D-02 at cycle   1 NSaved=   1.
 NSaved= 1 IEnMin= 1 EnMin= 0.117255586846428     IErMin= 1 ErrMin= 3.34D-02
 ErrMax= 3.34D-02  0.00D+00 EMaxC= 1.00D-01 BMatC= 6.22D-02 BMatP= 6.22D-02
 IDIUse=3 WtCom= 6.66D-01 WtEn= 3.34D-01
 Coeff-Com:  0.100D+01
 Coeff-En:   0.100D+01
 Coeff:      0.100D+01
 GapD=    2.000 DampG=2.000 DampE=0.500 DampFc=1.0000 IDamp=-1.
 RMSDP=4.41D-02 MaxDP=1.27D-01              OVMax= 0.00D+00

 Cycle   2  Pass 1  IDiag  1:
 E= 0.629254391477829E-01 Delta-E=       -0.054330147699 Rises=F Damp=F
 DIIS: error= 8.75D-03 at cycle   2 NSaved=   2.
 NSaved= 2 IEnMin= 2 EnMin= 0.629254391477829E-01 IErMin= 2 ErrMin= 8.75D-03
 ErrMax= 8.75D-03  0.00D+00 EMaxC= 1.00D-01 BMatC= 2.76D-03 BMatP= 6.22D-02
 IDIUse=3 WtCom= 9.13D-01 WtEn= 8.75D-02
 Coeff-Com: -0.204D+00 0.120D+01
 Coeff-En:   0.000D+00 0.100D+01
 Coeff:     -0.186D+00 0.119D+01
 RMSDP=1.29D-02 MaxDP=4.37D-02 DE=-5.43D-02 OVMax= 0.00D+00

 Cycle   3  Pass 1  IDiag  3:
 E= 0.595268885277207E-01 Delta-E=       -0.003398550620 Rises=F Damp=F
 DIIS: error= 2.39D-03 at cycle   3 NSaved=   3.
 NSaved= 3 IEnMin= 3 EnMin= 0.595268885277207E-01 IErMin= 3 ErrMin= 2.39D-03
 ErrMax= 2.39D-03  0.00D+00 EMaxC= 1.00D-01 BMatC= 2.18D-04 BMatP= 2.76D-03
 IDIUse=3 WtCom= 9.76D-01 WtEn= 2.39D-02
 Coeff-Com:  0.166D+00-0.980D+00 0.181D+01
 Coeff-En:   0.000D+00 0.000D+00 0.100D+01
 Coeff:      0.162D+00-0.957D+00 0.179D+01
 Gap=     0.541 Goal=   None    Shift=    0.000
 Gap=     0.408 Goal=   None    Shift=    0.000
 RMSDP=5.11D-03 MaxDP=1.99D-02 DE=-3.40D-03 OVMax= 2.07D-02

 Cycle   4  Pass 1  IDiag  3:
 E= 0.591864245331113E-01 Delta-E=       -0.000340463995 Rises=F Damp=F
 DIIS: error= 4.28D-04 at cycle   4 NSaved=   4.
 NSaved= 4 IEnMin= 4 EnMin= 0.591864245331113E-01 IErMin= 4 ErrMin= 4.28D-04
 ErrMax= 4.28D-04  0.00D+00 EMaxC= 1.00D-01 BMatC= 4.18D-06 BMatP= 2.18D-04
 IDIUse=3 WtCom= 9.96D-01 WtEn= 4.28D-03
 Coeff-Com: -0.364D-01 0.213D+00-0.468D+00 0.129D+01
 Coeff-En:   0.000D+00 0.000D+00 0.000D+00 0.100D+01
 Coeff:     -0.362D-01 0.212D+00-0.466D+00 0.129D+01
 Gap=     0.543 Goal=   None    Shift=    0.000
 Gap=     0.409 Goal=   None    Shift=    0.000
 RMSDP=5.86D-04 MaxDP=2.44D-03 DE=-3.40D-04 OVMax= 2.45D-03

 Cycle   5  Pass 1  IDiag  3:
 E= 0.591801651249106E-01 Delta-E=       -0.000006259408 Rises=F Damp=F
 DIIS: error= 1.60D-04 at cycle   5 NSaved=   5.
 NSaved= 5 IEnMin= 5 EnMin= 0.591801651249106E-01 IErMin= 5 ErrMin= 1.60D-04
 ErrMax= 1.60D-04  0.00D+00 EMaxC= 1.00D-01 BMatC= 8.03D-07 BMatP= 4.18D-06
 IDIUse=3 WtCom= 9.98D-01 WtEn= 1.60D-03
 Coeff-Com:  0.221D-02-0.154D-01 0.986D-01-0.984D+00 0.190D+01
 Coeff-En:   0.000D+00 0.000D+00 0.000D+00 0.000D+00 0.100D+01
 Coeff:      0.221D-02-0.153D-01 0.984D-01-0.983D+00 0.190D+01
 Gap=     0.543 Goal=   None    Shift=    0.000
 Gap=     0.409 Goal=   None    Shift=    0.000
 RMSDP=3.36D-04 MaxDP=1.44D-03 DE=-6.26D-06 OVMax= 1.44D-03

 Cycle   6  Pass 1  IDiag  3:
 E= 0.591786919888833E-01 Delta-E=       -0.000001473136 Rises=F Damp=F
 DIIS: error= 3.52D-05 at cycle   6 NSaved=   6.
 NSaved= 6 IEnMin= 6 EnMin= 0.591786919888833E-01 IErMin= 6 ErrMin= 3.52D-05
 ErrMax= 3.52D-05  0.00D+00 EMaxC= 1.00D-01 BMatC= 6.88D-08 BMatP= 8.03D-07
 IDIUse=1 WtCom= 1.00D+00 WtEn= 0.00D+00
 Coeff-Com: -0.652D-03 0.781D-02-0.128D+00 0.155D+01-0.316D+01 0.273D+01
 Coeff:     -0.652D-03 0.781D-02-0.128D+00 0.155D+01-0.316D+01 0.273D+01
 Gap=     0.543 Goal=   None    Shift=    0.000
 Gap=     0.409 Goal=   None    Shift=    0.000
 RMSDP=1.55D-04 MaxDP=5.77D-04 DE=-1.47D-06 OVMax= 6.28D-04

 Cycle   7  Pass 1  IDiag  3:
 E= 0.591785081555951E-01 Delta-E=       -0.000000183833 Rises=F Damp=F
 DIIS: error= 7.05D-06 at cycle   7 NSaved=   7.
 NSaved= 7 IEnMin= 7 EnMin= 0.591785081555951E-01 IErMin= 7 ErrMin= 7.05D-06
 ErrMax= 7.05D-06  0.00D+00 EMaxC= 1.00D-01 BMatC= 1.45D-09 BMatP= 6.88D-08
 IDIUse=1 WtCom= 1.00D+00 WtEn= 0.00D+00
 Coeff-Com:  0.442D-03-0.513D-02 0.907D-01-0.111D+01 0.225D+01-0.199D+01
 Coeff-Com:  0.177D+01
 Coeff:      0.442D-03-0.513D-02 0.907D-01-0.111D+01 0.225D+01-0.199D+01
 Coeff:      0.177D+01
 Gap=     0.543 Goal=   None    Shift=    0.000
 Gap=     0.409 Goal=   None    Shift=    0.000
 RMSDP=1.94D-05 MaxDP=7.28D-05 DE=-1.84D-07 OVMax= 8.59D-05

 Cycle   8  Pass 1  IDiag  3:
 E= 0.591785051792222E-01 Delta-E=       -0.000000002976 Rises=F Damp=F
 DIIS: error= 1.52D-06 at cycle   8 NSaved=   8.
 NSaved= 8 IEnMin= 8 EnMin= 0.591785051792222E-01 IErMin= 8 ErrMin= 1.52D-06
 ErrMax= 1.52D-06  0.00D+00 EMaxC= 1.00D-01 BMatC= 7.18D-11 BMatP= 1.45D-09
 IDIUse=1 WtCom= 1.00D+00 WtEn= 0.00D+00
 Coeff-Com: -0.347D-03 0.377D-02-0.688D-01 0.841D+00-0.170D+01 0.150D+01
 Coeff-Com: -0.145D+01 0.187D+01
 Coeff:     -0.347D-03 0.377D-02-0.688D-01 0.841D+00-0.170D+01 0.150D+01
 Coeff:     -0.145D+01 0.187D+01
 Gap=     0.543 Goal=   None    Shift=    0.000
 Gap=     0.409 Goal=   None    Shift=    0.000
 RMSDP=3.91D-06 MaxDP=1.79D-05 DE=-2.98D-09 OVMax= 2.02D-05

 Cycle   9  Pass 1  IDiag  3:
 E= 0.591785050707863E-01 Delta-E=       -0.000000000108 Rises=F Damp=F
 DIIS: error= 5.90D-07 at cycle   9 NSaved=   9.
 NSaved= 9 IEnMin= 9 EnMin= 0.591785050707863E-01 IErMin= 9 ErrMin= 5.90D-07
 ErrMax= 5.90D-07  0.00D+00 EMaxC= 1.00D-01 BMatC= 1.60D-11 BMatP= 7.18D-11
 IDIUse=1 WtCom= 1.00D+00 WtEn= 0.00D+00
 Coeff-Com: -0.857D-05 0.180D-03-0.667D-03 0.595D-02-0.158D-01 0.180D-01
 Coeff-Com:  0.919D-02-0.235D+00 0.122D+01
 Coeff:     -0.857D-05 0.180D-03-0.667D-03 0.595D-02-0.158D-01 0.180D-01
 Coeff:      0.919D-02-0.235D+00 0.122D+01
 Gap=     0.543 Goal=   None    Shift=    0.000
 Gap=     0.409 Goal=   None    Shift=    0.000
 RMSDP=1.16D-06 MaxDP=4.66D-06 DE=-1.08D-10 OVMax= 5.11D-06

 Cycle  10  Pass 1  IDiag  3:
 E= 0.591785050521842E-01 Delta-E=       -0.000000000019 Rises=F Damp=F
 DIIS: error= 6.87D-09 at cycle  10 NSaved=  10.
 NSaved=10 IEnMin=10 EnMin= 0.591785050521842E-01 IErMin=10 ErrMin= 6.87D-09
 ErrMax= 6.87D-09  0.00D+00 EMaxC= 1.00D-01 BMatC= 2.61D-15 BMatP= 1.60D-11
 IDIUse=1 WtCom= 1.00D+00 WtEn= 0.00D+00
 Large coefficients: NSaved= 10 BigCof=    0.00 CofMax=   10.00 Det=-3.43D-26
 Inversion failed.  Reducing to  9 matrices.
 Coeff-Com:  0.827D-08 0.746D-07-0.118D-04 0.235D-04 0.217D-04-0.244D-03
 Coeff-Com: -0.849D-03 0.115D-01 0.990D+00
 Coeff:      0.827D-08 0.746D-07-0.118D-04 0.235D-04 0.217D-04-0.244D-03
 Coeff:     -0.849D-03 0.115D-01 0.990D+00
 Gap=     0.543 Goal=   None    Shift=    0.000
 Gap=     0.409 Goal=   None    Shift=    0.000
 RMSDP=1.60D-08 MaxDP=6.82D-08 DE=-1.86D-11 OVMax= 7.28D-08

 Cycle  11  Pass 1  IDiag  3:
 E= 0.591785050521878E-01 Delta-E=        0.000000000000 Rises=F Damp=F
 DIIS: error= 3.94D-11 at cycle  11 NSaved=  10.
 NSaved=10 IEnMin= 9 EnMin= 0.591785050521842E-01 IErMin=10 ErrMin= 3.94D-11
 ErrMax= 3.94D-11  0.00D+00 EMaxC= 1.00D-01 BMatC= 6.94D-20 BMatP= 2.61D-15
 IDIUse=1 WtCom= 1.00D+00 WtEn= 0.00D+00
 Large coefficients: NSaved= 10 BigCof=    0.00 CofMax=   10.00 Det=-6.79D-31
 Inversion failed.  Reducing to  9 matrices.
 Large coefficients: NSaved=  9 BigCof=    0.00 CofMax=   10.00 Det=-2.15D-23
 Inversion failed.  Reducing to  8 matrices.
 Large coefficients: NSaved=  8 BigCof=    0.00 CofMax=   10.00 Det=-2.15D-23
 Inversion failed.  Reducing to  7 matrices.
 Coeff-Com: -0.315D-06 0.120D-05-0.253D-05-0.269D-04 0.211D-03 0.158D-01
 Coeff-Com:  0.984D+00
 Coeff:     -0.315D-06 0.120D-05-0.253D-05-0.269D-04 0.211D-03 0.158D-01
 Coeff:      0.984D+00
 Gap=     0.543 Goal=   None    Shift=    0.000
 Gap=     0.409 Goal=   None    Shift=    0.000
 RMSDP=4.56D-11 MaxDP=1.30D-10 DE= 3.55D-15 OVMax= 1.97D-10

 Cycle  12  Pass 2  IDiag  1:
 SCF Done:  E(UPM3) =  0.591785050522E-01 A.U. after   12 cycles
            NFock= 11  Conv=0.46D-10     -V/T= 1.0055
 <Sx>= 0.0000 <Sy>= 0.0000 <Sz>= 0.5000 <S**2>= 0.7519 S= 0.5010
 <L.S>= 0.000000000000E+00
 KE=-1.074937324871D+01 PE=-7.433555735794D+00 EE= 6.961841566451D+00
 Annihilation of the first spin contaminant:
 S**2 before annihilation     0.7519,   after     0.7500
 Leave Link  502 at Wed Oct 21 14:23:05 2020, MaxMem=  2684354560 cpu:               8.9 elap:               1.4
 (Enter /udrive/faculty/rpeverati/g16/g16/l508.exe)
 QCSCF skips out because SCF is already converged.
 Leave Link  508 at Wed Oct 21 14:23:06 2020, MaxMem=  2684354560 cpu:               0.8 elap:               0.7
 (Enter /udrive/faculty/rpeverati/g16/g16/l601.exe)
 Copying SCF densities to generalized density rwf, IOpCl= 1 IROHF=0.

 **********************************************************************

            Population analysis using the SCF density.

 **********************************************************************

 Orbital symmetries:
 Alpha Orbitals:
       Occupied  (A1) (B2) (B1) (A1)
       Virtual   (A1) (B2)
 Beta  Orbitals:
       Occupied  (A1) (B2) (A1)
       Virtual   (B1) (A1) (B2)
 The electronic state is 2-B1.
 Alpha  occ. eigenvalues --   -0.96494  -0.56535  -0.41903  -0.41763
 Alpha virt. eigenvalues --    0.12387   0.16218
  Beta  occ. eigenvalues --   -0.94078  -0.55737  -0.39415
  Beta virt. eigenvalues --    0.01436   0.13448   0.16984
          Condensed to atoms (all electrons):
               1          2          3
     1  N    5.064746   0.000000   0.000000
     2  H    0.000000   0.967627   0.000000
     3  H    0.000000   0.000000   0.967627
          Atomic-Atomic Spin Densities.
               1          2          3
     1  N    1.059886   0.000000   0.000000
     2  H    0.000000  -0.029943   0.000000
     3  H    0.000000   0.000000  -0.029943
 Mulliken charges and spin densities:
               1          2
     1  N   -0.064746   1.059886
     2  H    0.032373  -0.029943
     3  H    0.032373  -0.029943
 Sum of Mulliken charges =   0.00000   1.00000
 Mulliken charges and spin densities with hydrogens summed into heavy atoms:
               1          2
     1  N    0.000000   1.000000
 Charge=              0.0000 electrons
 Dipole moment (field-independent basis, Debye):
    X=             -0.0000    Y=             -0.0000    Z=             -1.7516  Tot=              1.7516
 N-N= 1.128026592311D+01 E-N=-7.433555735754D+00  KE=-1.074937324871D+01
 Leave Link  601 at Wed Oct 21 14:23:07 2020, MaxMem=  2684354560 cpu:               2.9 elap:               0.8
 (Enter /udrive/faculty/rpeverati/g16/g16/l701.exe)
 ... and contract with generalized density number  0.
 Compute integral first derivatives.
 Leave Link  701 at Wed Oct 21 14:23:09 2020, MaxMem=  2684354560 cpu:               4.3 elap:               0.9
 (Enter /udrive/faculty/rpeverati/g16/g16/l702.exe)
 L702 exits ... SP integral derivatives will be done elsewhere.
 Leave Link  702 at Wed Oct 21 14:23:10 2020, MaxMem=  2684354560 cpu:               2.2 elap:               0.8
 (Enter /udrive/faculty/rpeverati/g16/g16/l703.exe)
 Integral derivatives from FoFJK, PRISM(SPDF).
 Compute integral first derivatives, UseDBF=F ICtDFT=           0.
 Calling FoFJK, ICntrl=      2127 FMM=F ISym2X=1 I1Cent= 0 IOpClX= 1 NMat=1 NMatS=1 NMatT=0.
 FoFJK:  IHMeth= 9 ICntrl=    2127 DoSepK=F KAlg= 0 I1Cent=           0 FoldK=F
 IRaf=         0 NMat=       1 IRICut=       1 DoRegI=T DoRafI=F ISym2E= 1 IDoP0=3 IntGTp=3.
 FoFCou: FMM=F IPFlag=           0 FMFlag=      100000 FMFlg1=         800
         NFxFlg=           0 DoJE=F BraDBF=F KetDBF=F FulRan=T
         wScrn=  0.000000 ICntrl=      2127 IOpCl=  1 I1Cent=           0 NGrid=           0
         NMat0=    1 NMatS0=      1 NMatT0=    0 NMatD0=    1 NMtDS0=    0 NMtDT0=    0
 Petite list used in FoFCou.
 Leave Link  703 at Wed Oct 21 14:23:11 2020, MaxMem=  2684354560 cpu:               3.3 elap:               0.9
 (Enter /udrive/faculty/rpeverati/g16/g16/l716.exe)
 Dipole        =-2.83835030D-16-1.11022302D-15-6.89133413D-01
 ***** Axes restored to original set *****
 -------------------------------------------------------------------
 Center     Atomic                   Forces (Hartrees/Bohr)
 Number     Number              X              Y              Z
 -------------------------------------------------------------------
      1        7          -0.000000000    0.000000000   -0.046168458
      2        1           0.000000000   -0.014757029    0.023084229
      3        1           0.000000000    0.014757029    0.023084229
 -------------------------------------------------------------------
 Cartesian Forces:  Max     0.046168458 RMS     0.020090986
 Leave Link  716 at Wed Oct 21 14:23:12 2020, MaxMem=  2684354560 cpu:               2.6 elap:               0.8
 (Enter /udrive/faculty/rpeverati/g16/g16/l103.exe)

 GradGradGradGradGradGradGradGradGradGradGradGradGradGradGradGradGradGrad
 Berny optimization.
 Optmz: redundant internal coordinate code flag= 1
 FormGI is forming the generalized inverse of G from B-inverse, IUseBI=4.
 Internal  Forces:  Max     0.025906877 RMS     0.023380865
 Search for a local minimum.
 Step number   1 out of a maximum of  100
 All quantities printed in internal units (Hartrees-Bohrs-Radians)
 RMS Force = .23381D-01 SwitMx=.10000D-02 MixMth= 1
 Mixed Optimization -- RFO/linear search
 Second derivative matrix not updated -- first step.
 The second derivative matrix:
                          R1        R2        A1
           R1           0.43699
           R2           0.00000   0.43699
           A1           0.00000   0.00000   0.16000
 ITU=  0
 Eigenvectors of the second derivative matrix:
                           1         2         3
     Eigenvalues --     0.16000   0.43699   0.43699
   1         R1         0.00000   0.99783  -0.06588
   2         R2         0.00000  -0.06588  -0.99783
   3         A1         1.00000  -0.00000   0.00000
 Iter=   1 RLamda= 0.00000000D+00 Sum=-4.93217451D-03.
 Iter=   2 RLamda=-4.93217451D-03 Sum=-4.84225742D-03.
 Iter=   3 RLamda=-4.84225742D-03 Sum=-4.84386003D-03.
 Iter=   4 RLamda=-4.84386003D-03 Sum=-4.84383146D-03.
 Iter=   5 RLamda=-4.84383146D-03 Sum=-4.84383197D-03.
 RFO step:  Lambda=-4.84383146D-03 EMin= 1.60000000D-01
 Linear search not attempted -- first point.
 Iteration  1 RMS(Cart)=  0.05620106 RMS(Int)=  0.00287283
 Iteration  2 RMS(Cart)=  0.00320848 RMS(Int)=  0.00000305
 Iteration  3 RMS(Cart)=  0.00000218 RMS(Int)=  0.00000000
 Iteration  4 RMS(Cart)=  0.00000000 RMS(Int)=  0.00000000
 ITry= 1 IFail=0 DXMaxC= 7.66D-02 DCOld= 1.00D+10 DXMaxT= 3.00D-01 DXLimC= 3.00D+00 Rises=F
 ClnCor:  largest displacement from symmetrization is 5.55D-16 for atom     3.
 Variable       Old X    -DE/DX   Delta X   Delta X   Delta X     New X
                                 (Linear)    (Quad)   (Total)
    R1        1.93517  -0.02591   0.00000  -0.05864  -0.05864   1.87653
    R2        1.93517  -0.02591   0.00000  -0.05864  -0.05864   1.87653
    A1        1.80047   0.01725   0.00000   0.10466   0.10466   1.90513
         Item               Value     Threshold  Converged?
 Maximum Force            0.025907     0.000450     NO 
 RMS     Force            0.023381     0.000300     NO 
 Maximum Displacement     0.076624     0.001800     NO 
 RMS     Displacement     0.055219     0.001200     NO 
 Predicted change in Energy=-2.465099D-03
 Lowest energy point so far.  Saving SCF results.
 Largest change from initial coordinates is atom    1       0.021 Angstoms.
 GradGradGradGradGradGradGradGradGradGradGradGradGradGradGradGradGradGrad

 Leave Link  103 at Wed Oct 21 14:23:13 2020, MaxMem=  2684354560 cpu:               3.8 elap:               0.9
 (Enter /udrive/faculty/rpeverati/g16/g16/l202.exe)
                          Input orientation:                          
 ---------------------------------------------------------------------
 Center     Atomic      Atomic             Coordinates (Angstroms)
 Number     Number       Type             X           Y           Z
 ---------------------------------------------------------------------
      1          7           0        0.000000    0.000000    0.100867
      2          1           0        0.000000    0.809215   -0.474680
      3          1           0       -0.000000   -0.809215   -0.474680
 ---------------------------------------------------------------------
                    Distance matrix (angstroms):
                    1          2          3
     1  N    0.000000
     2  H    0.993018   0.000000
     3  H    0.993018   1.618430   0.000000
 Stoichiometry    H2N(2)
 Framework group  C2V[C2(N),SGV(H2)]
 Deg. of freedom     2
 Full point group                 C2V     NOp   4
 RotChk:  IX=0 Diff= 5.93D-16
 Largest Abelian subgroup         C2V     NOp   4
 Largest concise Abelian subgroup C2      NOp   2
                         Standard orientation:                         
 ---------------------------------------------------------------------
 Center     Atomic      Atomic             Coordinates (Angstroms)
 Number     Number       Type             X           Y           Z
 ---------------------------------------------------------------------
      1          7           0        0.000000    0.000000    0.127900
      2          1           0        0.000000    0.809215   -0.447648
      3          1           0       -0.000000   -0.809215   -0.447648
 ---------------------------------------------------------------------
 Rotational constants (GHZ):         865.8523550         382.8900432         265.4880991
 Leave Link  202 at Wed Oct 21 14:23:14 2020, MaxMem=  2684354560 cpu:               2.2 elap:               0.7
 (Enter /udrive/faculty/rpeverati/g16/g16/l301.exe)
 Standard basis: VSTO-6G (5D, 7F)
 Ernie: Thresh=  0.10000D-02 Tol=  0.10000D-05 Strict=F.
  NNHCO=     0 NNPyr=     0 NCTC=     0               EPep=         0.000000000
    EC=         3.866528835  ECS=         0.344678252   EG=         0.043672836
   EHC=         0.000000000  EAt=        -6.753071087  AtH=         0.346136607
 EPDDG=         0.000000000  ECC=         4.254879924 EAtT=         7.099207694
 There are     3 symmetry adapted cartesian basis functions of A1  symmetry.
 There are     0 symmetry adapted cartesian basis functions of A2  symmetry.
 There are     1 symmetry adapted cartesian basis functions of B1  symmetry.
 There are     2 symmetry adapted cartesian basis functions of B2  symmetry.
 There are     3 symmetry adapted basis functions of A1  symmetry.
 There are     0 symmetry adapted basis functions of A2  symmetry.
 There are     1 symmetry adapted basis functions of B1  symmetry.
 There are     2 symmetry adapted basis functions of B2  symmetry.
     6 basis functions,    36 primitive gaussians,     6 cartesian basis functions
     4 alpha electrons        3 beta electrons
       nuclear repulsion energy        11.3540876175 Hartrees.
 IExCor=    0 DFT=F Ex=HF Corr=None ExCW=0 ScaHFX=  1.000000
 ScaDFX=  1.000000  1.000000  1.000000  1.000000 ScalE2=  1.000000  1.000000
 IRadAn=      5 IRanWt=     -1 IRanGd=            0 ICorTp=0 IEmpDi=  4
 Integral buffers will be    131072 words long.
 Regular integral format.
 Two-electron integral symmetry is turned off.
 Leave Link  301 at Wed Oct 21 14:23:16 2020, MaxMem=  2684354560 cpu:               5.4 elap:               1.1
 (Enter /udrive/faculty/rpeverati/g16/g16/l302.exe)
 Do NDO integrals.
 NPDir=0 NMtPBC=     1 NCelOv=     1 NCel=       1 NClECP=     1 NCelD=      1
         NCelK=      1 NCelE2=     1 NClLst=     1 CellRange=     0.0.
 One-electron integrals computed using PRISM.
 NBasis=     6 RedAO= T EigKep=  1.00D+00  NBF=     3     0     1     2
 NBsUse=     6 1.00D-06 EigRej= -1.00D+00 NBFU=     3     0     1     2
 Leave Link  302 at Wed Oct 21 14:23:17 2020, MaxMem=  2684354560 cpu:               3.7 elap:               1.0
 (Enter /udrive/faculty/rpeverati/g16/g16/l303.exe)
 DipDrv:  MaxL=1.
 Leave Link  303 at Wed Oct 21 14:23:18 2020, MaxMem=  2684354560 cpu:               3.0 elap:               1.0
 (Enter /udrive/faculty/rpeverati/g16/g16/l401.exe)
 Initial guess from the checkpoint file:  "MN_70_NH2_BH76_PM3_SE.chk"
 SCF N**3 symmetry information disabled.
 B after Tr=    -0.000000    0.000000   -0.000000
         Rot=    1.000000   -0.000000   -0.000000   -0.000000 Ang=   0.00 deg.
 Guess basis will be translated and rotated to current coordinates.
 JPrj=0 DoOrth=T DoCkMO=T.
 Initial guess orbital symmetries:
 Alpha Orbitals:
       Occupied  (A1) (B2) (B1) (A1)
       Virtual   (A1) (B2)
 Beta  Orbitals:
       Occupied  (A1) (B2) (A1)
       Virtual   (B1) (A1) (B2)
 The electronic state of the initial guess is 2-B1.
 Initial guess <Sx>= 0.0000 <Sy>= 0.0000 <Sz>= 0.5000 <S**2>= 0.7519 S= 0.5010
 Leave Link  401 at Wed Oct 21 14:23:20 2020, MaxMem=  2684354560 cpu:               3.0 elap:               1.0
 (Enter /udrive/faculty/rpeverati/g16/g16/l502.exe)
 Keep J ints in memory in canonical form, NReq=859134.
 FoFCou: FMM=F IPFlag=           0 FMFlag=           0 FMFlg1=           0
         NFxFlg=           0 DoJE=F BraDBF=F KetDBF=F FulRan=T
         wScrn=  0.000000 ICntrl=       600 IOpCl=  2 I1Cent=           0 NGrid=           0
         NMat0=    1 NMatS0=     12 NMatT0=    0 NMatD0=    1 NMtDS0=    0 NMtDT0=    0
 Symmetry not used in FoFCou.
 Two-electron integral symmetry not used.
 UHF open shell SCF:
 Using DIIS extrapolation, IDIIS=  1040.
 Overlap will be assumed to be unity.
 NGot=  2684354560 LenX=  2684294129 LenY=  2684293247
 Requested convergence on RMS density matrix=1.00D-08 within 120 cycles.
 Requested convergence on MAX density matrix=1.00D-06.
 Requested convergence on             energy=1.00D-06.
 No special actions if energy rises.

 Cycle   1  Pass 1  IDiag  1:
 E= 0.566991125506604E-01
 DIIS: error= 3.03D-03 at cycle   1 NSaved=   1.
 NSaved= 1 IEnMin= 1 EnMin= 0.566991125506604E-01 IErMin= 1 ErrMin= 3.03D-03
 ErrMax= 3.03D-03  0.00D+00 EMaxC= 1.00D-01 BMatC= 3.09D-04 BMatP= 3.09D-04
 IDIUse=3 WtCom= 9.70D-01 WtEn= 3.03D-02
 Coeff-Com:  0.100D+01
 Coeff-En:   0.100D+01
 Coeff:      0.100D+01
 GapD=    2.000 DampG=2.000 DampE=1.000 DampFc=2.0000 IDamp=-1.
 RMSDP=3.59D-03 MaxDP=1.24D-02              OVMax= 0.00D+00

 Cycle   2  Pass 1  IDiag  3:
 E= 0.563383001958506E-01 Delta-E=       -0.000360812355 Rises=F Damp=F
 DIIS: error= 1.06D-03 at cycle   2 NSaved=   2.
 NSaved= 2 IEnMin= 2 EnMin= 0.563383001958506E-01 IErMin= 2 ErrMin= 1.06D-03
 ErrMax= 1.06D-03  0.00D+00 EMaxC= 1.00D-01 BMatC= 5.22D-05 BMatP= 3.09D-04
 IDIUse=3 WtCom= 9.89D-01 WtEn= 1.06D-02
 Coeff-Com: -0.439D+00 0.144D+01
 Coeff-En:   0.000D+00 0.100D+01
 Coeff:     -0.435D+00 0.143D+01
 Gap=     0.536 Goal=   None    Shift=    0.000
 Gap=     0.405 Goal=   None    Shift=    0.000
 RMSDP=2.14D-03 MaxDP=7.48D-03 DE=-3.61D-04 OVMax= 8.65D-03

 Cycle   3  Pass 1  IDiag  3:
 E= 0.562565805253534E-01 Delta-E=       -0.000081719670 Rises=F Damp=F
 DIIS: error= 3.46D-04 at cycle   3 NSaved=   3.
 NSaved= 3 IEnMin= 3 EnMin= 0.562565805253534E-01 IErMin= 3 ErrMin= 3.46D-04
 ErrMax= 3.46D-04  0.00D+00 EMaxC= 1.00D-01 BMatC= 4.90D-06 BMatP= 5.22D-05
 IDIUse=3 WtCom= 9.97D-01 WtEn= 3.46D-03
 Coeff-Com:  0.197D+00-0.883D+00 0.169D+01
 Coeff-En:   0.000D+00 0.000D+00 0.100D+01
 Coeff:      0.197D+00-0.880D+00 0.168D+01
 Gap=     0.537 Goal=   None    Shift=    0.000
 Gap=     0.405 Goal=   None    Shift=    0.000
 RMSDP=8.22D-04 MaxDP=2.67D-03 DE=-8.17D-05 OVMax= 3.00D-03

 Cycle   4  Pass 1  IDiag  3:
 E= 0.562490214080444E-01 Delta-E=       -0.000007559117 Rises=F Damp=F
 DIIS: error= 3.38D-05 at cycle   4 NSaved=   4.
 NSaved= 4 IEnMin= 4 EnMin= 0.562490214080444E-01 IErMin= 4 ErrMin= 3.38D-05
 ErrMax= 3.38D-05  0.00D+00 EMaxC= 1.00D-01 BMatC= 3.79D-08 BMatP= 4.90D-06
 IDIUse=1 WtCom= 1.00D+00 WtEn= 0.00D+00
 Coeff-Com: -0.194D+00 0.864D+00-0.165D+01 0.198D+01
 Coeff:     -0.194D+00 0.864D+00-0.165D+01 0.198D+01
 Gap=     0.537 Goal=   None    Shift=    0.000
 Gap=     0.405 Goal=   None    Shift=    0.000
 RMSDP=6.64D-05 MaxDP=2.81D-04 DE=-7.56D-06 OVMax= 2.89D-04

 Cycle   5  Pass 1  IDiag  3:
 E= 0.562489585092827E-01 Delta-E=       -0.000000062899 Rises=F Damp=F
 DIIS: error= 8.83D-06 at cycle   5 NSaved=   5.
 NSaved= 5 IEnMin= 5 EnMin= 0.562489585092827E-01 IErMin= 5 ErrMin= 8.83D-06
 ErrMax= 8.83D-06  0.00D+00 EMaxC= 1.00D-01 BMatC= 3.17D-09 BMatP= 3.79D-08
 IDIUse=1 WtCom= 1.00D+00 WtEn= 0.00D+00
 Coeff-Com:  0.277D+00-0.123D+01 0.235D+01-0.289D+01 0.249D+01
 Coeff:      0.277D+00-0.123D+01 0.235D+01-0.289D+01 0.249D+01
 Gap=     0.537 Goal=   None    Shift=    0.000
 Gap=     0.405 Goal=   None    Shift=    0.000
 RMSDP=3.06D-05 MaxDP=1.22D-04 DE=-6.29D-08 OVMax= 1.34D-04

 Cycle   6  Pass 1  IDiag  3:
 E= 0.562489496923639E-01 Delta-E=       -0.000000008817 Rises=F Damp=F
 DIIS: error= 2.12D-06 at cycle   6 NSaved=   6.
 NSaved= 6 IEnMin= 6 EnMin= 0.562489496923639E-01 IErMin= 6 ErrMin= 2.12D-06
 ErrMax= 2.12D-06  0.00D+00 EMaxC= 1.00D-01 BMatC= 1.92D-10 BMatP= 3.17D-09
 IDIUse=1 WtCom= 1.00D+00 WtEn= 0.00D+00
 Coeff-Com: -0.705D-03 0.467D-02-0.985D-02 0.582D-03-0.295D+00 0.130D+01
 Coeff:     -0.705D-03 0.467D-02-0.985D-02 0.582D-03-0.295D+00 0.130D+01
 Gap=     0.537 Goal=   None    Shift=    0.000
 Gap=     0.405 Goal=   None    Shift=    0.000
 RMSDP=9.63D-06 MaxDP=3.72D-05 DE=-8.82D-09 OVMax= 4.20D-05

 Cycle   7  Pass 1  IDiag  3:
 E= 0.562489491456368E-01 Delta-E=       -0.000000000547 Rises=F Damp=F
 DIIS: error= 5.95D-08 at cycle   7 NSaved=   7.
 NSaved= 7 IEnMin= 7 EnMin= 0.562489491456368E-01 IErMin= 7 ErrMin= 5.95D-08
 ErrMax= 5.95D-08  0.00D+00 EMaxC= 1.00D-01 BMatC= 2.06D-13 BMatP= 1.92D-10
 IDIUse=1 WtCom= 1.00D+00 WtEn= 0.00D+00
 Coeff-Com:  0.110D-03-0.161D-02 0.375D-02 0.379D-02 0.213D+00-0.954D+00
 Coeff-Com:  0.173D+01
 Coeff:      0.110D-03-0.161D-02 0.375D-02 0.379D-02 0.213D+00-0.954D+00
 Coeff:      0.173D+01
 Gap=     0.537 Goal=   None    Shift=    0.000
 Gap=     0.405 Goal=   None    Shift=    0.000
 RMSDP=1.03D-07 MaxDP=3.91D-07 DE=-5.47D-10 OVMax= 3.91D-07

 Cycle   8  Pass 1  IDiag  3:
 E= 0.562489491454308E-01 Delta-E=       -0.000000000000 Rises=F Damp=F
 DIIS: error= 8.50D-09 at cycle   8 NSaved=   8.
 NSaved= 8 IEnMin= 8 EnMin= 0.562489491454308E-01 IErMin= 8 ErrMin= 8.50D-09
 ErrMax= 8.50D-09  0.00D+00 EMaxC= 1.00D-01 BMatC= 2.91D-15 BMatP= 2.06D-13
 IDIUse=1 WtCom= 1.00D+00 WtEn= 0.00D+00
 Coeff-Com: -0.121D-03 0.185D-02-0.430D-02-0.447D-02-0.249D+00 0.111D+01
 Coeff-Com: -0.205D+01 0.219D+01
 Coeff:     -0.121D-03 0.185D-02-0.430D-02-0.447D-02-0.249D+00 0.111D+01
 Coeff:     -0.205D+01 0.219D+01
 Gap=     0.537 Goal=   None    Shift=    0.000
 Gap=     0.405 Goal=   None    Shift=    0.000
 RMSDP=2.18D-08 MaxDP=8.07D-08 DE=-2.06D-13 OVMax= 8.08D-08

 Cycle   9  Pass 1  IDiag  3:
 E= 0.562489491454308E-01 Delta-E=        0.000000000000 Rises=F Damp=F
 DIIS: error= 2.58D-09 at cycle   9 NSaved=   9.
 NSaved= 9 IEnMin= 8 EnMin= 0.562489491454308E-01 IErMin= 9 ErrMin= 2.58D-09
 ErrMax= 2.58D-09  0.00D+00 EMaxC= 1.00D-01 BMatC= 2.50D-16 BMatP= 2.91D-15
 IDIUse=1 WtCom= 1.00D+00 WtEn= 0.00D+00
 Coeff-Com:  0.820D-07-0.154D-05-0.155D-05 0.367D-05 0.102D-02-0.434D-02
 Coeff-Com:  0.703D-02-0.102D-01 0.101D+01
 Coeff:      0.820D-07-0.154D-05-0.155D-05 0.367D-05 0.102D-02-0.434D-02
 Coeff:      0.703D-02-0.102D-01 0.101D+01
 Gap=     0.537 Goal=   None    Shift=    0.000
 Gap=     0.405 Goal=   None    Shift=    0.000
 RMSDP=3.82D-09 MaxDP=1.59D-08 DE= 0.00D+00 OVMax= 1.59D-08

 Cycle  10  Pass 2  IDiag  1:
 SCF Done:  E(UPM3) =  0.562489491454E-01 A.U. after   10 cycles
            NFock=  9  Conv=0.38D-08     -V/T= 1.0052
 <Sx>= 0.0000 <Sy>= 0.0000 <Sz>= 0.5000 <S**2>= 0.7517 S= 0.5008
 <L.S>= 0.000000000000E+00
 KE=-1.078098853884D+01 PE=-7.524289511830D+00 EE= 7.007439382359D+00
 Annihilation of the first spin contaminant:
 S**2 before annihilation     0.7517,   after     0.7500
 Leave Link  502 at Wed Oct 21 14:23:22 2020, MaxMem=  2684354560 cpu:               8.9 elap:               1.5
 (Enter /udrive/faculty/rpeverati/g16/g16/l508.exe)
 QCSCF skips out because SCF is already converged.
 Leave Link  508 at Wed Oct 21 14:23:22 2020, MaxMem=  2684354560 cpu:               0.7 elap:               0.7
 (Enter /udrive/faculty/rpeverati/g16/g16/l701.exe)
 ... and contract with generalized density number  0.
 Compute integral first derivatives.
 Leave Link  701 at Wed Oct 21 14:23:24 2020, MaxMem=  2684354560 cpu:               3.7 elap:               1.0
 (Enter /udrive/faculty/rpeverati/g16/g16/l702.exe)
 L702 exits ... SP integral derivatives will be done elsewhere.
 Leave Link  702 at Wed Oct 21 14:23:25 2020, MaxMem=  2684354560 cpu:               1.9 elap:               0.8
 (Enter /udrive/faculty/rpeverati/g16/g16/l703.exe)
 Integral derivatives from FoFJK, PRISM(SPDF).
 Compute integral first derivatives, UseDBF=F ICtDFT=           0.
 Calling FoFJK, ICntrl=      2127 FMM=F ISym2X=1 I1Cent= 0 IOpClX= 1 NMat=1 NMatS=1 NMatT=0.
 FoFJK:  IHMeth= 9 ICntrl=    2127 DoSepK=F KAlg= 0 I1Cent=           0 FoldK=F
 IRaf=         0 NMat=       1 IRICut=       1 DoRegI=T DoRafI=F ISym2E= 1 IDoP0=3 IntGTp=3.
 FoFCou: FMM=F IPFlag=           0 FMFlag=      100000 FMFlg1=         800
         NFxFlg=           0 DoJE=F BraDBF=F KetDBF=F FulRan=T
         wScrn=  0.000000 ICntrl=      2127 IOpCl=  1 I1Cent=           0 NGrid=           0
         NMat0=    1 NMatS0=      1 NMatT0=    0 NMatD0=    1 NMtDS0=    0 NMtDT0=    0
 Petite list used in FoFCou.
 Leave Link  703 at Wed Oct 21 14:23:26 2020, MaxMem=  2684354560 cpu:               3.6 elap:               1.1
 (Enter /udrive/faculty/rpeverati/g16/g16/l716.exe)
 Dipole        =-8.15399762D-16 1.11022302D-15-6.84691742D-01
 ***** Axes restored to original set *****
 -------------------------------------------------------------------
 Center     Atomic                   Forces (Hartrees/Bohr)
 Number     Number              X              Y              Z
 -------------------------------------------------------------------
      1        7           0.000000000   -0.000000000   -0.008729883
      2        1          -0.000000000   -0.002726972    0.004364941
      3        1           0.000000000    0.002726972    0.004364941
 -------------------------------------------------------------------
 Cartesian Forces:  Max     0.008729883 RMS     0.003788712
 Leave Link  716 at Wed Oct 21 14:23:27 2020, MaxMem=  2684354560 cpu:               1.9 elap:               0.8
 (Enter /udrive/faculty/rpeverati/g16/g16/l103.exe)

 GradGradGradGradGradGradGradGradGradGradGradGradGradGradGradGradGradGrad
 Berny optimization.
 Optmz: redundant internal coordinate code flag= 1
 Using GEDIIS/GDIIS optimizer.
 Red2BG:  D1=  7.72D-01 OD1=  1.08D-01 B2RMS=  0.00D+00 IAprox=0
 FormGI is forming the generalized inverse of G from B-inverse, IUseBI=4.
 Internal  Forces:  Max     0.004752120 RMS     0.004431754
 Search for a local minimum.
 Step number   2 out of a maximum of  100
 All quantities printed in internal units (Hartrees-Bohrs-Radians)
 RMS Force = .44318D-02 SwitMx=.10000D-02 MixMth= 1
 Mixed Optimization -- RFO/linear search
 Update second derivatives using D2CorX and points    1    2
 DE= -2.93D-03 DEPred=-2.47D-03 R= 1.19D+00
 TightC=F SS=  1.41D+00  RLast= 1.34D-01 DXNew= 5.0454D-01 4.0059D-01
 Trust test= 1.19D+00 RLast= 1.34D-01 DXMaxT set to 4.01D-01
 The second derivative matrix:
                          R1        R2        A1
           R1           0.41379
           R2          -0.02320   0.41379
           A1           0.01669   0.01669   0.14811
 ITU=  1  0
 Use linear search instead of GDIIS.
 Eigenvectors of the second derivative matrix:
                           1         2         3
     Eigenvalues --     0.14583   0.39286   0.43699
   1         R1         0.06789  -0.70384   0.70711
   2         R2         0.06789  -0.70384  -0.70711
   3         A1        -0.99538  -0.09601   0.00000
 Iter=   1 RLamda= 0.00000000D+00 Sum=-7.88558487D-07.
 Iter=   2 RLamda=-7.88558487D-07 Sum=-7.88555485D-07.
 RFO step:  Lambda=-7.88558487D-07 EMin= 1.45833848D-01
 Quartic linear search produced a step of  0.22734.
 Iteration  1 RMS(Cart)=  0.01301469 RMS(Int)=  0.00016065
 Iteration  2 RMS(Cart)=  0.00017774 RMS(Int)=  0.00000001
 Iteration  3 RMS(Cart)=  0.00000001 RMS(Int)=  0.00000000
 ITry= 1 IFail=0 DXMaxC= 1.79D-02 DCOld= 1.00D+10 DXMaxT= 4.01D-01 DXLimC= 3.00D+00 Rises=F
 ClnCor:  largest displacement from symmetrization is 4.44D-16 for atom     3.
 Variable       Old X    -DE/DX   Delta X   Delta X   Delta X     New X
                                 (Linear)    (Quad)   (Total)
    R1        1.87653  -0.00475  -0.01333   0.00057  -0.01276   1.86377
    R2        1.87653  -0.00475  -0.01333   0.00057  -0.01276   1.86377
    A1        1.90513   0.00371   0.02379   0.00178   0.02557   1.93070
         Item               Value     Threshold  Converged?
 Maximum Force            0.004752     0.000450     NO 
 RMS     Force            0.004432     0.000300     NO 
 Maximum Displacement     0.017936     0.001800     NO 
 RMS     Displacement     0.012963     0.001200     NO 
 Predicted change in Energy=-1.149922D-04
 Lowest energy point so far.  Saving SCF results.
 Largest change from initial coordinates is atom    2       0.053 Angstoms.
 GradGradGradGradGradGradGradGradGradGradGradGradGradGradGradGradGradGrad

 Leave Link  103 at Wed Oct 21 14:23:29 2020, MaxMem=  2684354560 cpu:               4.8 elap:               1.1
 (Enter /udrive/faculty/rpeverati/g16/g16/l202.exe)
                          Input orientation:                          
 ---------------------------------------------------------------------
 Center     Atomic      Atomic             Coordinates (Angstroms)
 Number     Number       Type             X           Y           Z
 ---------------------------------------------------------------------
      1          7           0        0.000000   -0.000000    0.091376
      2          1           0        0.000000    0.810955   -0.469935
      3          1           0       -0.000000   -0.810955   -0.469935
 ---------------------------------------------------------------------
                    Distance matrix (angstroms):
                    1          2          3
     1  N    0.000000
     2  H    0.986265   0.000000
     3  H    0.986265   1.621910   0.000000
 Stoichiometry    H2N(2)
 Framework group  C2V[C2(N),SGV(H2)]
 Deg. of freedom     2
 Full point group                 C2V     NOp   4
 RotChk:  IX=0 Diff= 6.99D-16
 Largest Abelian subgroup         C2V     NOp   4
 Largest concise Abelian subgroup C2      NOp   2
                         Standard orientation:                         
 ---------------------------------------------------------------------
 Center     Atomic      Atomic             Coordinates (Angstroms)
 Number     Number       Type             X           Y           Z
 ---------------------------------------------------------------------
      1          7           0        0.000000    0.000000    0.124736
      2          1           0       -0.000000    0.810955   -0.436575
      3          1           0       -0.000000   -0.810955   -0.436575
 ---------------------------------------------------------------------
 Rotational constants (GHZ):         910.3307312         381.2487880         268.7116688
 Leave Link  202 at Wed Oct 21 14:23:30 2020, MaxMem=  2684354560 cpu:               2.2 elap:               0.9
 (Enter /udrive/faculty/rpeverati/g16/g16/l301.exe)
 Standard basis: VSTO-6G (5D, 7F)
 Ernie: Thresh=  0.10000D-02 Tol=  0.10000D-05 Strict=F.
  NNHCO=     0 NNPyr=     0 NCTC=     0               EPep=         0.000000000
    EC=         3.877146120  ECS=         0.351301975   EG=         0.042824192
   EHC=         0.000000000  EAt=        -6.753071087  AtH=         0.346136607
 EPDDG=         0.000000000  ECC=         4.271272287 EAtT=         7.099207694
 There are     3 symmetry adapted cartesian basis functions of A1  symmetry.
 There are     0 symmetry adapted cartesian basis functions of A2  symmetry.
 There are     1 symmetry adapted cartesian basis functions of B1  symmetry.
 There are     2 symmetry adapted cartesian basis functions of B2  symmetry.
 There are     3 symmetry adapted basis functions of A1  symmetry.
 There are     0 symmetry adapted basis functions of A2  symmetry.
 There are     1 symmetry adapted basis functions of B1  symmetry.
 There are     2 symmetry adapted basis functions of B2  symmetry.
     6 basis functions,    36 primitive gaussians,     6 cartesian basis functions
     4 alpha electrons        3 beta electrons
       nuclear repulsion energy        11.3704799808 Hartrees.
 IExCor=    0 DFT=F Ex=HF Corr=None ExCW=0 ScaHFX=  1.000000
 ScaDFX=  1.000000  1.000000  1.000000  1.000000 ScalE2=  1.000000  1.000000
 IRadAn=      5 IRanWt=     -1 IRanGd=            0 ICorTp=0 IEmpDi=  4
 Integral buffers will be    131072 words long.
 Regular integral format.
 Two-electron integral symmetry is turned off.
 Leave Link  301 at Wed Oct 21 14:23:31 2020, MaxMem=  2684354560 cpu:               4.9 elap:               1.1
 (Enter /udrive/faculty/rpeverati/g16/g16/l302.exe)
 Do NDO integrals.
 NPDir=0 NMtPBC=     1 NCelOv=     1 NCel=       1 NClECP=     1 NCelD=      1
         NCelK=      1 NCelE2=     1 NClLst=     1 CellRange=     0.0.
 One-electron integrals computed using PRISM.
 NBasis=     6 RedAO= T EigKep=  1.00D+00  NBF=     3     0     1     2
 NBsUse=     6 1.00D-06 EigRej= -1.00D+00 NBFU=     3     0     1     2
 Leave Link  302 at Wed Oct 21 14:23:33 2020, MaxMem=  2684354560 cpu:               3.2 elap:               1.0
 (Enter /udrive/faculty/rpeverati/g16/g16/l303.exe)
 DipDrv:  MaxL=1.
 Leave Link  303 at Wed Oct 21 14:23:34 2020, MaxMem=  2684354560 cpu:               2.9 elap:               0.9
 (Enter /udrive/faculty/rpeverati/g16/g16/l401.exe)
 Initial guess from the checkpoint file:  "MN_70_NH2_BH76_PM3_SE.chk"
 SCF N**3 symmetry information disabled.
 B after Tr=    -0.000000   -0.000000   -0.000000
         Rot=    1.000000   -0.000000   -0.000000   -0.000000 Ang=   0.00 deg.
 Guess basis will be translated and rotated to current coordinates.
 JPrj=0 DoOrth=T DoCkMO=T.
 Initial guess orbital symmetries:
 Alpha Orbitals:
       Occupied  (A1) (B2) (B1) (A1)
       Virtual   (A1) (B2)
 Beta  Orbitals:
       Occupied  (A1) (B2) (A1)
       Virtual   (B1) (A1) (B2)
 The electronic state of the initial guess is 2-B1.
 Initial guess <Sx>= 0.0000 <Sy>= 0.0000 <Sz>= 0.5000 <S**2>= 0.7517 S= 0.5008
 Leave Link  401 at Wed Oct 21 14:23:35 2020, MaxMem=  2684354560 cpu:               3.0 elap:               1.0
 (Enter /udrive/faculty/rpeverati/g16/g16/l502.exe)
 Keep J ints in memory in canonical form, NReq=859134.
 FoFCou: FMM=F IPFlag=           0 FMFlag=           0 FMFlg1=           0
         NFxFlg=           0 DoJE=F BraDBF=F KetDBF=F FulRan=T
         wScrn=  0.000000 ICntrl=       600 IOpCl=  2 I1Cent=           0 NGrid=           0
         NMat0=    1 NMatS0=     12 NMatT0=    0 NMatD0=    1 NMtDS0=    0 NMtDT0=    0
 Symmetry not used in FoFCou.
 Two-electron integral symmetry not used.
 UHF open shell SCF:
 Using DIIS extrapolation, IDIIS=  1040.
 Overlap will be assumed to be unity.
 NGot=  2684354560 LenX=  2684294129 LenY=  2684293247
 Requested convergence on RMS density matrix=1.00D-08 within 120 cycles.
 Requested convergence on MAX density matrix=1.00D-06.
 Requested convergence on             energy=1.00D-06.
 No special actions if energy rises.

 Cycle   1  Pass 1  IDiag  1:
 E= 0.561660043990226E-01
 DIIS: error= 7.28D-04 at cycle   1 NSaved=   1.
 NSaved= 1 IEnMin= 1 EnMin= 0.561660043990226E-01 IErMin= 1 ErrMin= 7.28D-04
 ErrMax= 7.28D-04  0.00D+00 EMaxC= 1.00D-01 BMatC= 1.80D-05 BMatP= 1.80D-05
 IDIUse=3 WtCom= 9.93D-01 WtEn= 7.28D-03
 Coeff-Com:  0.100D+01
 Coeff-En:   0.100D+01
 Coeff:      0.100D+01
 RMSDP=8.80D-04 MaxDP=3.04D-03              OVMax= 0.00D+00

 Cycle   2  Pass 1  IDiag  3:
 E= 0.561445804203071E-01 Delta-E=       -0.000021423979 Rises=F Damp=F
 DIIS: error= 2.56D-04 at cycle   2 NSaved=   2.
 NSaved= 2 IEnMin= 2 EnMin= 0.561445804203071E-01 IErMin= 2 ErrMin= 2.56D-04
 ErrMax= 2.56D-04  0.00D+00 EMaxC= 1.00D-01 BMatC= 3.03D-06 BMatP= 1.80D-05
 IDIUse=3 WtCom= 9.97D-01 WtEn= 2.56D-03
 Coeff-Com: -0.440D+00 0.144D+01
 Coeff-En:   0.000D+00 0.100D+01
 Coeff:     -0.438D+00 0.144D+01
 Gap=     0.535 Goal=   None    Shift=    0.000
 Gap=     0.404 Goal=   None    Shift=    0.000
 RMSDP=5.25D-04 MaxDP=1.86D-03 DE=-2.14D-05 OVMax= 2.15D-03

 Cycle   3  Pass 1  IDiag  3:
 E= 0.561397586315877E-01 Delta-E=       -0.000004821789 Rises=F Damp=F
 DIIS: error= 7.79D-05 at cycle   3 NSaved=   3.
 NSaved= 3 IEnMin= 3 EnMin= 0.561397586315877E-01 IErMin= 3 ErrMin= 7.79D-05
 ErrMax= 7.79D-05  0.00D+00 EMaxC= 1.00D-01 BMatC= 2.75D-07 BMatP= 3.03D-06
 IDIUse=1 WtCom= 1.00D+00 WtEn= 0.00D+00
 Coeff-Com:  0.197D+00-0.868D+00 0.167D+01
 Coeff:      0.197D+00-0.868D+00 0.167D+01
 Gap=     0.535 Goal=   None    Shift=    0.000
 Gap=     0.404 Goal=   None    Shift=    0.000
 RMSDP=1.95D-04 MaxDP=6.47D-04 DE=-4.82D-06 OVMax= 7.26D-04

 Cycle   4  Pass 1  IDiag  3:
 E= 0.561393350958763E-01 Delta-E=       -0.000000423536 Rises=F Damp=F
 DIIS: error= 7.58D-06 at cycle   4 NSaved=   4.
 NSaved= 4 IEnMin= 4 EnMin= 0.561393350958763E-01 IErMin= 4 ErrMin= 7.58D-06
 ErrMax= 7.58D-06  0.00D+00 EMaxC= 1.00D-01 BMatC= 2.18D-09 BMatP= 2.75D-07
 IDIUse=1 WtCom= 1.00D+00 WtEn= 0.00D+00
 Coeff-Com: -0.196D+00 0.857D+00-0.164D+01 0.198D+01
 Coeff:     -0.196D+00 0.857D+00-0.164D+01 0.198D+01
 Gap=     0.535 Goal=   None    Shift=    0.000
 Gap=     0.404 Goal=   None    Shift=    0.000
 RMSDP=1.50D-05 MaxDP=5.96D-05 DE=-4.24D-07 OVMax= 6.07D-05

 Cycle   5  Pass 1  IDiag  3:
 E= 0.561393318114156E-01 Delta-E=       -0.000000003284 Rises=F Damp=F
 DIIS: error= 1.73D-06 at cycle   5 NSaved=   5.
 NSaved= 5 IEnMin= 5 EnMin= 0.561393318114156E-01 IErMin= 5 ErrMin= 1.73D-06
 ErrMax= 1.73D-06  0.00D+00 EMaxC= 1.00D-01 BMatC= 1.32D-10 BMatP= 2.18D-09
 IDIUse=1 WtCom= 1.00D+00 WtEn= 0.00D+00
 Coeff-Com:  0.425D+00-0.186D+01 0.356D+01-0.436D+01 0.323D+01
 Coeff:      0.425D+00-0.186D+01 0.356D+01-0.436D+01 0.323D+01
 Gap=     0.535 Goal=   None    Shift=    0.000
 Gap=     0.404 Goal=   None    Shift=    0.000
 RMSDP=8.05D-06 MaxDP=3.09D-05 DE=-3.28D-09 OVMax= 3.42D-05

 Cycle   6  Pass 1  IDiag  3:
 E= 0.561393314132879E-01 Delta-E=       -0.000000000398 Rises=F Damp=F
 DIIS: error= 1.13D-07 at cycle   6 NSaved=   6.
 NSaved= 6 IEnMin= 6 EnMin= 0.561393314132879E-01 IErMin= 6 ErrMin= 1.13D-07
 ErrMax= 1.13D-07  0.00D+00 EMaxC= 1.00D-01 BMatC= 3.67D-13 BMatP= 1.32D-10
 IDIUse=1 WtCom= 1.00D+00 WtEn= 0.00D+00
 Coeff-Com: -0.767D-02 0.340D-01-0.654D-01 0.744D-01-0.823D-01 0.105D+01
 Coeff:     -0.767D-02 0.340D-01-0.654D-01 0.744D-01-0.823D-01 0.105D+01
 Gap=     0.535 Goal=   None    Shift=    0.000
 Gap=     0.404 Goal=   None    Shift=    0.000
 RMSDP=3.17D-07 MaxDP=1.53D-06 DE=-3.98D-10 OVMax= 1.71D-06

 Cycle   7  Pass 1  IDiag  3:
 E= 0.561393314125880E-01 Delta-E=       -0.000000000001 Rises=F Damp=F
 DIIS: error= 1.05D-08 at cycle   7 NSaved=   7.
 NSaved= 7 IEnMin= 7 EnMin= 0.561393314125880E-01 IErMin= 7 ErrMin= 1.05D-08
 ErrMax= 1.05D-08  0.00D+00 EMaxC= 1.00D-01 BMatC= 6.07D-15 BMatP= 3.67D-13
 IDIUse=1 WtCom= 1.00D+00 WtEn= 0.00D+00
 Coeff-Com:  0.132D-04-0.278D-03 0.660D-03 0.196D-02 0.115D-01-0.478D+00
 Coeff-Com:  0.146D+01
 Coeff:      0.132D-04-0.278D-03 0.660D-03 0.196D-02 0.115D-01-0.478D+00
 Coeff:      0.146D+01
 Gap=     0.535 Goal=   None    Shift=    0.000
 Gap=     0.404 Goal=   None    Shift=    0.000
 RMSDP=1.43D-08 MaxDP=3.94D-08 DE=-7.00D-13 OVMax= 5.02D-08

 Cycle   8  Pass 1  IDiag  3:
 E= 0.561393314125826E-01 Delta-E=       -0.000000000000 Rises=F Damp=F
 DIIS: error= 4.10D-10 at cycle   8 NSaved=   8.
 NSaved= 8 IEnMin= 8 EnMin= 0.561393314125826E-01 IErMin= 8 ErrMin= 4.10D-10
 ErrMax= 4.10D-10  0.00D+00 EMaxC= 1.00D-01 BMatC= 7.64D-18 BMatP= 6.07D-15
 IDIUse=1 WtCom= 1.00D+00 WtEn= 0.00D+00
 Coeff-Com: -0.224D-04 0.383D-03-0.900D-03-0.248D-02-0.150D-01 0.621D+00
 Coeff-Com: -0.190D+01 0.230D+01
 Coeff:     -0.224D-04 0.383D-03-0.900D-03-0.248D-02-0.150D-01 0.621D+00
 Coeff:     -0.190D+01 0.230D+01
 Gap=     0.535 Goal=   None    Shift=    0.000
 Gap=     0.404 Goal=   None    Shift=    0.000
 RMSDP=1.11D-09 MaxDP=3.43D-09 DE=-5.33D-15 OVMax= 3.72D-09

 Cycle   9  Pass 2  IDiag  1:
 SCF Done:  E(UPM3) =  0.561393314126E-01 A.U. after    9 cycles
            NFock=  8  Conv=0.11D-08     -V/T= 1.0052
 <Sx>= 0.0000 <Sy>= 0.0000 <Sz>= 0.5000 <S**2>= 0.7516 S= 0.5008
 <L.S>= 0.000000000000E+00
 KE=-1.078873240791D+01 PE=-7.543215127009D+00 EE= 7.017606885543D+00
 Annihilation of the first spin contaminant:
 S**2 before annihilation     0.7516,   after     0.7500
 Leave Link  502 at Wed Oct 21 14:23:37 2020, MaxMem=  2684354560 cpu:               7.0 elap:               1.2
 (Enter /udrive/faculty/rpeverati/g16/g16/l508.exe)
 QCSCF skips out because SCF is already converged.
 Leave Link  508 at Wed Oct 21 14:23:38 2020, MaxMem=  2684354560 cpu:               0.7 elap:               0.7
 (Enter /udrive/faculty/rpeverati/g16/g16/l701.exe)
 ... and contract with generalized density number  0.
 Compute integral first derivatives.
 Leave Link  701 at Wed Oct 21 14:23:39 2020, MaxMem=  2684354560 cpu:               4.0 elap:               1.0
 (Enter /udrive/faculty/rpeverati/g16/g16/l702.exe)
 L702 exits ... SP integral derivatives will be done elsewhere.
 Leave Link  702 at Wed Oct 21 14:23:40 2020, MaxMem=  2684354560 cpu:               2.1 elap:               0.8
 (Enter /udrive/faculty/rpeverati/g16/g16/l703.exe)
 Integral derivatives from FoFJK, PRISM(SPDF).
 Compute integral first derivatives, UseDBF=F ICtDFT=           0.
 Calling FoFJK, ICntrl=      2127 FMM=F ISym2X=1 I1Cent= 0 IOpClX= 1 NMat=1 NMatS=1 NMatT=0.
 FoFJK:  IHMeth= 9 ICntrl=    2127 DoSepK=F KAlg= 0 I1Cent=           0 FoldK=F
 IRaf=         0 NMat=       1 IRICut=       1 DoRegI=T DoRafI=F ISym2E= 1 IDoP0=3 IntGTp=3.
 FoFCou: FMM=F IPFlag=           0 FMFlag=      100000 FMFlg1=         800
         NFxFlg=           0 DoJE=F BraDBF=F KetDBF=F FulRan=T
         wScrn=  0.000000 ICntrl=      2127 IOpCl=  1 I1Cent=           0 NGrid=           0
         NMat0=    1 NMatS0=      1 NMatT0=    0 NMatD0=    1 NMtDS0=    0 NMtDT0=    0
 Petite list used in FoFCou.
 Leave Link  703 at Wed Oct 21 14:23:41 2020, MaxMem=  2684354560 cpu:               3.4 elap:               0.9
 (Enter /udrive/faculty/rpeverati/g16/g16/l716.exe)
 Dipole        =-1.08454349D-15-2.44249065D-15-6.83630660D-01
 ***** Axes restored to original set *****
 -------------------------------------------------------------------
 Center     Atomic                   Forces (Hartrees/Bohr)
 Number     Number              X              Y              Z
 -------------------------------------------------------------------
      1        7           0.000000000    0.000000000   -0.000000260
      2        1          -0.000000000    0.000402073    0.000000130
      3        1          -0.000000000   -0.000402073    0.000000130
 -------------------------------------------------------------------
 Cartesian Forces:  Max     0.000402073 RMS     0.000189539
 Leave Link  716 at Wed Oct 21 14:23:43 2020, MaxMem=  2684354560 cpu:               2.0 elap:               0.9
 (Enter /udrive/faculty/rpeverati/g16/g16/l103.exe)

 GradGradGradGradGradGradGradGradGradGradGradGradGradGradGradGradGradGrad
 Berny optimization.
 Optmz: redundant internal coordinate code flag= 1
 Using GEDIIS/GDIIS optimizer.
 Red2BG:  D1=  7.76D-01 OD1=  2.68D-02 B2RMS=  0.00D+00 IAprox=0
 FormGI is forming the generalized inverse of G from B-inverse, IUseBI=4.
 Internal  Forces:  Max     0.000426687 RMS     0.000365405
 Search for a local minimum.
 Step number   3 out of a maximum of  100
 All quantities printed in internal units (Hartrees-Bohrs-Radians)
 RMS Force = .36540D-03 SwitMx=.10000D-02 MixMth= 2
 Mixed Optimization -- En-DIIS/RFO-DIIS
 Update second derivatives using D2CorX and points    1    2    3
 DE= -1.10D-04 DEPred=-1.15D-04 R= 9.53D-01
 TightC=F SS=  1.41D+00  RLast= 3.13D-02 DXNew= 6.7371D-01 9.3896D-02
 Trust test= 9.53D-01 RLast= 3.13D-02 DXMaxT set to 4.01D-01
 The second derivative matrix:
                          R1        R2        A1
           R1           0.43212
           R2          -0.00487   0.43212
           A1           0.01445   0.01445   0.14278
 ITU=  1  1  0
 Use linear search instead of GDIIS.
 Eigenvectors of the second derivative matrix:
                           1         2         3
     Eigenvalues --     0.14132   0.42871   0.43699
   1         R1         0.05042  -0.70531   0.70711
   2         R2         0.05042  -0.70531  -0.70711
   3         A1        -0.99745  -0.07130  -0.00000
 Iter=   1 RLamda= 0.00000000D+00 Sum=-1.63362907D-06.
 Iter=   2 RLamda=-1.63362907D-06 Sum=-1.63361620D-06.
 RFO step:  Lambda=-1.63362907D-06 EMin= 1.41317081D-01
 Quartic linear search produced a step of  0.01148.
 Iteration  1 RMS(Cart)=  0.00188846 RMS(Int)=  0.00000165
 Iteration  2 RMS(Cart)=  0.00000120 RMS(Int)=  0.00000000
 Iteration  3 RMS(Cart)=  0.00000000 RMS(Int)=  0.00000000
 ITry= 1 IFail=0 DXMaxC= 2.07D-03 DCOld= 1.00D+10 DXMaxT= 4.01D-01 DXLimC= 3.00D+00 Rises=F
 ClnCor:  largest displacement from symmetrization is 6.28D-16 for atom     3.
 Variable       Old X    -DE/DX   Delta X   Delta X   Delta X     New X
                                 (Linear)    (Quad)   (Total)
    R1        1.86377   0.00033  -0.00015   0.00082   0.00068   1.86445
    R2        1.86377   0.00033  -0.00015   0.00082   0.00068   1.86445
    A1        1.93070   0.00043   0.00029   0.00255   0.00285   1.93355
         Item               Value     Threshold  Converged?
 Maximum Force            0.000427     0.000450     YES
 RMS     Force            0.000365     0.000300     NO 
 Maximum Displacement     0.002066     0.001800     NO 
 RMS     Displacement     0.001888     0.001200     NO 
 Predicted change in Energy=-8.321461D-07
 Lowest energy point so far.  Saving SCF results.
 Largest change from initial coordinates is atom    2       0.059 Angstoms.
 GradGradGradGradGradGradGradGradGradGradGradGradGradGradGradGradGradGrad

 Leave Link  103 at Wed Oct 21 14:23:44 2020, MaxMem=  2684354560 cpu:               4.6 elap:               1.0
 (Enter /udrive/faculty/rpeverati/g16/g16/l202.exe)
                          Input orientation:                          
 ---------------------------------------------------------------------
 Center     Atomic      Atomic             Coordinates (Angstroms)
 Number     Number       Type             X           Y           Z
 ---------------------------------------------------------------------
      1          7           0        0.000000   -0.000000    0.090742
      2          1           0        0.000000    0.812049   -0.469618
      3          1           0       -0.000000   -0.812049   -0.469618
 ---------------------------------------------------------------------
                    Distance matrix (angstroms):
                    1          2          3
     1  N    0.000000
     2  H    0.986624   0.000000
     3  H    0.986624   1.624097   0.000000
 Stoichiometry    H2N(2)
 Framework group  C2V[C2(N),SGV(H2)]
 Deg. of freedom     2
 Full point group                 C2V     NOp   4
 RotChk:  IX=0 Diff= 3.07D-16
 Largest Abelian subgroup         C2V     NOp   4
 Largest concise Abelian subgroup C2      NOp   2
                         Standard orientation:                         
 ---------------------------------------------------------------------
 Center     Atomic      Atomic             Coordinates (Angstroms)
 Number     Number       Type             X           Y           Z
 ---------------------------------------------------------------------
      1          7           0        0.000000    0.000000    0.124524
      2          1           0       -0.000000    0.812049   -0.435835
      3          1           0       -0.000000   -0.812049   -0.435835
 ---------------------------------------------------------------------
 Rotational constants (GHZ):         913.4240817         380.2226682         268.4693805
 Leave Link  202 at Wed Oct 21 14:23:45 2020, MaxMem=  2684354560 cpu:               2.2 elap:               0.9
 (Enter /udrive/faculty/rpeverati/g16/g16/l301.exe)
 Standard basis: VSTO-6G (5D, 7F)
 Ernie: Thresh=  0.10000D-02 Tol=  0.10000D-05 Strict=F.
  NNHCO=     0 NNPyr=     0 NCTC=     0               EPep=         0.000000000
    EC=         3.876280753  ECS=         0.350925100   EG=         0.042835651
   EHC=         0.000000000  EAt=        -6.753071087  AtH=         0.346136607
 EPDDG=         0.000000000  ECC=         4.270041505 EAtT=         7.099207694
 There are     3 symmetry adapted cartesian basis functions of A1  symmetry.
 There are     0 symmetry adapted cartesian basis functions of A2  symmetry.
 There are     1 symmetry adapted cartesian basis functions of B1  symmetry.
 There are     2 symmetry adapted cartesian basis functions of B2  symmetry.
 There are     3 symmetry adapted basis functions of A1  symmetry.
 There are     0 symmetry adapted basis functions of A2  symmetry.
 There are     1 symmetry adapted basis functions of B1  symmetry.
 There are     2 symmetry adapted basis functions of B2  symmetry.
     6 basis functions,    36 primitive gaussians,     6 cartesian basis functions
     4 alpha electrons        3 beta electrons
       nuclear repulsion energy        11.3692491981 Hartrees.
 IExCor=    0 DFT=F Ex=HF Corr=None ExCW=0 ScaHFX=  1.000000
 ScaDFX=  1.000000  1.000000  1.000000  1.000000 ScalE2=  1.000000  1.000000
 IRadAn=      5 IRanWt=     -1 IRanGd=            0 ICorTp=0 IEmpDi=  4
 Integral buffers will be    131072 words long.
 Regular integral format.
 Two-electron integral symmetry is turned off.
 Leave Link  301 at Wed Oct 21 14:23:47 2020, MaxMem=  2684354560 cpu:               5.1 elap:               1.1
 (Enter /udrive/faculty/rpeverati/g16/g16/l302.exe)
 Do NDO integrals.
 NPDir=0 NMtPBC=     1 NCelOv=     1 NCel=       1 NClECP=     1 NCelD=      1
         NCelK=      1 NCelE2=     1 NClLst=     1 CellRange=     0.0.
 One-electron integrals computed using PRISM.
 NBasis=     6 RedAO= T EigKep=  1.00D+00  NBF=     3     0     1     2
 NBsUse=     6 1.00D-06 EigRej= -1.00D+00 NBFU=     3     0     1     2
 Leave Link  302 at Wed Oct 21 14:23:48 2020, MaxMem=  2684354560 cpu:               2.9 elap:               0.9
 (Enter /udrive/faculty/rpeverati/g16/g16/l303.exe)
 DipDrv:  MaxL=1.
 Leave Link  303 at Wed Oct 21 14:23:49 2020, MaxMem=  2684354560 cpu:               2.7 elap:               0.9
 (Enter /udrive/faculty/rpeverati/g16/g16/l401.exe)
 Initial guess from the checkpoint file:  "MN_70_NH2_BH76_PM3_SE.chk"
 SCF N**3 symmetry information disabled.
 B after Tr=    -0.000000   -0.000000    0.000000
         Rot=    1.000000   -0.000000   -0.000000   -0.000000 Ang=   0.00 deg.
 Guess basis will be translated and rotated to current coordinates.
 JPrj=0 DoOrth=T DoCkMO=T.
 Initial guess orbital symmetries:
 Alpha Orbitals:
       Occupied  (A1) (B2) (B1) (A1)
       Virtual   (A1) (B2)
 Beta  Orbitals:
       Occupied  (A1) (B2) (A1)
       Virtual   (B1) (A1) (B2)
 The electronic state of the initial guess is 2-B1.
 Initial guess <Sx>= 0.0000 <Sy>= 0.0000 <Sz>= 0.5000 <S**2>= 0.7516 S= 0.5008
 Leave Link  401 at Wed Oct 21 14:23:50 2020, MaxMem=  2684354560 cpu:               3.0 elap:               0.9
 (Enter /udrive/faculty/rpeverati/g16/g16/l502.exe)
 Keep J ints in memory in canonical form, NReq=859134.
 FoFCou: FMM=F IPFlag=           0 FMFlag=           0 FMFlg1=           0
         NFxFlg=           0 DoJE=F BraDBF=F KetDBF=F FulRan=T
         wScrn=  0.000000 ICntrl=       600 IOpCl=  2 I1Cent=           0 NGrid=           0
         NMat0=    1 NMatS0=     12 NMatT0=    0 NMatD0=    1 NMtDS0=    0 NMtDT0=    0
 Symmetry not used in FoFCou.
 Two-electron integral symmetry not used.
 UHF open shell SCF:
 Using DIIS extrapolation, IDIIS=  1040.
 Overlap will be assumed to be unity.
 NGot=  2684354560 LenX=  2684294129 LenY=  2684293247
 Requested convergence on RMS density matrix=1.00D-08 within 120 cycles.
 Requested convergence on MAX density matrix=1.00D-06.
 Requested convergence on             energy=1.00D-06.
 No special actions if energy rises.

 Cycle   1  Pass 1  IDiag  1:
 E= 0.561388759486992E-01
 DIIS: error= 5.58D-05 at cycle   1 NSaved=   1.
 NSaved= 1 IEnMin= 1 EnMin= 0.561388759486992E-01 IErMin= 1 ErrMin= 5.58D-05
 ErrMax= 5.58D-05  0.00D+00 EMaxC= 1.00D-01 BMatC= 1.19D-07 BMatP= 1.19D-07
 IDIUse=1 WtCom= 1.00D+00 WtEn= 0.00D+00
 Coeff-Com:  0.100D+01
 Coeff:      0.100D+01
 RMSDP=6.80D-05 MaxDP=2.59D-04              OVMax= 0.00D+00

 Cycle   2  Pass 1  IDiag  3:
 E= 0.561387340312844E-01 Delta-E=       -0.000000141917 Rises=F Damp=F
 DIIS: error= 2.60D-05 at cycle   2 NSaved=   2.
 NSaved= 2 IEnMin= 2 EnMin= 0.561387340312844E-01 IErMin= 2 ErrMin= 2.60D-05
 ErrMax= 2.60D-05  0.00D+00 EMaxC= 1.00D-01 BMatC= 2.68D-08 BMatP= 1.19D-07
 IDIUse=1 WtCom= 1.00D+00 WtEn= 0.00D+00
 Coeff-Com: -0.892D+00 0.189D+01
 Coeff:     -0.892D+00 0.189D+01
 Gap=     0.535 Goal=   None    Shift=    0.000
 Gap=     0.404 Goal=   None    Shift=    0.000
 RMSDP=6.13D-05 MaxDP=2.32D-04 DE=-1.42D-07 OVMax= 2.50D-04

 Cycle   3  Pass 1  IDiag  3:
 E= 0.561386921918832E-01 Delta-E=       -0.000000041839 Rises=F Damp=F
 DIIS: error= 1.65D-06 at cycle   3 NSaved=   3.
 NSaved= 3 IEnMin= 3 EnMin= 0.561386921918832E-01 IErMin= 3 ErrMin= 1.65D-06
 ErrMax= 1.65D-06  0.00D+00 EMaxC= 1.00D-01 BMatC= 1.13D-10 BMatP= 2.68D-08
 IDIUse=1 WtCom= 1.00D+00 WtEn= 0.00D+00
 Coeff-Com:  0.762D+00-0.162D+01 0.186D+01
 Coeff:      0.762D+00-0.162D+01 0.186D+01
 Gap=     0.535 Goal=   None    Shift=    0.000
 Gap=     0.404 Goal=   None    Shift=    0.000
 RMSDP=2.87D-06 MaxDP=1.13D-05 DE=-4.18D-08 OVMax= 1.13D-05

 Cycle   4  Pass 1  IDiag  3:
 E= 0.561386920550913E-01 Delta-E=       -0.000000000137 Rises=F Damp=F
 DIIS: error= 1.73D-07 at cycle   4 NSaved=   4.
 NSaved= 4 IEnMin= 4 EnMin= 0.561386920550913E-01 IErMin= 4 ErrMin= 1.73D-07
 ErrMax= 1.73D-07  0.00D+00 EMaxC= 1.00D-01 BMatC= 1.26D-12 BMatP= 1.13D-10
 IDIUse=1 WtCom= 1.00D+00 WtEn= 0.00D+00
 Coeff-Com: -0.194D+00 0.409D+00-0.527D+00 0.131D+01
 Coeff:     -0.194D+00 0.409D+00-0.527D+00 0.131D+01
 Gap=     0.535 Goal=   None    Shift=    0.000
 Gap=     0.404 Goal=   None    Shift=    0.000
 RMSDP=3.35D-07 MaxDP=1.17D-06 DE=-1.37D-10 OVMax= 1.42D-06

 Cycle   5  Pass 1  IDiag  3:
 E= 0.561386920535547E-01 Delta-E=       -0.000000000002 Rises=F Damp=F
 DIIS: error= 3.12D-08 at cycle   5 NSaved=   5.
 NSaved= 5 IEnMin= 5 EnMin= 0.561386920535547E-01 IErMin= 5 ErrMin= 3.12D-08
 ErrMax= 3.12D-08  0.00D+00 EMaxC= 1.00D-01 BMatC= 3.86D-14 BMatP= 1.26D-12
 IDIUse=1 WtCom= 1.00D+00 WtEn= 0.00D+00
 Coeff-Com:  0.139D+00-0.293D+00 0.381D+00-0.997D+00 0.177D+01
 Coeff:      0.139D+00-0.293D+00 0.381D+00-0.997D+00 0.177D+01
 Gap=     0.535 Goal=   None    Shift=    0.000
 Gap=     0.404 Goal=   None    Shift=    0.000
 RMSDP=6.48D-08 MaxDP=2.52D-07 DE=-1.54D-12 OVMax= 2.61D-07

 Cycle   6  Pass 1  IDiag  3:
 E= 0.561386920534765E-01 Delta-E=       -0.000000000000 Rises=F Damp=F
 DIIS: error= 1.20D-08 at cycle   6 NSaved=   6.
 NSaved= 6 IEnMin= 6 EnMin= 0.561386920534765E-01 IErMin= 6 ErrMin= 1.20D-08
 ErrMax= 1.20D-08  0.00D+00 EMaxC= 1.00D-01 BMatC= 7.11D-15 BMatP= 3.86D-14
 IDIUse=1 WtCom= 1.00D+00 WtEn= 0.00D+00
 Coeff-Com: -0.192D+00 0.405D+00-0.528D+00 0.140D+01-0.289D+01 0.281D+01
 Coeff:     -0.192D+00 0.405D+00-0.528D+00 0.140D+01-0.289D+01 0.281D+01
 Gap=     0.535 Goal=   None    Shift=    0.000
 Gap=     0.404 Goal=   None    Shift=    0.000
 RMSDP=5.99D-08 MaxDP=2.21D-07 DE=-7.82D-14 OVMax= 2.50D-07

 Cycle   7  Pass 1  IDiag  3:
 E= 0.561386920534588E-01 Delta-E=       -0.000000000000 Rises=F Damp=F
 DIIS: error= 1.16D-09 at cycle   7 NSaved=   7.
 NSaved= 7 IEnMin= 7 EnMin= 0.561386920534588E-01 IErMin= 7 ErrMin= 1.16D-09
 ErrMax= 1.16D-09  0.00D+00 EMaxC= 1.00D-01 BMatC= 4.16D-17 BMatP= 7.11D-15
 IDIUse=1 WtCom= 1.00D+00 WtEn= 0.00D+00
 Coeff-Com:  0.603D-01-0.127D+00 0.167D+00-0.451D+00 0.952D+00-0.951D+00
 Coeff-Com:  0.135D+01
 Coeff:      0.603D-01-0.127D+00 0.167D+00-0.451D+00 0.952D+00-0.951D+00
 Coeff:      0.135D+01
 Gap=     0.535 Goal=   None    Shift=    0.000
 Gap=     0.404 Goal=   None    Shift=    0.000
 RMSDP=2.17D-09 MaxDP=9.29D-09 DE=-1.78D-14 OVMax= 1.08D-08

 Cycle   8  Pass 2  IDiag  1:
 SCF Done:  E(UPM3) =  0.561386920535E-01 A.U. after    8 cycles
            NFock=  7  Conv=0.22D-08     -V/T= 1.0052
 <Sx>= 0.0000 <Sy>= 0.0000 <Sz>= 0.5000 <S**2>= 0.7516 S= 0.5008
 <L.S>= 0.000000000000E+00
 KE=-1.078908414730D+01 PE=-7.541059280477D+00 EE= 7.017032921754D+00
 Annihilation of the first spin contaminant:
 S**2 before annihilation     0.7516,   after     0.7500
 Leave Link  502 at Wed Oct 21 14:23:52 2020, MaxMem=  2684354560 cpu:               7.6 elap:               1.3
 (Enter /udrive/faculty/rpeverati/g16/g16/l508.exe)
 QCSCF skips out because SCF is already converged.
 Leave Link  508 at Wed Oct 21 14:23:53 2020, MaxMem=  2684354560 cpu:               0.6 elap:               0.7
 (Enter /udrive/faculty/rpeverati/g16/g16/l701.exe)
 ... and contract with generalized density number  0.
 Compute integral first derivatives.
 Leave Link  701 at Wed Oct 21 14:23:54 2020, MaxMem=  2684354560 cpu:               3.9 elap:               1.0
 (Enter /udrive/faculty/rpeverati/g16/g16/l702.exe)
 L702 exits ... SP integral derivatives will be done elsewhere.
 Leave Link  702 at Wed Oct 21 14:23:55 2020, MaxMem=  2684354560 cpu:               1.8 elap:               0.8
 (Enter /udrive/faculty/rpeverati/g16/g16/l703.exe)
 Integral derivatives from FoFJK, PRISM(SPDF).
 Compute integral first derivatives, UseDBF=F ICtDFT=           0.
 Calling FoFJK, ICntrl=      2127 FMM=F ISym2X=1 I1Cent= 0 IOpClX= 1 NMat=1 NMatS=1 NMatT=0.
 FoFJK:  IHMeth= 9 ICntrl=    2127 DoSepK=F KAlg= 0 I1Cent=           0 FoldK=F
 IRaf=         0 NMat=       1 IRICut=       1 DoRegI=T DoRafI=F ISym2E= 1 IDoP0=3 IntGTp=3.
 FoFCou: FMM=F IPFlag=           0 FMFlag=      100000 FMFlg1=         800
         NFxFlg=           0 DoJE=F BraDBF=F KetDBF=F FulRan=T
         wScrn=  0.000000 ICntrl=      2127 IOpCl=  1 I1Cent=           0 NGrid=           0
         NMat0=    1 NMatS0=      1 NMatT0=    0 NMatD0=    1 NMtDS0=    0 NMtDT0=    0
 Petite list used in FoFCou.
 Leave Link  703 at Wed Oct 21 14:23:57 2020, MaxMem=  2684354560 cpu:               3.5 elap:               1.0
 (Enter /udrive/faculty/rpeverati/g16/g16/l716.exe)
 Dipole        =-9.61616136D-16-6.66133815D-16-6.83681418D-01
 ***** Axes restored to original set *****
 -------------------------------------------------------------------
 Center     Atomic                   Forces (Hartrees/Bohr)
 Number     Number              X              Y              Z
 -------------------------------------------------------------------
      1        7           0.000000000    0.000000000   -0.000034391
      2        1          -0.000000000   -0.000107803    0.000017196
      3        1          -0.000000000    0.000107803    0.000017196
 -------------------------------------------------------------------
 Cartesian Forces:  Max     0.000107803 RMS     0.000052723
 Leave Link  716 at Wed Oct 21 14:23:58 2020, MaxMem=  2684354560 cpu:               2.0 elap:               0.8
 (Enter /udrive/faculty/rpeverati/g16/g16/l103.exe)

 GradGradGradGradGradGradGradGradGradGradGradGradGradGradGradGradGradGrad
 Berny optimization.
 Optmz: redundant internal coordinate code flag= 1
 Using GEDIIS/GDIIS optimizer.
 Red2BG:  D1=  7.76D-01 OD1=  1.37D-03 B2RMS=  0.00D+00 IAprox=0
 FormGI is forming the generalized inverse of G from B-inverse, IUseBI=4.
 Internal  Forces:  Max     0.000098495 RMS     0.000095054
 Search for a local minimum.
 Step number   4 out of a maximum of  100
 All quantities printed in internal units (Hartrees-Bohrs-Radians)
 RMS Force = .95054D-04 SwitMx=.10000D-02 MixMth= 2
 Mixed Optimization -- En-DIIS/RFO-DIIS
 Swapping is turned off.
 Update second derivatives using D2CorX and points    1    2    3    4
 DE= -6.39D-07 DEPred=-8.32D-07 R= 7.68D-01
 Trust test= 7.68D-01 RLast= 3.00D-03 DXMaxT set to 4.01D-01
 The second derivative matrix:
                          R1        R2        A1
           R1           0.45487
           R2           0.01788   0.45487
           A1           0.03811   0.03811   0.16254
 ITU=  0  1  1  0
 Eigenvectors of the second derivative matrix:
                           1         2         3
     Eigenvalues --     0.15344   0.43699   0.48185
   1         R1        -0.11769   0.70711  -0.69724
   2         R2        -0.11769  -0.70711  -0.69724
   3         A1         0.98605   0.00000  -0.16644
 DoSqrt=T IScMMF=    -3 MM Scaling Factor =       0.00000
 En-DIIS/RFO-DIIS/Sim-DIIS IScMMF=       -3 using points:     4    3
 Iter=   1 RLamda= 0.00000000D+00 Sum=-7.40847973D-08.
 Iter=   2 RLamda=-7.40847973D-08 Sum=-7.40847773D-08.
 RFO step:  Lambda=-7.40847973D-08.
 NNeg= 0 NGDIIS= 2 SimSw=  2.50D-01 Rises=F DC= -6.39D-07 SmlDif=  1.00D-05
 NRisDI= 0 DoIntr=F SqrtH=F CThrHd= 10.0 CDAdj=  3.0
 RMS Error=  0.2999774818D-03 NUsed= 2 OKEnD=F EnDIS=F
 Total RFO-DIIS matrix:
                 1             2             3 
      1   0.000000D+00 -0.100000D+01 -0.100000D+01
      2  -0.100000D+01  0.269959D-06 -0.127100D-05
      3  -0.100000D+01 -0.127100D-05  0.621364D-05
 InvSVX:  RCond= 1.02D-05 Info=           0 Equed=N FErr=  1.04D-15 BErr=  0.00D+00
 DidBck=F Rises=F RFO-DIIS coefs:    0.82927    0.17073
 Iteration  1 RMS(Cart)=  0.00033612 RMS(Int)=  0.00000005
 Iteration  2 RMS(Cart)=  0.00000003 RMS(Int)=  0.00000000
 ITry= 1 IFail=0 DXMaxC= 3.84D-04 DCOld= 1.00D+10 DXMaxT= 4.01D-01 DXLimC= 3.00D+00 Rises=F
 ClnCor:  largest displacement from symmetrization is 7.45D-16 for atom     3.
 Variable       Old X    -DE/DX   Delta X   Delta X   Delta X     New X
                                 (Linear)    (Quad)   (Total)
    R1        1.86445  -0.00010  -0.00012  -0.00006  -0.00017   1.86428
    R2        1.86445  -0.00010  -0.00012  -0.00006  -0.00017   1.86428
    A1        1.93355  -0.00009  -0.00049   0.00003  -0.00046   1.93309
         Item               Value     Threshold  Converged?
 Maximum Force            0.000098     0.000450     YES
 RMS     Force            0.000095     0.000300     YES
 Maximum Displacement     0.000384     0.001800     YES
 RMS     Displacement     0.000336     0.001200     YES
 Predicted change in Energy=-3.704240D-08
 Optimization completed.
    -- Stationary point found.
                           ----------------------------
                           !   Optimized Parameters   !
                           ! (Angstroms and Degrees)  !
 --------------------------                            --------------------------
 ! Name  Definition              Value          Derivative Info.                !
 --------------------------------------------------------------------------------
 ! R1    R(1,2)                  0.9866         -DE/DX =   -0.0001              !
 ! R2    R(1,3)                  0.9866         -DE/DX =   -0.0001              !
 ! A1    A(2,1,3)              110.7842         -DE/DX =   -0.0001              !
 --------------------------------------------------------------------------------
 Lowest energy point so far.  Saving SCF results.
 Largest change from initial coordinates is atom    2       0.060 Angstoms.
 GradGradGradGradGradGradGradGradGradGradGradGradGradGradGradGradGradGrad

 Leave Link  103 at Wed Oct 21 14:23:59 2020, MaxMem=  2684354560 cpu:               4.6 elap:               1.0
 (Enter /udrive/faculty/rpeverati/g16/g16/l202.exe)
                          Input orientation:                          
 ---------------------------------------------------------------------
 Center     Atomic      Atomic             Coordinates (Angstroms)
 Number     Number       Type             X           Y           Z
 ---------------------------------------------------------------------
      1          7           0        0.000000   -0.000000    0.090742
      2          1           0        0.000000    0.812049   -0.469618
      3          1           0       -0.000000   -0.812049   -0.469618
 ---------------------------------------------------------------------
                    Distance matrix (angstroms):
                    1          2          3
     1  N    0.000000
     2  H    0.986624   0.000000
     3  H    0.986624   1.624097   0.000000
 Stoichiometry    H2N(2)
 Framework group  C2V[C2(N),SGV(H2)]
 Deg. of freedom     2
 Full point group                 C2V     NOp   4
 RotChk:  IX=0 Diff= 6.99D-16
 Largest Abelian subgroup         C2V     NOp   4
 Largest concise Abelian subgroup C2      NOp   2
                         Standard orientation:                         
 ---------------------------------------------------------------------
 Center     Atomic      Atomic             Coordinates (Angstroms)
 Number     Number       Type             X           Y           Z
 ---------------------------------------------------------------------
      1          7           0        0.000000   -0.000000    0.124524
      2          1           0        0.000000    0.812049   -0.435835
      3          1           0       -0.000000   -0.812049   -0.435835
 ---------------------------------------------------------------------
 Rotational constants (GHZ):         913.4240817         380.2226682         268.4693805
 Leave Link  202 at Wed Oct 21 14:24:00 2020, MaxMem=  2684354560 cpu:               2.4 elap:               0.9
 (Enter /udrive/faculty/rpeverati/g16/g16/l601.exe)
 Copying SCF densities to generalized density rwf, IOpCl= 1 IROHF=0.

 **********************************************************************

            Population analysis using the SCF density.

 **********************************************************************

 Orbital symmetries:
 Alpha Orbitals:
       Occupied  (A1) (B2) (B1) (A1)
       Virtual   (A1) (B2)
 Beta  Orbitals:
       Occupied  (A1) (B2) (A1)
       Virtual   (B1) (A1) (B2)
 The electronic state is 2-B1.
 Alpha  occ. eigenvalues --   -0.97828  -0.58211  -0.41442  -0.40806
 Alpha virt. eigenvalues --    0.12660   0.18165
  Beta  occ. eigenvalues --   -0.95375  -0.57437  -0.38510
  Beta virt. eigenvalues --    0.01892   0.13759   0.18964
          Condensed to atoms (all electrons):
               1          2          3
     1  N    5.069130   0.000000   0.000000
     2  H    0.000000   0.965435   0.000000
     3  H    0.000000   0.000000   0.965435
          Atomic-Atomic Spin Densities.
               1          2          3
     1  N    1.054919   0.000000   0.000000
     2  H    0.000000  -0.027460   0.000000
     3  H    0.000000   0.000000  -0.027460
 Mulliken charges and spin densities:
               1          2
     1  N   -0.069130   1.054919
     2  H    0.034565  -0.027460
     3  H    0.034565  -0.027460
 Sum of Mulliken charges =  -0.00000   1.00000
 Mulliken charges and spin densities with hydrogens summed into heavy atoms:
               1          2
     1  N   -0.000000   1.000000
 Charge=             -0.0000 electrons
 Dipole moment (field-independent basis, Debye):
    X=             -0.0000    Y=             -0.0000    Z=             -1.7377  Tot=              1.7377
 N-N= 1.136924919808D+01 E-N=-7.541059281070D+00  KE=-1.078908414730D+01
 Leave Link  601 at Wed Oct 21 14:24:02 2020, MaxMem=  2684354560 cpu:               4.3 elap:               1.0
 (Enter /udrive/faculty/rpeverati/g16/g16/l9999.exe)

 Test job not archived.
 1\1\GINC-NODE38\FOpt\UPM3\ZDO\H2N1(2)\RPEVERATI\21-Oct-2020\0\\#P Opt(
 MaxCyc=150) PM3 5D 7F Integral=UltraFineGrid SCF=(NoSymm,XQC,MaxCyc=12
 0) IOp(1/33=1)\\TS search on BH76.\\0,2\N,0.,0.,0.090742177\H,0.,0.812
 048611,-0.4696177502\H,0.,-0.812048611,-0.4696177502\\Version=ES64L-G1
 6RevA.03\State=2-B1\HF=0.0561387\S2=0.751644\S2-1=0.\S2A=0.750001\RMSD
 =2.166e-09\RMSF=5.272e-05\Dipole=0.,0.,-0.6836814\PG=C02V [C2(N1),SGV(
 H2)]\\@


 IF THE FACTS DO NOT CONFORM TO THE THEORY, THEY MUST BE DISPOSED OF.
 Job cpu time:       0 days  0 hours  3 minutes 11.6 seconds.
 Elapsed time:       0 days  0 hours  0 minutes 51.0 seconds.
 File lengths (MBytes):  RWF=      5 Int=      0 D2E=      0 Chk=      2 Scr=      1
 Normal termination of Gaussian 16 at Wed Oct 21 14:24:03 2020.
