 Entering Gaussian System, Link 0=g16
 Input=MN_96_RKT22_BH76_PM3_SE.in
 Output=MN_96_RKT22_BH76_PM3_SE.log
 Initial command:
 /udrive/faculty/rpeverati/g16/g16/l1.exe "/udrive/scratch-directories/gaussian09/rpeverati/Gau-20577.inp" -scrdir="/udrive/scratch-directories/gaussian09/rpeverati/"
 Entering Link 1 = /udrive/faculty/rpeverati/g16/g16/l1.exe PID=     20589.
  
 Copyright (c) 1988,1990,1992,1993,1995,1998,2003,2009,2016,
            Gaussian, Inc.  All Rights Reserved.
  
 This is part of the Gaussian(R) 16 program.  It is based on
 the Gaussian(R) 09 system (copyright 2009, Gaussian, Inc.),
 the Gaussian(R) 03 system (copyright 2003, Gaussian, Inc.),
 the Gaussian(R) 98 system (copyright 1998, Gaussian, Inc.),
 the Gaussian(R) 94 system (copyright 1995, Gaussian, Inc.),
 the Gaussian 92(TM) system (copyright 1992, Gaussian, Inc.),
 the Gaussian 90(TM) system (copyright 1990, Gaussian, Inc.),
 the Gaussian 88(TM) system (copyright 1988, Gaussian, Inc.),
 the Gaussian 86(TM) system (copyright 1986, Carnegie Mellon
 University), and the Gaussian 82(TM) system (copyright 1983,
 Carnegie Mellon University). Gaussian is a federally registered
 trademark of Gaussian, Inc.
  
 This software contains proprietary and confidential information,
 including trade secrets, belonging to Gaussian, Inc.
  
 This software is provided under written license and may be
 used, copied, transmitted, or stored only in accord with that
 written license.
  
 The following legend is applicable only to US Government
 contracts under FAR:
  
                    RESTRICTED RIGHTS LEGEND
  
 Use, reproduction and disclosure by the US Government is
 subject to restrictions as set forth in subparagraphs (a)
 and (c) of the Commercial Computer Software - Restricted
 Rights clause in FAR 52.227-19.
  
 Gaussian, Inc.
 340 Quinnipiac St., Bldg. 40, Wallingford CT 06492
  
  
 ---------------------------------------------------------------
 Warning -- This program may not be used in any manner that
 competes with the business of Gaussian, Inc. or will provide
 assistance to any competitor of Gaussian, Inc.  The licensee
 of this program is prohibited from giving any competitor of
 Gaussian, Inc. access to this program.  By using this program,
 the user acknowledges that Gaussian, Inc. is engaged in the
 business of creating and licensing software in the field of
 computational chemistry and represents and warrants to the
 licensee that it is not a competitor of Gaussian, Inc. and that
 it will not use this program in any manner prohibited above.
 ---------------------------------------------------------------
  

 Cite this work as:
 Gaussian 16, Revision A.03,
 M. J. Frisch, G. W. Trucks, H. B. Schlegel, G. E. Scuseria, 
 M. A. Robb, J. R. Cheeseman, G. Scalmani, V. Barone, 
 G. A. Petersson, H. Nakatsuji, X. Li, M. Caricato, A. V. Marenich, 
 J. Bloino, B. G. Janesko, R. Gomperts, B. Mennucci, H. P. Hratchian, 
 J. V. Ortiz, A. F. Izmaylov, J. L. Sonnenberg, D. Williams-Young, 
 F. Ding, F. Lipparini, F. Egidi, J. Goings, B. Peng, A. Petrone, 
 T. Henderson, D. Ranasinghe, V. G. Zakrzewski, J. Gao, N. Rega, 
 G. Zheng, W. Liang, M. Hada, M. Ehara, K. Toyota, R. Fukuda, 
 J. Hasegawa, M. Ishida, T. Nakajima, Y. Honda, O. Kitao, H. Nakai, 
 T. Vreven, K. Throssell, J. A. Montgomery, Jr., J. E. Peralta, 
 F. Ogliaro, M. J. Bearpark, J. J. Heyd, E. N. Brothers, K. N. Kudin, 
 V. N. Staroverov, T. A. Keith, R. Kobayashi, J. Normand, 
 K. Raghavachari, A. P. Rendell, J. C. Burant, S. S. Iyengar, 
 J. Tomasi, M. Cossi, J. M. Millam, M. Klene, C. Adamo, R. Cammi, 
 J. W. Ochterski, R. L. Martin, K. Morokuma, O. Farkas, 
 J. B. Foresman, and D. J. Fox, Gaussian, Inc., Wallingford CT, 2016.
 
 ******************************************
 Gaussian 16:  ES64L-G16RevA.03 25-Dec-2016
                21-Oct-2020 
 ******************************************
 %NoSave
 %nproc=12
 Will use up to   12 processors via shared memory.
 %mem=20GB
 %chk=MN_96_RKT22_BH76_PM3_SE
 ----------------------------------------------------------------------
 #P Opt(TS,MaxCyc=50,NoEigenTest,MaxStep=10,AddRedundant) PM3 5D 7F Int
 egral=UltraFineGrid SCF=(NoSymm,XQC,MaxCyc=120) IOp(1/33=1)
 ----------------------------------------------------------------------
 1/5=1,6=50,8=10,11=1,18=120,26=1,33=1,38=1/1,3;
 2/9=110,12=2,17=6,18=5,40=1/2;
 3/5=2,8=11,25=1,41=800000,71=1,75=-5/1,2,3;
 4/9=2,35=1/1;
 5/5=2,7=120,8=3,13=1,35=1,38=5/2,8;
 6/7=2,8=2,9=2,10=2,28=1/1;
 7//1,2,3,16;
 1/5=1,6=50,8=10,11=1,18=20,26=1,33=1/3(2);
 2/9=110/2;
 99//99;
 2/9=110/2;
 3/5=2,8=11,25=1,41=800000,71=1,75=-5,135=20/1,2,3;
 4/5=5,9=2,16=3,35=1/1;
 5/5=2,7=120,8=3,13=1,35=1,38=5/2,8;
 7//1,2,3,16;
 1/5=1,6=50,8=10,11=1,18=20,26=1,33=1/3(-5);
 2/9=110/2;
 6/7=2,8=2,9=2,10=2,19=2,28=1/1;
 99/9=1/99;
 Leave Link    1 at Wed Oct 21 14:24:48 2020, MaxMem=  2684354560 cpu:               9.8 elap:               1.3
 (Enter /udrive/faculty/rpeverati/g16/g16/l101.exe)
 ONIOM data not found on unit 2.
 ------------------
 TS search on BH76.
 ------------------
 TstMul:  ICh=     0
 TstMul:  Mul=     1
 TstMul:  ICh=     0
 TstMul:  Mul=     1
 Symbolic Z-matrix:
 Charge =  0 Multiplicity = 1
 C                    -1.29962  -0.90486  -0.02015 
 C                    -1.20595   0.50582  -0.01341 
 C                     0.        1.18336   0.1533 
 C                     1.20595   0.50581  -0.01342 
 C                     1.29963  -0.90485  -0.02015 
 H                     2.1688   -1.32755  -0.5157 
 H                     1.03204  -1.45439   0.87317 
 H                     2.03713   1.08559  -0.3985 
 H                     0.        2.26292   0.08591 
 H                    -2.03713   1.08559  -0.39848 
 H                    -2.1688   -1.32754  -0.51572 
 H                    -0.00001  -1.18194  -0.52081 
 H                    -1.03206  -1.4544    0.87316 
 
 RdStrC is calling ZToCFu for IStruc=1 NZ=    13.
 PrtBox:  NBox=     2 Levels=  1 BoxLen=    8.00 SMaxX=        8.20
          Shift=            4.098430            2.748410            0.984185
 Box      1 Number                   0 centers from      1 to     12:
 Box      2 Number                   4 centers from     13 to     13:
 After GenITR:
 ITRead=  0  0  0  0  0  0  0  0  0  0  0  0  0
 MicOpt= -1 -1 -1 -1 -1 -1 -1 -1 -1 -1 -1 -1 -1
 Add virtual bond connecting atoms H12        and C1         Dist= 2.68D+00.
 Add virtual bond connecting atoms H12        and C5         Dist= 2.68D+00.
 The following ModRedundant input section has been read:
 
 ITRead=  0  0  0  0  0  0  0  0  0  0  0  0  0
 MicOpt= -1 -1 -1 -1 -1 -1 -1 -1 -1 -1 -1 -1 -1
 NAtoms=     13 NQM=       13 NQMF=       0 NMMI=      0 NMMIF=      0
                NMic=       0 NMicF=      0.
                    Isotopes and Nuclear Properties:
 (Nuclear quadrupole moments (NQMom) in fm**2, nuclear magnetic moments (NMagM)
  in nuclear magnetons)

  Atom         1           2           3           4           5           6           7           8           9          10
 IAtWgt=          12          12          12          12          12           1           1           1           1           1
 AtmWgt=  12.0000000  12.0000000  12.0000000  12.0000000  12.0000000   1.0078250   1.0078250   1.0078250   1.0078250   1.0078250
 NucSpn=           0           0           0           0           0           1           1           1           1           1
 AtZEff=   0.0000000   0.0000000   0.0000000   0.0000000   0.0000000   0.0000000   0.0000000   0.0000000   0.0000000   0.0000000
 NQMom=    0.0000000   0.0000000   0.0000000   0.0000000   0.0000000   0.0000000   0.0000000   0.0000000   0.0000000   0.0000000
 NMagM=    0.0000000   0.0000000   0.0000000   0.0000000   0.0000000   2.7928460   2.7928460   2.7928460   2.7928460   2.7928460
 AtZNuc=   6.0000000   6.0000000   6.0000000   6.0000000   6.0000000   1.0000000   1.0000000   1.0000000   1.0000000   1.0000000

  Atom        11          12          13
 IAtWgt=           1           1           1
 AtmWgt=   1.0078250   1.0078250   1.0078250
 NucSpn=           1           1           1
 AtZEff=   0.0000000   0.0000000   0.0000000
 NQMom=    0.0000000   0.0000000   0.0000000
 NMagM=    2.7928460   2.7928460   2.7928460
 AtZNuc=   1.0000000   1.0000000   1.0000000
 No MM parameters found.
 Leave Link  101 at Wed Oct 21 14:24:49 2020, MaxMem=  2684354560 cpu:               5.1 elap:               0.8
 (Enter /udrive/faculty/rpeverati/g16/g16/l103.exe)

 GradGradGradGradGradGradGradGradGradGradGradGradGradGradGradGradGradGrad
 Berny optimization.
 Optmz: redundant internal coordinate code flag= 1
 Initialization pass.
                           ----------------------------
                           !    Initial Parameters    !
                           ! (Angstroms and Degrees)  !
 --------------------------                            --------------------------
 ! Name  Definition              Value          Derivative Info.                !
 --------------------------------------------------------------------------------
 ! R1    R(1,2)                  1.4138         estimate D2E/DX2                !
 ! R2    R(1,11)                 1.0861         estimate D2E/DX2                !
 ! R3    R(1,12)                 1.42           estimate D2E/DX2                !
 ! R4    R(1,13)                 1.0824         estimate D2E/DX2                !
 ! R5    R(2,3)                  1.3933         estimate D2E/DX2                !
 ! R6    R(2,10)                 1.0841         estimate D2E/DX2                !
 ! R7    R(3,4)                  1.3933         estimate D2E/DX2                !
 ! R8    R(3,9)                  1.0817         estimate D2E/DX2                !
 ! R9    R(4,5)                  1.4138         estimate D2E/DX2                !
 ! R10   R(4,8)                  1.0841         estimate D2E/DX2                !
 ! R11   R(5,6)                  1.0861         estimate D2E/DX2                !
 ! R12   R(5,7)                  1.0824         estimate D2E/DX2                !
 ! R13   R(5,12)                 1.42           estimate D2E/DX2                !
 ! A1    A(2,1,11)             116.3274         estimate D2E/DX2                !
 ! A2    A(2,1,12)              97.8015         estimate D2E/DX2                !
 ! A3    A(2,1,13)             119.0957         estimate D2E/DX2                !
 ! A4    A(11,1,12)            119.7086         estimate D2E/DX2                !
 ! A5    A(11,1,13)            112.1348         estimate D2E/DX2                !
 ! A6    A(12,1,13)             88.0329         estimate D2E/DX2                !
 ! A7    A(1,2,3)              122.8982         estimate D2E/DX2                !
 ! A8    A(1,2,10)             118.7584         estimate D2E/DX2                !
 ! A9    A(3,2,10)             116.4911         estimate D2E/DX2                !
 ! A10   A(2,3,4)              119.893          estimate D2E/DX2                !
 ! A11   A(2,3,9)              118.5485         estimate D2E/DX2                !
 ! A12   A(4,3,9)              118.5485         estimate D2E/DX2                !
 ! A13   A(3,4,5)              122.8985         estimate D2E/DX2                !
 ! A14   A(3,4,8)              116.4909         estimate D2E/DX2                !
 ! A15   A(5,4,8)              118.7584         estimate D2E/DX2                !
 ! A16   A(4,5,6)              116.3283         estimate D2E/DX2                !
 ! A17   A(4,5,7)              119.0957         estimate D2E/DX2                !
 ! A18   A(4,5,12)              97.801          estimate D2E/DX2                !
 ! A19   A(6,5,7)              112.1349         estimate D2E/DX2                !
 ! A20   A(6,5,12)             119.7085         estimate D2E/DX2                !
 ! A21   A(7,5,12)              88.032          estimate D2E/DX2                !
 ! A22   A(1,12,5)             132.4725         estimate D2E/DX2                !
 ! D1    D(11,1,2,3)          -157.5701         estimate D2E/DX2                !
 ! D2    D(11,1,2,10)            6.3785         estimate D2E/DX2                !
 ! D3    D(12,1,2,3)           -28.8215         estimate D2E/DX2                !
 ! D4    D(12,1,2,10)          135.1272         estimate D2E/DX2                !
 ! D5    D(13,1,2,3)            63.2758         estimate D2E/DX2                !
 ! D6    D(13,1,2,10)         -132.7755         estimate D2E/DX2                !
 ! D7    D(2,1,12,5)            61.5015         estimate D2E/DX2                !
 ! D8    D(11,1,12,5)         -172.0882         estimate D2E/DX2                !
 ! D9    D(13,1,12,5)          -57.6025         estimate D2E/DX2                !
 ! D10   D(1,2,3,4)             16.1664         estimate D2E/DX2                !
 ! D11   D(1,2,3,9)            176.2677         estimate D2E/DX2                !
 ! D12   D(10,2,3,4)          -148.1199         estimate D2E/DX2                !
 ! D13   D(10,2,3,9)            11.9814         estimate D2E/DX2                !
 ! D14   D(2,3,4,5)            -16.1672         estimate D2E/DX2                !
 ! D15   D(2,3,4,8)            148.1195         estimate D2E/DX2                !
 ! D16   D(9,3,4,5)           -176.2685         estimate D2E/DX2                !
 ! D17   D(9,3,4,8)            -11.9818         estimate D2E/DX2                !
 ! D18   D(3,4,5,6)            157.571          estimate D2E/DX2                !
 ! D19   D(3,4,5,7)            -63.2736         estimate D2E/DX2                !
 ! D20   D(3,4,5,12)            28.8223         estimate D2E/DX2                !
 ! D21   D(8,4,5,6)             -6.378          estimate D2E/DX2                !
 ! D22   D(8,4,5,7)            132.7774         estimate D2E/DX2                !
 ! D23   D(8,4,5,12)          -135.1267         estimate D2E/DX2                !
 ! D24   D(4,5,12,1)           -61.502          estimate D2E/DX2                !
 ! D25   D(6,5,12,1)           172.087          estimate D2E/DX2                !
 ! D26   D(7,5,12,1)            57.6018         estimate D2E/DX2                !
 --------------------------------------------------------------------------------
 Maximum allowed force set to 1.00D+20.
 Trust Radius=1.00D-01 FncErr=1.00D-07 GrdErr=1.00D-07 EigMax=2.50D+02 EigMin=1.00D-04
 Number of steps in this run=     50 maximum allowed number of steps=    100.
 Search for a saddle point of order  1.
 GradGradGradGradGradGradGradGradGradGradGradGradGradGradGradGradGradGrad

 Leave Link  103 at Wed Oct 21 14:24:51 2020, MaxMem=  2684354560 cpu:               2.8 elap:               1.4
 (Enter /udrive/faculty/rpeverati/g16/g16/l202.exe)
                          Input orientation:                          
 ---------------------------------------------------------------------
 Center     Atomic      Atomic             Coordinates (Angstroms)
 Number     Number       Type             X           Y           Z
 ---------------------------------------------------------------------
      1          6           0       -1.299622   -0.904856   -0.020155
      2          6           0       -1.205947    0.505817   -0.013414
      3          6           0        0.000000    1.183362    0.153301
      4          6           0        1.205947    0.505814   -0.013422
      5          6           0        1.299627   -0.904851   -0.020147
      6          1           0        2.168796   -1.327552   -0.515697
      7          1           0        1.032044   -1.454385    0.873169
      8          1           0        2.037131    1.085586   -0.398504
      9          1           0        0.000001    2.262915    0.085905
     10          1           0       -2.037131    1.085586   -0.398481
     11          1           0       -2.168796   -1.327542   -0.515716
     12          1           0       -0.000011   -1.181944   -0.520808
     13          1           0       -1.032060   -1.454396    0.873158
 ---------------------------------------------------------------------
                    Distance matrix (angstroms):
                    1          2          3          4          5
     1  C    0.000000
     2  C    1.413796   0.000000
     3  C    2.465717   1.393259   0.000000
     4  C    2.875398   2.411894   1.393261   0.000000
     5  C    2.599250   2.875402   2.465714   1.413788   0.000000
     6  H    3.529045   3.873296   3.384660   2.130866   1.086140
     7  H    2.556692   3.104356   2.922505   2.158395   1.082406
     8  H    3.903707   3.316924   2.112807   1.084108   2.156132
     9  H    3.425645   2.133441   1.081655   2.133442   3.425641
    10  H    2.156133   1.084101   2.112801   3.316921   3.903708
    11  H    1.086143   2.130866   3.384656   3.873291   3.529053
    12  H    1.420007   2.135478   2.459491   2.135486   1.420036
    13  H    1.082401   2.158398   2.922517   3.104371   2.556709
                    6          7          8          9         10
     6  H    0.000000
     7  H    1.799233   0.000000
     8  H    2.419567   3.013106   0.000000
     9  H    4.237576   3.937413   2.402219   0.000000
    10  H    4.850443   4.181911   4.074262   2.402216   0.000000
    11  H    4.337592   3.491484   4.850438   4.237571   2.419559
    12  H    2.173695   1.755715   3.050672   3.497879   3.050658
    13  H    3.491487   2.064103   4.181933   3.937425   3.013095
                   11         12         13
    11  H    0.000000
    12  H    2.173672   0.000000
    13  H    1.799231   1.755704   0.000000
 Stoichiometry    C5H8
 Framework group  C1[X(C5H8)]
 Deg. of freedom    33
 Full point group                 C1      NOp   1
 Largest Abelian subgroup         C1      NOp   1
 Largest concise Abelian subgroup C1      NOp   1
                         Standard orientation:                         
 ---------------------------------------------------------------------
 Center     Atomic      Atomic             Coordinates (Angstroms)
 Number     Number       Type             X           Y           Z
 ---------------------------------------------------------------------
      1          6           0       -1.299623   -0.904855   -0.020155
      2          6           0       -1.205947    0.505819   -0.013414
      3          6           0        0.000001    1.183362    0.153301
      4          6           0        1.205947    0.505813   -0.013422
      5          6           0        1.299627   -0.904851   -0.020147
      6          1           0        2.168795   -1.327554   -0.515697
      7          1           0        1.032042   -1.454386    0.873169
      8          1           0        2.037132    1.085585   -0.398504
      9          1           0        0.000003    2.262916    0.085905
     10          1           0       -2.037130    1.085588   -0.398481
     11          1           0       -2.168797   -1.327539   -0.515716
     12          1           0       -0.000012   -1.181943   -0.520808
     13          1           0       -1.032061   -1.454395    0.873158
 ---------------------------------------------------------------------
 Rotational constants (GHZ):           8.1193781           5.1373721           3.2660768
 Leave Link  202 at Wed Oct 21 14:24:53 2020, MaxMem=  2684354560 cpu:               2.0 elap:               1.5
 (Enter /udrive/faculty/rpeverati/g16/g16/l301.exe)
 Standard basis: VSTO-6G (5D, 7F)
 Ernie: Thresh=  0.10000D-02 Tol=  0.10000D-05 Strict=F.
  NNHCO=     0 NNPyr=     0 NCTC=     0               EPep=         0.000000000
    EC=        74.161545223  ECS=         1.703618815   EG=         0.409909142
   EHC=         0.000000000  EAt=       -24.281606843  AtH=         2.025891325
 EPDDG=         0.000000000  ECC=        76.275073180 EAtT=        26.307498167
 There are    28 symmetry adapted cartesian basis functions of A   symmetry.
 There are    28 symmetry adapted basis functions of A   symmetry.
    28 basis functions,   168 primitive gaussians,    28 cartesian basis functions
    14 alpha electrons       14 beta electrons
       nuclear repulsion energy       102.5825713473 Hartrees.
 IExCor=    0 DFT=F Ex=HF Corr=None ExCW=0 ScaHFX=  1.000000
 ScaDFX=  1.000000  1.000000  1.000000  1.000000 ScalE2=  1.000000  1.000000
 IRadAn=      5 IRanWt=     -1 IRanGd=            0 ICorTp=0 IEmpDi=  4
 Integral buffers will be    131072 words long.
 Regular integral format.
 Two-electron integral symmetry is turned off.
 Leave Link  301 at Wed Oct 21 14:24:55 2020, MaxMem=  2684354560 cpu:               2.3 elap:               1.1
 (Enter /udrive/faculty/rpeverati/g16/g16/l302.exe)
 Do NDO integrals.
 NPDir=0 NMtPBC=     1 NCelOv=     1 NCel=       1 NClECP=     1 NCelD=      1
         NCelK=      1 NCelE2=     1 NClLst=     1 CellRange=     0.0.
 One-electron integrals computed using PRISM.
 NBasis=    28 RedAO= F EigKep=  0.00D+00  NBF=    28
 NBsUse=    28 1.00D-04 EigRej=  0.00D+00 NBFU=    28
 Leave Link  302 at Wed Oct 21 14:24:57 2020, MaxMem=  2684354560 cpu:               3.9 elap:               1.5
 (Enter /udrive/faculty/rpeverati/g16/g16/l303.exe)
 DipDrv:  MaxL=1.
 Leave Link  303 at Wed Oct 21 14:24:59 2020, MaxMem=  2684354560 cpu:               3.0 elap:               1.5
 (Enter /udrive/faculty/rpeverati/g16/g16/l401.exe)
 SCF N**3 symmetry information disabled.
 Simple Huckel Guess.
 JPrj=0 DoOrth=F DoCkMO=F.
 Leave Link  401 at Wed Oct 21 14:25:01 2020, MaxMem=  2684354560 cpu:               5.2 elap:               1.5
 (Enter /udrive/faculty/rpeverati/g16/g16/l502.exe)
 Keep J ints in memory in canonical form, NReq=861091.
 FoFCou: FMM=F IPFlag=           0 FMFlag=           0 FMFlg1=           0
         NFxFlg=           0 DoJE=F BraDBF=F KetDBF=F FulRan=T
         wScrn=  0.000000 ICntrl=       600 IOpCl=  2 I1Cent=           0 NGrid=           0
         NMat0=    1 NMatS0=     58 NMatT0=    0 NMatD0=    1 NMtDS0=    0 NMtDT0=    0
 Symmetry not used in FoFCou.
 Two-electron integral symmetry not used.
 Closed shell SCF:
 Using DIIS extrapolation, IDIIS=  1040.
 Overlap will be assumed to be unity.
 NGot=  2684354560 LenX=  2684291354 LenY=  2684290129
 Requested convergence on RMS density matrix=1.00D-08 within 120 cycles.
 Requested convergence on MAX density matrix=1.00D-06.
 Requested convergence on             energy=1.00D-06.
 No special actions if energy rises.

 Cycle   1  Pass 1  IDiag  1:
 E= 0.213009360566389    
 DIIS: error= 2.82D-02 at cycle   1 NSaved=   1.
 NSaved= 1 IEnMin= 1 EnMin= 0.213009360566389     IErMin= 1 ErrMin= 2.82D-02
 ErrMax= 2.82D-02  0.00D+00 EMaxC= 1.00D-01 BMatC= 4.39D-02 BMatP= 4.39D-02
 IDIUse=3 WtCom= 7.18D-01 WtEn= 2.82D-01
 Coeff-Com:  0.100D+01
 Coeff-En:   0.100D+01
 Coeff:      0.100D+01
 GapD=    2.000 DampG=2.000 DampE=0.500 DampFc=1.0000 IDamp=-1.
 RMSDP=1.06D-02 MaxDP=8.66D-02              OVMax= 0.00D+00

 Cycle   2  Pass 1  IDiag  1:
 E= 0.105811124185223     Delta-E=       -0.107198236381 Rises=F Damp=F
 DIIS: error= 7.97D-03 at cycle   2 NSaved=   2.
 NSaved= 2 IEnMin= 2 EnMin= 0.105811124185223     IErMin= 2 ErrMin= 7.97D-03
 ErrMax= 7.97D-03  0.00D+00 EMaxC= 1.00D-01 BMatC= 3.14D-03 BMatP= 4.39D-02
 IDIUse=3 WtCom= 9.20D-01 WtEn= 7.97D-02
 Coeff-Com: -0.331D+00 0.133D+01
 Coeff-En:   0.000D+00 0.100D+01
 Coeff:     -0.305D+00 0.131D+01
 RMSDP=4.29D-03 MaxDP=3.00D-02 DE=-1.07D-01 OVMax= 0.00D+00

 Cycle   3  Pass 1  IDiag  3:
 E= 0.957071707799173E-01 Delta-E=       -0.010103953405 Rises=F Damp=F
 DIIS: error= 1.02D-03 at cycle   3 NSaved=   3.
 NSaved= 3 IEnMin= 3 EnMin= 0.957071707799173E-01 IErMin= 3 ErrMin= 1.02D-03
 ErrMax= 1.02D-03  0.00D+00 EMaxC= 1.00D-01 BMatC= 7.13D-05 BMatP= 3.14D-03
 IDIUse=3 WtCom= 9.90D-01 WtEn= 1.02D-02
 Coeff-Com:  0.137D+00-0.623D+00 0.149D+01
 Coeff-En:   0.000D+00 0.000D+00 0.100D+01
 Coeff:      0.136D+00-0.617D+00 0.148D+01
 Gap=     0.323 Goal=   None    Shift=    0.000
 RMSDP=1.19D-03 MaxDP=6.81D-03 DE=-1.01D-02 OVMax= 1.39D-02

 Cycle   4  Pass 1  IDiag  3:
 E= 0.952357275997286E-01 Delta-E=       -0.000471443180 Rises=F Damp=F
 DIIS: error= 3.06D-04 at cycle   4 NSaved=   4.
 NSaved= 4 IEnMin= 4 EnMin= 0.952357275997286E-01 IErMin= 4 ErrMin= 3.06D-04
 ErrMax= 3.06D-04  0.00D+00 EMaxC= 1.00D-01 BMatC= 6.19D-06 BMatP= 7.13D-05
 IDIUse=3 WtCom= 9.97D-01 WtEn= 3.06D-03
 Coeff-Com: -0.768D-01 0.354D+00-0.101D+01 0.173D+01
 Coeff-En:   0.000D+00 0.000D+00 0.000D+00 0.100D+01
 Coeff:     -0.766D-01 0.353D+00-0.100D+01 0.173D+01
 Gap=     0.323 Goal=   None    Shift=    0.000
 RMSDP=5.57D-04 MaxDP=4.23D-03 DE=-4.71D-04 OVMax= 8.29D-03

 Cycle   5  Pass 1  IDiag  3:
 E= 0.951660426904368E-01 Delta-E=       -0.000069684909 Rises=F Damp=F
 DIIS: error= 1.23D-04 at cycle   5 NSaved=   5.
 NSaved= 5 IEnMin= 5 EnMin= 0.951660426904368E-01 IErMin= 5 ErrMin= 1.23D-04
 ErrMax= 1.23D-04  0.00D+00 EMaxC= 1.00D-01 BMatC= 9.92D-07 BMatP= 6.19D-06
 IDIUse=3 WtCom= 9.99D-01 WtEn= 1.23D-03
 Coeff-Com:  0.400D-01-0.186D+00 0.562D+00-0.125D+01 0.183D+01
 Coeff-En:   0.000D+00 0.000D+00 0.000D+00 0.000D+00 0.100D+01
 Coeff:      0.399D-01-0.185D+00 0.561D+00-0.124D+01 0.183D+01
 Gap=     0.323 Goal=   None    Shift=    0.000
 RMSDP=2.68D-04 MaxDP=2.21D-03 DE=-6.97D-05 OVMax= 3.92D-03

 Cycle   6  Pass 1  IDiag  3:
 E= 0.951531425817507E-01 Delta-E=       -0.000012900109 Rises=F Damp=F
 DIIS: error= 3.75D-05 at cycle   6 NSaved=   6.
 NSaved= 6 IEnMin= 6 EnMin= 0.951531425817507E-01 IErMin= 6 ErrMin= 3.75D-05
 ErrMax= 3.75D-05  0.00D+00 EMaxC= 1.00D-01 BMatC= 1.28D-07 BMatP= 9.92D-07
 IDIUse=1 WtCom= 1.00D+00 WtEn= 0.00D+00
 Coeff-Com: -0.875D-02 0.400D-01-0.130D+00 0.362D+00-0.970D+00 0.171D+01
 Coeff:     -0.875D-02 0.400D-01-0.130D+00 0.362D+00-0.970D+00 0.171D+01
 Gap=     0.323 Goal=   None    Shift=    0.000
 RMSDP=1.13D-04 MaxDP=9.82D-04 DE=-1.29D-05 OVMax= 1.58D-03

 Cycle   7  Pass 1  IDiag  3:
 E= 0.951515534344338E-01 Delta-E=       -0.000001589147 Rises=F Damp=F
 DIIS: error= 9.78D-06 at cycle   7 NSaved=   7.
 NSaved= 7 IEnMin= 7 EnMin= 0.951515534344338E-01 IErMin= 7 ErrMin= 9.78D-06
 ErrMax= 9.78D-06  0.00D+00 EMaxC= 1.00D-01 BMatC= 6.29D-09 BMatP= 1.28D-07
 IDIUse=1 WtCom= 1.00D+00 WtEn= 0.00D+00
 Coeff-Com:  0.215D-02-0.954D-02 0.329D-01-0.107D+00 0.389D+00-0.907D+00
 Coeff-Com:  0.160D+01
 Coeff:      0.215D-02-0.954D-02 0.329D-01-0.107D+00 0.389D+00-0.907D+00
 Coeff:      0.160D+01
 Gap=     0.323 Goal=   None    Shift=    0.000
 RMSDP=1.63D-05 MaxDP=1.34D-04 DE=-1.59D-06 OVMax= 1.60D-04

 Cycle   8  Pass 1  IDiag  3:
 E= 0.951515045846634E-01 Delta-E=       -0.000000048850 Rises=F Damp=F
 DIIS: error= 2.01D-06 at cycle   8 NSaved=   8.
 NSaved= 8 IEnMin= 8 EnMin= 0.951515045846634E-01 IErMin= 8 ErrMin= 2.01D-06
 ErrMax= 2.01D-06  0.00D+00 EMaxC= 1.00D-01 BMatC= 2.55D-10 BMatP= 6.29D-09
 IDIUse=1 WtCom= 1.00D+00 WtEn= 0.00D+00
 Coeff-Com: -0.303D-03 0.122D-02-0.530D-02 0.246D-01-0.121D+00 0.326D+00
 Coeff-Com: -0.720D+00 0.149D+01
 Coeff:     -0.303D-03 0.122D-02-0.530D-02 0.246D-01-0.121D+00 0.326D+00
 Coeff:     -0.720D+00 0.149D+01
 Gap=     0.323 Goal=   None    Shift=    0.000
 RMSDP=2.38D-06 MaxDP=1.21D-05 DE=-4.88D-08 OVMax= 1.64D-05

 Cycle   9  Pass 1  IDiag  3:
 E= 0.951515029471750E-01 Delta-E=       -0.000000001637 Rises=F Damp=F
 DIIS: error= 6.71D-07 at cycle   9 NSaved=   9.
 NSaved= 9 IEnMin= 9 EnMin= 0.951515029471750E-01 IErMin= 9 ErrMin= 6.71D-07
 ErrMax= 6.71D-07  0.00D+00 EMaxC= 1.00D-01 BMatC= 1.08D-11 BMatP= 2.55D-10
 IDIUse=1 WtCom= 1.00D+00 WtEn= 0.00D+00
 Coeff-Com:  0.512D-04-0.177D-03 0.987D-03-0.589D-02 0.336D-01-0.959D-01
 Coeff-Com:  0.227D+00-0.603D+00 0.144D+01
 Coeff:      0.512D-04-0.177D-03 0.987D-03-0.589D-02 0.336D-01-0.959D-01
 Coeff:      0.227D+00-0.603D+00 0.144D+01
 Gap=     0.323 Goal=   None    Shift=    0.000
 RMSDP=4.59D-07 MaxDP=3.06D-06 DE=-1.64D-09 OVMax= 2.82D-06

 Cycle  10  Pass 1  IDiag  3:
 E= 0.951515028826009E-01 Delta-E=       -0.000000000065 Rises=F Damp=F
 DIIS: error= 9.85D-08 at cycle  10 NSaved=  10.
 NSaved=10 IEnMin=10 EnMin= 0.951515028826009E-01 IErMin=10 ErrMin= 9.85D-08
 ErrMax= 9.85D-08  0.00D+00 EMaxC= 1.00D-01 BMatC= 3.80D-13 BMatP= 1.08D-11
 IDIUse=1 WtCom= 1.00D+00 WtEn= 0.00D+00
 Coeff-Com: -0.376D-05 0.621D-05-0.803D-04 0.750D-03-0.494D-02 0.151D-01
 Coeff-Com: -0.379D-01 0.115D+00-0.427D+00 0.134D+01
 Coeff:     -0.376D-05 0.621D-05-0.803D-04 0.750D-03-0.494D-02 0.151D-01
 Coeff:     -0.379D-01 0.115D+00-0.427D+00 0.134D+01
 Gap=     0.323 Goal=   None    Shift=    0.000
 RMSDP=1.00D-07 MaxDP=4.93D-07 DE=-6.46D-11 OVMax= 9.17D-07

 Cycle  11  Pass 1  IDiag  3:
 E= 0.951515028802987E-01 Delta-E=       -0.000000000002 Rises=F Damp=F
 DIIS: error= 2.75D-08 at cycle  11 NSaved=  11.
 NSaved=11 IEnMin=11 EnMin= 0.951515028802987E-01 IErMin=11 ErrMin= 2.75D-08
 ErrMax= 2.75D-08  0.00D+00 EMaxC= 1.00D-01 BMatC= 3.01D-14 BMatP= 3.80D-13
 IDIUse=1 WtCom= 1.00D+00 WtEn= 0.00D+00
 Coeff-Com:  0.255D-06 0.274D-05 0.940D-05-0.204D-03 0.150D-02-0.478D-02
 Coeff-Com:  0.124D-01-0.397D-01 0.171D+00-0.687D+00 0.155D+01
 Coeff:      0.255D-06 0.274D-05 0.940D-05-0.204D-03 0.150D-02-0.478D-02
 Coeff:      0.124D-01-0.397D-01 0.171D+00-0.687D+00 0.155D+01
 Gap=     0.323 Goal=   None    Shift=    0.000
 RMSDP=3.38D-08 MaxDP=2.13D-07 DE=-2.30D-12 OVMax= 3.96D-07

 Cycle  12  Pass 1  IDiag  3:
 E= 0.951515028795740E-01 Delta-E=       -0.000000000001 Rises=F Damp=F
 DIIS: error= 1.34D-08 at cycle  12 NSaved=  12.
 NSaved=12 IEnMin=12 EnMin= 0.951515028795740E-01 IErMin=12 ErrMin= 1.34D-08
 ErrMax= 1.34D-08  0.00D+00 EMaxC= 1.00D-01 BMatC= 6.46D-15 BMatP= 3.01D-14
 IDIUse=1 WtCom= 1.00D+00 WtEn= 0.00D+00
 Coeff-Com:  0.110D-06-0.328D-05-0.150D-05 0.128D-03-0.990D-03 0.322D-02
 Coeff-Com: -0.846D-02 0.275D-01-0.125D+00 0.546D+00-0.157D+01 0.213D+01
 Coeff:      0.110D-06-0.328D-05-0.150D-05 0.128D-03-0.990D-03 0.322D-02
 Coeff:     -0.846D-02 0.275D-01-0.125D+00 0.546D+00-0.157D+01 0.213D+01
 Gap=     0.323 Goal=   None    Shift=    0.000
 RMSDP=2.58D-08 MaxDP=1.85D-07 DE=-7.25D-13 OVMax= 3.54D-07

 Cycle  13  Pass 1  IDiag  3:
 E= 0.951515028794745E-01 Delta-E=       -0.000000000000 Rises=F Damp=F
 DIIS: error= 5.27D-09 at cycle  13 NSaved=  13.
 NSaved=13 IEnMin=13 EnMin= 0.951515028794745E-01 IErMin=13 ErrMin= 5.27D-09
 ErrMax= 5.27D-09  0.00D+00 EMaxC= 1.00D-01 BMatC= 1.03D-15 BMatP= 6.46D-15
 IDIUse=1 WtCom= 1.00D+00 WtEn= 0.00D+00
 Coeff-Com: -0.360D-06 0.319D-05-0.416D-05-0.552D-04 0.491D-03-0.166D-02
 Coeff-Com:  0.446D-02-0.150D-01 0.737D-01-0.337D+00 0.106D+01-0.187D+01
 Coeff-Com:  0.209D+01
 Coeff:     -0.360D-06 0.319D-05-0.416D-05-0.552D-04 0.491D-03-0.166D-02
 Coeff:      0.446D-02-0.150D-01 0.737D-01-0.337D+00 0.106D+01-0.187D+01
 Coeff:      0.209D+01
 Gap=     0.323 Goal=   None    Shift=    0.000
 RMSDP=1.34D-08 MaxDP=9.74D-08 DE=-9.95D-14 OVMax= 1.87D-07

 Cycle  14  Pass 1  IDiag  3:
 E= 0.951515028792755E-01 Delta-E=       -0.000000000000 Rises=F Damp=F
 DIIS: error= 7.91D-10 at cycle  14 NSaved=  14.
 NSaved=14 IEnMin=14 EnMin= 0.951515028792755E-01 IErMin=14 ErrMin= 7.91D-10
 ErrMax= 7.91D-10  0.00D+00 EMaxC= 1.00D-01 BMatC= 4.36D-17 BMatP= 1.03D-15
 IDIUse=1 WtCom= 1.00D+00 WtEn= 0.00D+00
 Coeff-Com:  0.138D-06-0.113D-05 0.166D-05 0.171D-04-0.157D-03 0.534D-03
 Coeff-Com: -0.144D-02 0.485D-02-0.238D-01 0.110D+00-0.360D+00 0.670D+00
 Coeff-Com: -0.902D+00 0.150D+01
 Coeff:      0.138D-06-0.113D-05 0.166D-05 0.171D-04-0.157D-03 0.534D-03
 Coeff:     -0.144D-02 0.485D-02-0.238D-01 0.110D+00-0.360D+00 0.670D+00
 Coeff:     -0.902D+00 0.150D+01
 Gap=     0.323 Goal=   None    Shift=    0.000
 RMSDP=1.90D-09 MaxDP=1.34D-08 DE=-1.99D-13 OVMax= 2.53D-08

 Cycle  15  Pass 2  IDiag  1:
 SCF Done:  E(RPM3) =  0.951515028793E-01 A.U. after   15 cycles
            NFock= 14  Conv=0.19D-08     -V/T= 1.0024
 KE=-3.903074937586D+01 PE=-1.472989484757D+02 EE= 8.384227800707D+01
 Leave Link  502 at Wed Oct 21 14:25:05 2020, MaxMem=  2684354560 cpu:              27.0 elap:               3.6
 (Enter /udrive/faculty/rpeverati/g16/g16/l508.exe)
 QCSCF skips out because SCF is already converged.
 Leave Link  508 at Wed Oct 21 14:25:07 2020, MaxMem=  2684354560 cpu:               1.7 elap:               1.2
 (Enter /udrive/faculty/rpeverati/g16/g16/l601.exe)
 Copying SCF densities to generalized density rwf, IOpCl= 0 IROHF=0.

 **********************************************************************

            Population analysis using the SCF density.

 **********************************************************************

 Orbital symmetries:
       Occupied  (A) (A) (A) (A) (A) (A) (A) (A) (A) (A) (A) (A)
                 (A) (A)
       Virtual   (A) (A) (A) (A) (A) (A) (A) (A) (A) (A) (A) (A)
                 (A) (A)
 The electronic state is 1-A.
 Alpha  occ. eigenvalues --   -1.41735  -1.09630  -1.00129  -0.76966  -0.68016
 Alpha  occ. eigenvalues --   -0.63830  -0.55618  -0.53874  -0.51934  -0.48670
 Alpha  occ. eigenvalues --   -0.47808  -0.45469  -0.35753  -0.32823
 Alpha virt. eigenvalues --   -0.00520   0.04221   0.12147   0.13361   0.13728
 Alpha virt. eigenvalues --    0.14075   0.15020   0.15295   0.16975   0.17032
 Alpha virt. eigenvalues --    0.18729   0.19157   0.21534   0.22052
          Condensed to atoms (all electrons):
               1          2          3          4          5          6
     1  C    4.205543   0.000000   0.000000   0.000000   0.000000   0.000000
     2  C    0.000000   4.074694   0.000000   0.000000   0.000000   0.000000
     3  C    0.000000   0.000000   4.169457   0.000000   0.000000   0.000000
     4  C    0.000000   0.000000   0.000000   4.074693   0.000000   0.000000
     5  C    0.000000   0.000000   0.000000   0.000000   4.205542   0.000000
     6  H    0.000000   0.000000   0.000000   0.000000   0.000000   0.933426
     7  H    0.000000   0.000000   0.000000   0.000000   0.000000   0.000000
     8  H    0.000000   0.000000   0.000000   0.000000   0.000000   0.000000
     9  H    0.000000   0.000000   0.000000   0.000000   0.000000   0.000000
    10  H    0.000000   0.000000   0.000000   0.000000   0.000000   0.000000
    11  H    0.000000   0.000000   0.000000   0.000000   0.000000   0.000000
    12  H    0.000000   0.000000   0.000000   0.000000   0.000000   0.000000
    13  H    0.000000   0.000000   0.000000   0.000000   0.000000   0.000000
               7          8          9         10         11         12
     1  C    0.000000   0.000000   0.000000   0.000000   0.000000   0.000000
     2  C    0.000000   0.000000   0.000000   0.000000   0.000000   0.000000
     3  C    0.000000   0.000000   0.000000   0.000000   0.000000   0.000000
     4  C    0.000000   0.000000   0.000000   0.000000   0.000000   0.000000
     5  C    0.000000   0.000000   0.000000   0.000000   0.000000   0.000000
     6  H    0.000000   0.000000   0.000000   0.000000   0.000000   0.000000
     7  H    0.913611   0.000000   0.000000   0.000000   0.000000   0.000000
     8  H    0.000000   0.909050   0.000000   0.000000   0.000000   0.000000
     9  H    0.000000   0.000000   0.898015   0.000000   0.000000   0.000000
    10  H    0.000000   0.000000   0.000000   0.909051   0.000000   0.000000
    11  H    0.000000   0.000000   0.000000   0.000000   0.933428   0.000000
    12  H    0.000000   0.000000   0.000000   0.000000   0.000000   0.859876
    13  H    0.000000   0.000000   0.000000   0.000000   0.000000   0.000000
              13
     1  C    0.000000
     2  C    0.000000
     3  C    0.000000
     4  C    0.000000
     5  C    0.000000
     6  H    0.000000
     7  H    0.000000
     8  H    0.000000
     9  H    0.000000
    10  H    0.000000
    11  H    0.000000
    12  H    0.000000
    13  H    0.913613
 Mulliken charges:
               1
     1  C   -0.205543
     2  C   -0.074694
     3  C   -0.169457
     4  C   -0.074693
     5  C   -0.205542
     6  H    0.066574
     7  H    0.086389
     8  H    0.090950
     9  H    0.101985
    10  H    0.090949
    11  H    0.066572
    12  H    0.140124
    13  H    0.086387
 Sum of Mulliken charges =  -0.00000
 Mulliken charges with hydrogens summed into heavy atoms:
               1
     1  C    0.087540
     2  C    0.016255
     3  C   -0.067472
     4  C    0.016256
     5  C   -0.052579
 Charge=              0.0000 electrons
 Dipole moment (field-independent basis, Debye):
    X=              0.0000    Y=             -0.2175    Z=             -0.3110  Tot=              0.3795
 N-N= 1.025825713473D+02 E-N=-1.472989484768D+02  KE=-3.903074937586D+01
 Leave Link  601 at Wed Oct 21 14:25:09 2020, MaxMem=  2684354560 cpu:               3.3 elap:               1.4
 (Enter /udrive/faculty/rpeverati/g16/g16/l701.exe)
 ... and contract with generalized density number  0.
 Compute integral first derivatives.
 Leave Link  701 at Wed Oct 21 14:25:12 2020, MaxMem=  2684354560 cpu:               8.4 elap:               1.8
 (Enter /udrive/faculty/rpeverati/g16/g16/l702.exe)
 L702 exits ... SP integral derivatives will be done elsewhere.
 Leave Link  702 at Wed Oct 21 14:25:14 2020, MaxMem=  2684354560 cpu:               1.7 elap:               1.4
 (Enter /udrive/faculty/rpeverati/g16/g16/l703.exe)
 Integral derivatives from FoFJK, PRISM(SPDF).
 Compute integral first derivatives, UseDBF=F ICtDFT=           0.
 Calling FoFJK, ICntrl=      2127 FMM=F ISym2X=0 I1Cent= 0 IOpClX= 0 NMat=1 NMatS=1 NMatT=0.
 FoFJK:  IHMeth= 9 ICntrl=    2127 DoSepK=F KAlg= 0 I1Cent=           0 FoldK=F
 IRaf=         0 NMat=       1 IRICut=       1 DoRegI=T DoRafI=F ISym2E= 0 IDoP0=3 IntGTp=3.
 FoFCou: FMM=F IPFlag=           0 FMFlag=      100000 FMFlg1=         800
         NFxFlg=           0 DoJE=F BraDBF=F KetDBF=F FulRan=T
         wScrn=  0.000000 ICntrl=      2127 IOpCl=  0 I1Cent=           0 NGrid=           0
         NMat0=    1 NMatS0=      1 NMatT0=    0 NMatD0=    1 NMtDS0=    0 NMtDT0=    0
 Symmetry not used in FoFCou.
 Leave Link  703 at Wed Oct 21 14:25:16 2020, MaxMem=  2684354560 cpu:               5.0 elap:               1.4
 (Enter /udrive/faculty/rpeverati/g16/g16/l716.exe)
 Dipole        = 8.27034141D-06-8.55532035D-02-1.22356728D-01
 ***** Axes restored to original set *****
 -------------------------------------------------------------------
 Center     Atomic                   Forces (Hartrees/Bohr)
 Number     Number              X              Y              Z
 -------------------------------------------------------------------
      1        6           0.000640461    0.019890305   -0.000821137
      2        6           0.006613675   -0.008623998   -0.001694331
      3        6          -0.000004185   -0.015833260   -0.003928475
      4        6          -0.006605691   -0.008625269   -0.001696451
      5        6          -0.000635516    0.019892115   -0.000814127
      6        1           0.001232773   -0.002805769   -0.001821021
      7        1          -0.001056464   -0.004533025    0.007812714
      8        1           0.007875018    0.004528931    0.000117650
      9        1           0.000000086    0.009369208    0.003855185
     10        1          -0.007878922    0.004531350    0.000117172
     11        1          -0.001231076   -0.002805521   -0.001820236
     12        1          -0.000005430   -0.010451262   -0.007123799
     13        1           0.001055272   -0.004533805    0.007816856
 -------------------------------------------------------------------
 Cartesian Forces:  Max     0.019892115 RMS     0.007016757
 Leave Link  716 at Wed Oct 21 14:25:18 2020, MaxMem=  2684354560 cpu:               2.3 elap:               1.2
 (Enter /udrive/faculty/rpeverati/g16/g16/l103.exe)

 GradGradGradGradGradGradGradGradGradGradGradGradGradGradGradGradGradGrad
 Berny optimization.
 Optmz: redundant internal coordinate code flag= 1
 FormGI is forming the generalized inverse of G from B-inverse, IUseBI=4.
 Internal  Forces:  Max     0.009110794 RMS     0.003490870
 Search for a saddle point.
 Step number   1 out of a maximum of   50
 All quantities printed in internal units (Hartrees-Bohrs-Radians)
 Swapping is turned off.
 Second derivative matrix not updated -- first step.
 The second derivative matrix:
                          R1        R2        R3        R4        R5
           R1           0.43409
           R2           0.00000   0.35262
           R3           0.00000   0.00000   0.13683
           R4           0.00000   0.00000   0.00000   0.35706
           R5           0.00000   0.00000   0.00000   0.00000   0.46756
           R6           0.00000   0.00000   0.00000   0.00000   0.00000
           R7           0.00000   0.00000   0.00000   0.00000   0.00000
           R8           0.00000   0.00000   0.00000   0.00000   0.00000
           R9           0.00000   0.00000   0.00000   0.00000   0.00000
           R10          0.00000   0.00000   0.00000   0.00000   0.00000
           R11          0.00000   0.00000   0.00000   0.00000   0.00000
           R12          0.00000   0.00000   0.00000   0.00000   0.00000
           R13          0.00000   0.00000   0.00000   0.00000   0.00000
           A1           0.00000   0.00000   0.00000   0.00000   0.00000
           A2           0.00000   0.00000   0.00000   0.00000   0.00000
           A3           0.00000   0.00000   0.00000   0.00000   0.00000
           A4           0.00000   0.00000   0.00000   0.00000   0.00000
           A5           0.00000   0.00000   0.00000   0.00000   0.00000
           A6           0.00000   0.00000   0.00000   0.00000   0.00000
           A7           0.00000   0.00000   0.00000   0.00000   0.00000
           A8           0.00000   0.00000   0.00000   0.00000   0.00000
           A9           0.00000   0.00000   0.00000   0.00000   0.00000
           A10          0.00000   0.00000   0.00000   0.00000   0.00000
           A11          0.00000   0.00000   0.00000   0.00000   0.00000
           A12          0.00000   0.00000   0.00000   0.00000   0.00000
           A13          0.00000   0.00000   0.00000   0.00000   0.00000
           A14          0.00000   0.00000   0.00000   0.00000   0.00000
           A15          0.00000   0.00000   0.00000   0.00000   0.00000
           A16          0.00000   0.00000   0.00000   0.00000   0.00000
           A17          0.00000   0.00000   0.00000   0.00000   0.00000
           A18          0.00000   0.00000   0.00000   0.00000   0.00000
           A19          0.00000   0.00000   0.00000   0.00000   0.00000
           A20          0.00000   0.00000   0.00000   0.00000   0.00000
           A21          0.00000   0.00000   0.00000   0.00000   0.00000
           A22          0.00000   0.00000   0.00000   0.00000   0.00000
           D1           0.00000   0.00000   0.00000   0.00000   0.00000
           D2           0.00000   0.00000   0.00000   0.00000   0.00000
           D3           0.00000   0.00000   0.00000   0.00000   0.00000
           D4           0.00000   0.00000   0.00000   0.00000   0.00000
           D5           0.00000   0.00000   0.00000   0.00000   0.00000
           D6           0.00000   0.00000   0.00000   0.00000   0.00000
           D7           0.00000   0.00000   0.00000   0.00000   0.00000
           D8           0.00000   0.00000   0.00000   0.00000   0.00000
           D9           0.00000   0.00000   0.00000   0.00000   0.00000
           D10          0.00000   0.00000   0.00000   0.00000   0.00000
           D11          0.00000   0.00000   0.00000   0.00000   0.00000
           D12          0.00000   0.00000   0.00000   0.00000   0.00000
           D13          0.00000   0.00000   0.00000   0.00000   0.00000
           D14          0.00000   0.00000   0.00000   0.00000   0.00000
           D15          0.00000   0.00000   0.00000   0.00000   0.00000
           D16          0.00000   0.00000   0.00000   0.00000   0.00000
           D17          0.00000   0.00000   0.00000   0.00000   0.00000
           D18          0.00000   0.00000   0.00000   0.00000   0.00000
           D19          0.00000   0.00000   0.00000   0.00000   0.00000
           D20          0.00000   0.00000   0.00000   0.00000   0.00000
           D21          0.00000   0.00000   0.00000   0.00000   0.00000
           D22          0.00000   0.00000   0.00000   0.00000   0.00000
           D23          0.00000   0.00000   0.00000   0.00000   0.00000
           D24          0.00000   0.00000   0.00000   0.00000   0.00000
           D25          0.00000   0.00000   0.00000   0.00000   0.00000
           D26          0.00000   0.00000   0.00000   0.00000   0.00000
                          R6        R7        R8        R9        R10
           R6           0.35503
           R7           0.00000   0.46756
           R8           0.00000   0.00000   0.35795
           R9           0.00000   0.00000   0.00000   0.43410
           R10          0.00000   0.00000   0.00000   0.00000   0.35502
           R11          0.00000   0.00000   0.00000   0.00000   0.00000
           R12          0.00000   0.00000   0.00000   0.00000   0.00000
           R13          0.00000   0.00000   0.00000   0.00000   0.00000
           A1           0.00000   0.00000   0.00000   0.00000   0.00000
           A2           0.00000   0.00000   0.00000   0.00000   0.00000
           A3           0.00000   0.00000   0.00000   0.00000   0.00000
           A4           0.00000   0.00000   0.00000   0.00000   0.00000
           A5           0.00000   0.00000   0.00000   0.00000   0.00000
           A6           0.00000   0.00000   0.00000   0.00000   0.00000
           A7           0.00000   0.00000   0.00000   0.00000   0.00000
           A8           0.00000   0.00000   0.00000   0.00000   0.00000
           A9           0.00000   0.00000   0.00000   0.00000   0.00000
           A10          0.00000   0.00000   0.00000   0.00000   0.00000
           A11          0.00000   0.00000   0.00000   0.00000   0.00000
           A12          0.00000   0.00000   0.00000   0.00000   0.00000
           A13          0.00000   0.00000   0.00000   0.00000   0.00000
           A14          0.00000   0.00000   0.00000   0.00000   0.00000
           A15          0.00000   0.00000   0.00000   0.00000   0.00000
           A16          0.00000   0.00000   0.00000   0.00000   0.00000
           A17          0.00000   0.00000   0.00000   0.00000   0.00000
           A18          0.00000   0.00000   0.00000   0.00000   0.00000
           A19          0.00000   0.00000   0.00000   0.00000   0.00000
           A20          0.00000   0.00000   0.00000   0.00000   0.00000
           A21          0.00000   0.00000   0.00000   0.00000   0.00000
           A22          0.00000   0.00000   0.00000   0.00000   0.00000
           D1           0.00000   0.00000   0.00000   0.00000   0.00000
           D2           0.00000   0.00000   0.00000   0.00000   0.00000
           D3           0.00000   0.00000   0.00000   0.00000   0.00000
           D4           0.00000   0.00000   0.00000   0.00000   0.00000
           D5           0.00000   0.00000   0.00000   0.00000   0.00000
           D6           0.00000   0.00000   0.00000   0.00000   0.00000
           D7           0.00000   0.00000   0.00000   0.00000   0.00000
           D8           0.00000   0.00000   0.00000   0.00000   0.00000
           D9           0.00000   0.00000   0.00000   0.00000   0.00000
           D10          0.00000   0.00000   0.00000   0.00000   0.00000
           D11          0.00000   0.00000   0.00000   0.00000   0.00000
           D12          0.00000   0.00000   0.00000   0.00000   0.00000
           D13          0.00000   0.00000   0.00000   0.00000   0.00000
           D14          0.00000   0.00000   0.00000   0.00000   0.00000
           D15          0.00000   0.00000   0.00000   0.00000   0.00000
           D16          0.00000   0.00000   0.00000   0.00000   0.00000
           D17          0.00000   0.00000   0.00000   0.00000   0.00000
           D18          0.00000   0.00000   0.00000   0.00000   0.00000
           D19          0.00000   0.00000   0.00000   0.00000   0.00000
           D20          0.00000   0.00000   0.00000   0.00000   0.00000
           D21          0.00000   0.00000   0.00000   0.00000   0.00000
           D22          0.00000   0.00000   0.00000   0.00000   0.00000
           D23          0.00000   0.00000   0.00000   0.00000   0.00000
           D24          0.00000   0.00000   0.00000   0.00000   0.00000
           D25          0.00000   0.00000   0.00000   0.00000   0.00000
           D26          0.00000   0.00000   0.00000   0.00000   0.00000
                          R11       R12       R13       A1        A2
           R11          0.35263
           R12          0.00000   0.35705
           R13          0.00000   0.00000   0.13682
           A1           0.00000   0.00000   0.00000   0.16000
           A2           0.00000   0.00000   0.00000   0.00000   0.16000
           A3           0.00000   0.00000   0.00000   0.00000   0.00000
           A4           0.00000   0.00000   0.00000   0.00000   0.00000
           A5           0.00000   0.00000   0.00000   0.00000   0.00000
           A6           0.00000   0.00000   0.00000   0.00000   0.00000
           A7           0.00000   0.00000   0.00000   0.00000   0.00000
           A8           0.00000   0.00000   0.00000   0.00000   0.00000
           A9           0.00000   0.00000   0.00000   0.00000   0.00000
           A10          0.00000   0.00000   0.00000   0.00000   0.00000
           A11          0.00000   0.00000   0.00000   0.00000   0.00000
           A12          0.00000   0.00000   0.00000   0.00000   0.00000
           A13          0.00000   0.00000   0.00000   0.00000   0.00000
           A14          0.00000   0.00000   0.00000   0.00000   0.00000
           A15          0.00000   0.00000   0.00000   0.00000   0.00000
           A16          0.00000   0.00000   0.00000   0.00000   0.00000
           A17          0.00000   0.00000   0.00000   0.00000   0.00000
           A18          0.00000   0.00000   0.00000   0.00000   0.00000
           A19          0.00000   0.00000   0.00000   0.00000   0.00000
           A20          0.00000   0.00000   0.00000   0.00000   0.00000
           A21          0.00000   0.00000   0.00000   0.00000   0.00000
           A22          0.00000   0.00000   0.00000   0.00000   0.00000
           D1           0.00000   0.00000   0.00000   0.00000   0.00000
           D2           0.00000   0.00000   0.00000   0.00000   0.00000
           D3           0.00000   0.00000   0.00000   0.00000   0.00000
           D4           0.00000   0.00000   0.00000   0.00000   0.00000
           D5           0.00000   0.00000   0.00000   0.00000   0.00000
           D6           0.00000   0.00000   0.00000   0.00000   0.00000
           D7           0.00000   0.00000   0.00000   0.00000   0.00000
           D8           0.00000   0.00000   0.00000   0.00000   0.00000
           D9           0.00000   0.00000   0.00000   0.00000   0.00000
           D10          0.00000   0.00000   0.00000   0.00000   0.00000
           D11          0.00000   0.00000   0.00000   0.00000   0.00000
           D12          0.00000   0.00000   0.00000   0.00000   0.00000
           D13          0.00000   0.00000   0.00000   0.00000   0.00000
           D14          0.00000   0.00000   0.00000   0.00000   0.00000
           D15          0.00000   0.00000   0.00000   0.00000   0.00000
           D16          0.00000   0.00000   0.00000   0.00000   0.00000
           D17          0.00000   0.00000   0.00000   0.00000   0.00000
           D18          0.00000   0.00000   0.00000   0.00000   0.00000
           D19          0.00000   0.00000   0.00000   0.00000   0.00000
           D20          0.00000   0.00000   0.00000   0.00000   0.00000
           D21          0.00000   0.00000   0.00000   0.00000   0.00000
           D22          0.00000   0.00000   0.00000   0.00000   0.00000
           D23          0.00000   0.00000   0.00000   0.00000   0.00000
           D24          0.00000   0.00000   0.00000   0.00000   0.00000
           D25          0.00000   0.00000   0.00000   0.00000   0.00000
           D26          0.00000   0.00000   0.00000   0.00000   0.00000
                          A3        A4        A5        A6        A7
           A3           0.16000
           A4           0.00000   0.16000
           A5           0.00000   0.00000   0.16000
           A6           0.00000   0.00000   0.00000   0.16000
           A7           0.00000   0.00000   0.00000   0.00000   0.25000
           A8           0.00000   0.00000   0.00000   0.00000   0.00000
           A9           0.00000   0.00000   0.00000   0.00000   0.00000
           A10          0.00000   0.00000   0.00000   0.00000   0.00000
           A11          0.00000   0.00000   0.00000   0.00000   0.00000
           A12          0.00000   0.00000   0.00000   0.00000   0.00000
           A13          0.00000   0.00000   0.00000   0.00000   0.00000
           A14          0.00000   0.00000   0.00000   0.00000   0.00000
           A15          0.00000   0.00000   0.00000   0.00000   0.00000
           A16          0.00000   0.00000   0.00000   0.00000   0.00000
           A17          0.00000   0.00000   0.00000   0.00000   0.00000
           A18          0.00000   0.00000   0.00000   0.00000   0.00000
           A19          0.00000   0.00000   0.00000   0.00000   0.00000
           A20          0.00000   0.00000   0.00000   0.00000   0.00000
           A21          0.00000   0.00000   0.00000   0.00000   0.00000
           A22          0.00000   0.00000   0.00000   0.00000   0.00000
           D1           0.00000   0.00000   0.00000   0.00000   0.00000
           D2           0.00000   0.00000   0.00000   0.00000   0.00000
           D3           0.00000   0.00000   0.00000   0.00000   0.00000
           D4           0.00000   0.00000   0.00000   0.00000   0.00000
           D5           0.00000   0.00000   0.00000   0.00000   0.00000
           D6           0.00000   0.00000   0.00000   0.00000   0.00000
           D7           0.00000   0.00000   0.00000   0.00000   0.00000
           D8           0.00000   0.00000   0.00000   0.00000   0.00000
           D9           0.00000   0.00000   0.00000   0.00000   0.00000
           D10          0.00000   0.00000   0.00000   0.00000   0.00000
           D11          0.00000   0.00000   0.00000   0.00000   0.00000
           D12          0.00000   0.00000   0.00000   0.00000   0.00000
           D13          0.00000   0.00000   0.00000   0.00000   0.00000
           D14          0.00000   0.00000   0.00000   0.00000   0.00000
           D15          0.00000   0.00000   0.00000   0.00000   0.00000
           D16          0.00000   0.00000   0.00000   0.00000   0.00000
           D17          0.00000   0.00000   0.00000   0.00000   0.00000
           D18          0.00000   0.00000   0.00000   0.00000   0.00000
           D19          0.00000   0.00000   0.00000   0.00000   0.00000
           D20          0.00000   0.00000   0.00000   0.00000   0.00000
           D21          0.00000   0.00000   0.00000   0.00000   0.00000
           D22          0.00000   0.00000   0.00000   0.00000   0.00000
           D23          0.00000   0.00000   0.00000   0.00000   0.00000
           D24          0.00000   0.00000   0.00000   0.00000   0.00000
           D25          0.00000   0.00000   0.00000   0.00000   0.00000
           D26          0.00000   0.00000   0.00000   0.00000   0.00000
                          A8        A9        A10       A11       A12
           A8           0.16000
           A9           0.00000   0.16000
           A10          0.00000   0.00000   0.25000
           A11          0.00000   0.00000   0.00000   0.16000
           A12          0.00000   0.00000   0.00000   0.00000   0.16000
           A13          0.00000   0.00000   0.00000   0.00000   0.00000
           A14          0.00000   0.00000   0.00000   0.00000   0.00000
           A15          0.00000   0.00000   0.00000   0.00000   0.00000
           A16          0.00000   0.00000   0.00000   0.00000   0.00000
           A17          0.00000   0.00000   0.00000   0.00000   0.00000
           A18          0.00000   0.00000   0.00000   0.00000   0.00000
           A19          0.00000   0.00000   0.00000   0.00000   0.00000
           A20          0.00000   0.00000   0.00000   0.00000   0.00000
           A21          0.00000   0.00000   0.00000   0.00000   0.00000
           A22          0.00000   0.00000   0.00000   0.00000   0.00000
           D1           0.00000   0.00000   0.00000   0.00000   0.00000
           D2           0.00000   0.00000   0.00000   0.00000   0.00000
           D3           0.00000   0.00000   0.00000   0.00000   0.00000
           D4           0.00000   0.00000   0.00000   0.00000   0.00000
           D5           0.00000   0.00000   0.00000   0.00000   0.00000
           D6           0.00000   0.00000   0.00000   0.00000   0.00000
           D7           0.00000   0.00000   0.00000   0.00000   0.00000
           D8           0.00000   0.00000   0.00000   0.00000   0.00000
           D9           0.00000   0.00000   0.00000   0.00000   0.00000
           D10          0.00000   0.00000   0.00000   0.00000   0.00000
           D11          0.00000   0.00000   0.00000   0.00000   0.00000
           D12          0.00000   0.00000   0.00000   0.00000   0.00000
           D13          0.00000   0.00000   0.00000   0.00000   0.00000
           D14          0.00000   0.00000   0.00000   0.00000   0.00000
           D15          0.00000   0.00000   0.00000   0.00000   0.00000
           D16          0.00000   0.00000   0.00000   0.00000   0.00000
           D17          0.00000   0.00000   0.00000   0.00000   0.00000
           D18          0.00000   0.00000   0.00000   0.00000   0.00000
           D19          0.00000   0.00000   0.00000   0.00000   0.00000
           D20          0.00000   0.00000   0.00000   0.00000   0.00000
           D21          0.00000   0.00000   0.00000   0.00000   0.00000
           D22          0.00000   0.00000   0.00000   0.00000   0.00000
           D23          0.00000   0.00000   0.00000   0.00000   0.00000
           D24          0.00000   0.00000   0.00000   0.00000   0.00000
           D25          0.00000   0.00000   0.00000   0.00000   0.00000
           D26          0.00000   0.00000   0.00000   0.00000   0.00000
                          A13       A14       A15       A16       A17
           A13          0.25000
           A14          0.00000   0.16000
           A15          0.00000   0.00000   0.16000
           A16          0.00000   0.00000   0.00000   0.16000
           A17          0.00000   0.00000   0.00000   0.00000   0.16000
           A18          0.00000   0.00000   0.00000   0.00000   0.00000
           A19          0.00000   0.00000   0.00000   0.00000   0.00000
           A20          0.00000   0.00000   0.00000   0.00000   0.00000
           A21          0.00000   0.00000   0.00000   0.00000   0.00000
           A22          0.00000   0.00000   0.00000   0.00000   0.00000
           D1           0.00000   0.00000   0.00000   0.00000   0.00000
           D2           0.00000   0.00000   0.00000   0.00000   0.00000
           D3           0.00000   0.00000   0.00000   0.00000   0.00000
           D4           0.00000   0.00000   0.00000   0.00000   0.00000
           D5           0.00000   0.00000   0.00000   0.00000   0.00000
           D6           0.00000   0.00000   0.00000   0.00000   0.00000
           D7           0.00000   0.00000   0.00000   0.00000   0.00000
           D8           0.00000   0.00000   0.00000   0.00000   0.00000
           D9           0.00000   0.00000   0.00000   0.00000   0.00000
           D10          0.00000   0.00000   0.00000   0.00000   0.00000
           D11          0.00000   0.00000   0.00000   0.00000   0.00000
           D12          0.00000   0.00000   0.00000   0.00000   0.00000
           D13          0.00000   0.00000   0.00000   0.00000   0.00000
           D14          0.00000   0.00000   0.00000   0.00000   0.00000
           D15          0.00000   0.00000   0.00000   0.00000   0.00000
           D16          0.00000   0.00000   0.00000   0.00000   0.00000
           D17          0.00000   0.00000   0.00000   0.00000   0.00000
           D18          0.00000   0.00000   0.00000   0.00000   0.00000
           D19          0.00000   0.00000   0.00000   0.00000   0.00000
           D20          0.00000   0.00000   0.00000   0.00000   0.00000
           D21          0.00000   0.00000   0.00000   0.00000   0.00000
           D22          0.00000   0.00000   0.00000   0.00000   0.00000
           D23          0.00000   0.00000   0.00000   0.00000   0.00000
           D24          0.00000   0.00000   0.00000   0.00000   0.00000
           D25          0.00000   0.00000   0.00000   0.00000   0.00000
           D26          0.00000   0.00000   0.00000   0.00000   0.00000
                          A18       A19       A20       A21       A22
           A18          0.16000
           A19          0.00000   0.16000
           A20          0.00000   0.00000   0.16000
           A21          0.00000   0.00000   0.00000   0.16000
           A22          0.00000   0.00000   0.00000   0.00000   0.25000
           D1           0.00000   0.00000   0.00000   0.00000   0.00000
           D2           0.00000   0.00000   0.00000   0.00000   0.00000
           D3           0.00000   0.00000   0.00000   0.00000   0.00000
           D4           0.00000   0.00000   0.00000   0.00000   0.00000
           D5           0.00000   0.00000   0.00000   0.00000   0.00000
           D6           0.00000   0.00000   0.00000   0.00000   0.00000
           D7           0.00000   0.00000   0.00000   0.00000   0.00000
           D8           0.00000   0.00000   0.00000   0.00000   0.00000
           D9           0.00000   0.00000   0.00000   0.00000   0.00000
           D10          0.00000   0.00000   0.00000   0.00000   0.00000
           D11          0.00000   0.00000   0.00000   0.00000   0.00000
           D12          0.00000   0.00000   0.00000   0.00000   0.00000
           D13          0.00000   0.00000   0.00000   0.00000   0.00000
           D14          0.00000   0.00000   0.00000   0.00000   0.00000
           D15          0.00000   0.00000   0.00000   0.00000   0.00000
           D16          0.00000   0.00000   0.00000   0.00000   0.00000
           D17          0.00000   0.00000   0.00000   0.00000   0.00000
           D18          0.00000   0.00000   0.00000   0.00000   0.00000
           D19          0.00000   0.00000   0.00000   0.00000   0.00000
           D20          0.00000   0.00000   0.00000   0.00000   0.00000
           D21          0.00000   0.00000   0.00000   0.00000   0.00000
           D22          0.00000   0.00000   0.00000   0.00000   0.00000
           D23          0.00000   0.00000   0.00000   0.00000   0.00000
           D24          0.00000   0.00000   0.00000   0.00000   0.00000
           D25          0.00000   0.00000   0.00000   0.00000   0.00000
           D26          0.00000   0.00000   0.00000   0.00000   0.00000
                          D1        D2        D3        D4        D5
           D1           0.01906
           D2           0.00000   0.01906
           D3           0.00000   0.00000   0.01906
           D4           0.00000   0.00000   0.00000   0.01906
           D5           0.00000   0.00000   0.00000   0.00000   0.01906
           D6           0.00000   0.00000   0.00000   0.00000   0.00000
           D7           0.00000   0.00000   0.00000   0.00000   0.00000
           D8           0.00000   0.00000   0.00000   0.00000   0.00000
           D9           0.00000   0.00000   0.00000   0.00000   0.00000
           D10          0.00000   0.00000   0.00000   0.00000   0.00000
           D11          0.00000   0.00000   0.00000   0.00000   0.00000
           D12          0.00000   0.00000   0.00000   0.00000   0.00000
           D13          0.00000   0.00000   0.00000   0.00000   0.00000
           D14          0.00000   0.00000   0.00000   0.00000   0.00000
           D15          0.00000   0.00000   0.00000   0.00000   0.00000
           D16          0.00000   0.00000   0.00000   0.00000   0.00000
           D17          0.00000   0.00000   0.00000   0.00000   0.00000
           D18          0.00000   0.00000   0.00000   0.00000   0.00000
           D19          0.00000   0.00000   0.00000   0.00000   0.00000
           D20          0.00000   0.00000   0.00000   0.00000   0.00000
           D21          0.00000   0.00000   0.00000   0.00000   0.00000
           D22          0.00000   0.00000   0.00000   0.00000   0.00000
           D23          0.00000   0.00000   0.00000   0.00000   0.00000
           D24          0.00000   0.00000   0.00000   0.00000   0.00000
           D25          0.00000   0.00000   0.00000   0.00000   0.00000
           D26          0.00000   0.00000   0.00000   0.00000   0.00000
                          D6        D7        D8        D9        D10
           D6           0.01906
           D7           0.00000   0.00230
           D8           0.00000   0.00000   0.00230
           D9           0.00000   0.00000   0.00000   0.00230
           D10          0.00000   0.00000   0.00000   0.00000   0.02178
           D11          0.00000   0.00000   0.00000   0.00000   0.00000
           D12          0.00000   0.00000   0.00000   0.00000   0.00000
           D13          0.00000   0.00000   0.00000   0.00000   0.00000
           D14          0.00000   0.00000   0.00000   0.00000   0.00000
           D15          0.00000   0.00000   0.00000   0.00000   0.00000
           D16          0.00000   0.00000   0.00000   0.00000   0.00000
           D17          0.00000   0.00000   0.00000   0.00000   0.00000
           D18          0.00000   0.00000   0.00000   0.00000   0.00000
           D19          0.00000   0.00000   0.00000   0.00000   0.00000
           D20          0.00000   0.00000   0.00000   0.00000   0.00000
           D21          0.00000   0.00000   0.00000   0.00000   0.00000
           D22          0.00000   0.00000   0.00000   0.00000   0.00000
           D23          0.00000   0.00000   0.00000   0.00000   0.00000
           D24          0.00000   0.00000   0.00000   0.00000   0.00000
           D25          0.00000   0.00000   0.00000   0.00000   0.00000
           D26          0.00000   0.00000   0.00000   0.00000   0.00000
                          D11       D12       D13       D14       D15
           D11          0.02178
           D12          0.00000   0.02178
           D13          0.00000   0.00000   0.02178
           D14          0.00000   0.00000   0.00000   0.02178
           D15          0.00000   0.00000   0.00000   0.00000   0.02178
           D16          0.00000   0.00000   0.00000   0.00000   0.00000
           D17          0.00000   0.00000   0.00000   0.00000   0.00000
           D18          0.00000   0.00000   0.00000   0.00000   0.00000
           D19          0.00000   0.00000   0.00000   0.00000   0.00000
           D20          0.00000   0.00000   0.00000   0.00000   0.00000
           D21          0.00000   0.00000   0.00000   0.00000   0.00000
           D22          0.00000   0.00000   0.00000   0.00000   0.00000
           D23          0.00000   0.00000   0.00000   0.00000   0.00000
           D24          0.00000   0.00000   0.00000   0.00000   0.00000
           D25          0.00000   0.00000   0.00000   0.00000   0.00000
           D26          0.00000   0.00000   0.00000   0.00000   0.00000
                          D16       D17       D18       D19       D20
           D16          0.02178
           D17          0.00000   0.02178
           D18          0.00000   0.00000   0.01906
           D19          0.00000   0.00000   0.00000   0.01906
           D20          0.00000   0.00000   0.00000   0.00000   0.01906
           D21          0.00000   0.00000   0.00000   0.00000   0.00000
           D22          0.00000   0.00000   0.00000   0.00000   0.00000
           D23          0.00000   0.00000   0.00000   0.00000   0.00000
           D24          0.00000   0.00000   0.00000   0.00000   0.00000
           D25          0.00000   0.00000   0.00000   0.00000   0.00000
           D26          0.00000   0.00000   0.00000   0.00000   0.00000
                          D21       D22       D23       D24       D25
           D21          0.01906
           D22          0.00000   0.01906
           D23          0.00000   0.00000   0.01906
           D24          0.00000   0.00000   0.00000   0.00230
           D25          0.00000   0.00000   0.00000   0.00000   0.00230
           D26          0.00000   0.00000   0.00000   0.00000   0.00000
                          D26
           D26          0.00230
 ITU=  0
 Eigenvectors of the second derivative matrix:
                           1         2         3         4         5
     Eigenvalues --     0.00928   0.01888   0.02060   0.02145   0.02263
   1         R1         0.00081   0.00921   0.00002  -0.00740   0.00029
   2         R2         0.00000  -0.00000  -0.00000   0.00000   0.00000
   3         R3        -0.03729   0.00576  -0.00098  -0.00437  -0.01431
   4         R4         0.00000  -0.00000   0.00000  -0.00000  -0.00000
   5         R5         0.00982   0.00410   0.00024  -0.00327   0.00347
   6         R6        -0.00000  -0.00000   0.00000   0.00000  -0.00000
   7         R7         0.00982  -0.00410   0.00024   0.00327   0.00347
   8         R8         0.00000   0.00000  -0.00000   0.00000   0.00000
   9         R9         0.00081  -0.00921   0.00002   0.00740   0.00029
  10         R10        0.00000  -0.00000   0.00000  -0.00000   0.00000
  11         R11       -0.00000  -0.00000   0.00000  -0.00000  -0.00000
  12         R12        0.00000   0.00000  -0.00000   0.00000  -0.00000
  13         R13       -0.03729  -0.00576  -0.00097   0.00438  -0.01431
  14         A1         0.03575  -0.02483   0.00058   0.01797  -0.00887
  15         A2        -0.10205   0.03746  -0.00429  -0.03497   0.02422
  16         A3        -0.00457   0.01424   0.00016  -0.00736   0.00046
  17         A4         0.01619  -0.01142  -0.00363   0.00747  -0.00601
  18         A5         0.01407  -0.00357   0.00139   0.00496  -0.00417
  19         A6         0.02020  -0.00067   0.00541   0.00254   0.00037
  20         A7        -0.02257   0.02677   0.01048  -0.00179   0.01181
  21         A8         0.00989  -0.02140   0.02025   0.04804  -0.04537
  22         A9         0.01275  -0.02090   0.02251   0.05017  -0.04714
  23         A10        0.00808   0.00000   0.00879  -0.00001   0.03962
  24         A11        0.00866  -0.00109   0.01438  -0.00009  -0.01697
  25         A12        0.00866   0.00110   0.01438   0.00009  -0.01697
  26         A13       -0.02257  -0.02677   0.01049   0.00178   0.01182
  27         A14        0.01275   0.02091   0.02249  -0.05016  -0.04716
  28         A15        0.00989   0.02140   0.02023  -0.04803  -0.04538
  29         A16        0.03575   0.02483   0.00057  -0.01796  -0.00888
  30         A17       -0.00457  -0.01424   0.00016   0.00736   0.00046
  31         A18       -0.10204  -0.03746  -0.00427   0.03496   0.02423
  32         A19        0.01407   0.00357   0.00138  -0.00496  -0.00417
  33         A20        0.01619   0.01142  -0.00364  -0.00747  -0.00601
  34         A21        0.02020   0.00067   0.00541  -0.00255   0.00037
  35         A22       -0.05386   0.00000   0.00419  -0.00000   0.00317
  36         D1        -0.02302   0.26962   0.07554  -0.15967   0.19761
  37         D2        -0.02049   0.20016   0.30491   0.25741  -0.15234
  38         D3        -0.05820   0.26896   0.06812  -0.16604   0.20302
  39         D4        -0.05568   0.19950   0.29749   0.25105  -0.14693
  40         D5        -0.09293   0.29148   0.07198  -0.18391   0.21713
  41         D6        -0.09041   0.22202   0.30136   0.23318  -0.13282
  42         D7         0.39099  -0.13109   0.01344   0.07590  -0.02337
  43         D8         0.36416  -0.13963   0.00857   0.07524  -0.01878
  44         D9         0.39660  -0.14676   0.01270   0.08427  -0.02478
  45         D10       -0.08959  -0.17026  -0.13965   0.10707  -0.39336
  46         D11       -0.00683  -0.17000  -0.01699   0.10706  -0.37878
  47         D12       -0.09180  -0.10196  -0.36392  -0.30117  -0.05076
  48         D13       -0.00904  -0.10170  -0.24126  -0.30118  -0.03618
  49         D14        0.08960  -0.17018   0.13973   0.10688   0.39340
  50         D15        0.09180  -0.10184   0.36386  -0.30129   0.05065
  51         D16        0.00684  -0.17000   0.01707   0.10692   0.37883
  52         D17        0.00904  -0.10166   0.24120  -0.30125   0.03608
  53         D18        0.02301   0.26958  -0.07566  -0.15958  -0.19768
  54         D19        0.09292   0.29144  -0.07212  -0.18381  -0.21721
  55         D20        0.05820   0.26892  -0.06825  -0.16594  -0.20309
  56         D21        0.02049   0.20007  -0.30490   0.25745   0.15242
  57         D22        0.09040   0.22193  -0.30135   0.23322   0.13289
  58         D23        0.05567   0.19942  -0.29748   0.25108   0.14701
  59         D24       -0.39099  -0.13110  -0.01338   0.07589   0.02340
  60         D25       -0.36416  -0.13964  -0.00851   0.07523   0.01882
  61         D26       -0.39660  -0.14678  -0.01263   0.08426   0.02481
                           6         7         8         9        10
     Eigenvalues --     0.02347   0.05397   0.05595   0.06969   0.07365
   1         R1        -0.00002   0.01658  -0.00011   0.00085   0.01372
   2         R2        -0.00000  -0.00000  -0.00000   0.00000  -0.00000
   3         R3         0.00121   0.01165   0.00695  -0.06379  -0.01217
   4         R4        -0.00000   0.00000   0.00000   0.00000  -0.00000
   5         R5        -0.00029   0.00721  -0.00129   0.01018   0.00465
   6         R6        -0.00000   0.00000   0.00000   0.00000   0.00000
   7         R7        -0.00029  -0.00721  -0.00129   0.01018  -0.00465
   8         R8        -0.00000  -0.00000  -0.00000  -0.00000   0.00000
   9         R9        -0.00002  -0.01658  -0.00011   0.00085  -0.01372
  10         R10        0.00000   0.00000  -0.00000  -0.00000  -0.00000
  11         R11        0.00000   0.00000   0.00000   0.00000   0.00000
  12         R12        0.00000  -0.00000  -0.00000   0.00000   0.00000
  13         R13        0.00121  -0.01165   0.00695  -0.06380   0.01217
  14         A1        -0.00307  -0.11182  -0.06525  -0.06643   0.14387
  15         A2         0.00547  -0.10607  -0.10989  -0.00108   0.00370
  16         A3         0.00040   0.20065   0.11958  -0.11189   0.04058
  17         A4        -0.00612  -0.19160  -0.24857   0.03676   0.03681
  18         A5        -0.00023   0.16120   0.16411  -0.09862   0.03807
  19         A6         0.00558  -0.00174   0.08873   0.38136  -0.40705
  20         A7        -0.00382   0.06935   0.00152  -0.03868   0.04013
  21         A8        -0.01048  -0.03148  -0.01718   0.00204  -0.00814
  22         A9        -0.00951  -0.02279   0.00165   0.02687  -0.03853
  23         A10        0.04451  -0.00000   0.01092   0.00660   0.00000
  24         A11        0.07074  -0.00994  -0.02796  -0.02177   0.02376
  25         A12        0.07074   0.00994  -0.02796  -0.02177  -0.02376
  26         A13       -0.00381  -0.06936   0.00151  -0.03868  -0.04013
  27         A14       -0.00951   0.02279   0.00165   0.02687   0.03853
  28         A15       -0.01048   0.03148  -0.01717   0.00203   0.00814
  29         A16       -0.00308   0.11183  -0.06523  -0.06643  -0.14387
  30         A17        0.00041  -0.20067   0.11954  -0.11189  -0.04059
  31         A18        0.00548   0.10609  -0.10987  -0.00108  -0.00370
  32         A19       -0.00023  -0.16123   0.16408  -0.09860  -0.03806
  33         A20       -0.00612   0.19165  -0.24854   0.03674  -0.03681
  34         A21        0.00558   0.00174   0.08872   0.38135   0.40706
  35         A22        0.01004  -0.00001   0.09801   0.01690   0.00000
  36         D1         0.12408   0.23192   0.38466  -0.05862   0.04583
  37         D2         0.02162   0.29160   0.32537  -0.09555   0.01172
  38         D3         0.11872  -0.15139  -0.04628  -0.05138   0.17715
  39         D4         0.01626  -0.09171  -0.10556  -0.08830   0.14305
  40         D5         0.12831  -0.18141   0.01330   0.37094  -0.28461
  41         D6         0.02584  -0.12173  -0.04598   0.33402  -0.31871
  42         D7         0.00254   0.04101   0.16725   0.05778  -0.09622
  43         D8        -0.00062  -0.30288  -0.15314  -0.00734   0.11473
  44         D9         0.00116  -0.15749   0.03832   0.11833  -0.08130
  45         D10       -0.22431   0.10954   0.11234   0.09936  -0.11035
  46         D11        0.38310   0.11150  -0.03689  -0.02290  -0.11503
  47         D12       -0.12383   0.05284   0.17319   0.13891  -0.08114
  48         D13        0.48358   0.05481   0.02397   0.01666  -0.08582
  49         D14        0.22433   0.10955  -0.11232  -0.09936  -0.11035
  50         D15        0.12383   0.05286  -0.17318  -0.13891  -0.08115
  51         D16       -0.38308   0.11150   0.03691   0.02290  -0.11503
  52         D17       -0.48358   0.05481  -0.02396  -0.01666  -0.08582
  53         D18       -0.12411   0.23200  -0.38462   0.05861   0.04582
  54         D19       -0.12833  -0.18142  -0.01333  -0.37093  -0.28462
  55         D20       -0.11875  -0.15140   0.04625   0.05138   0.17715
  56         D21       -0.02163   0.29167  -0.32533   0.09553   0.01172
  57         D22       -0.02585  -0.12175   0.04597  -0.33401  -0.31872
  58         D23       -0.01627  -0.09172   0.10554   0.08830   0.14305
  59         D24       -0.00253   0.04104  -0.16724  -0.05778  -0.09622
  60         D25        0.00063  -0.30291   0.15308   0.00735   0.11473
  61         D26       -0.00115  -0.15749  -0.03835  -0.11833  -0.08131
                          11        12        13        14        15
     Eigenvalues --     0.09319   0.11363   0.11470   0.11716   0.13485
   1         R1        -0.01137  -0.00042   0.01090  -0.00007   0.00167
   2         R2         0.00000   0.00000   0.00000   0.00000  -0.00000
   3         R3         0.07862   0.08023  -0.03921   0.01677  -0.67492
   4         R4        -0.00000  -0.00000  -0.00000  -0.00000  -0.00000
   5         R5        -0.00131  -0.00497   0.00335  -0.00089  -0.00070
   6         R6        -0.00000  -0.00000  -0.00000  -0.00000   0.00000
   7         R7         0.00131  -0.00498  -0.00334  -0.00089   0.00071
   8         R8         0.00000   0.00000   0.00000   0.00000   0.00000
   9         R9         0.01137  -0.00042  -0.01090  -0.00008  -0.00167
  10         R10       -0.00000   0.00000   0.00000   0.00000   0.00000
  11         R11       -0.00000   0.00000  -0.00000   0.00000   0.00000
  12         R12        0.00000   0.00000   0.00000   0.00000   0.00000
  13         R13       -0.07863   0.08028   0.03917   0.01679   0.67548
  14         A1         0.23348  -0.31794  -0.25723  -0.31285   0.01913
  15         A2         0.04691   0.00046  -0.02450  -0.02102   0.07062
  16         A3        -0.29512  -0.20664  -0.26685   0.43729  -0.01470
  17         A4        -0.30951   0.19065   0.22229   0.13472  -0.10813
  18         A5         0.16078   0.39578   0.39757  -0.13453   0.00228
  19         A6         0.02583   0.00091  -0.03172   0.03901   0.02073
  20         A7        -0.05649   0.03067   0.04306   0.00584  -0.00757
  21         A8         0.00501   0.01235  -0.00075   0.03827   0.05209
  22         A9         0.03749  -0.03711  -0.04247  -0.03627  -0.04715
  23         A10       -0.00000  -0.01667   0.00001  -0.04156   0.00007
  24         A11       -0.00976   0.01712   0.03045   0.03193   0.08361
  25         A12        0.00976   0.01710  -0.03047   0.03192  -0.08368
  26         A13        0.05649   0.03064  -0.04308   0.00584   0.00764
  27         A14       -0.03749  -0.03708   0.04249  -0.03626   0.04711
  28         A15       -0.00501   0.01235   0.00074   0.03826  -0.05212
  29         A16       -0.23348  -0.31776   0.25748  -0.31284  -0.01902
[...]
 ! D13   D(10,2,3,9)            13.4222         -DE/DX =    0.0                 !
 ! D14   D(2,3,4,5)            -17.1503         -DE/DX =    0.0                 !
 ! D15   D(2,3,4,8)            153.3319         -DE/DX =    0.0                 !
 ! D16   D(9,3,4,5)            176.093          -DE/DX =    0.0                 !
 ! D17   D(9,3,4,8)            -13.4248         -DE/DX =    0.0                 !
 ! D18   D(3,4,5,6)            159.9686         -DE/DX =    0.0                 !
 ! D19   D(3,4,5,7)            -60.6388         -DE/DX =    0.0                 !
 ! D20   D(3,4,5,12)            31.9423         -DE/DX =    0.0                 !
 ! D21   D(8,4,5,6)            -10.3667         -DE/DX =    0.0                 !
 ! D22   D(8,4,5,7)            129.0259         -DE/DX =    0.0                 !
 ! D23   D(8,4,5,12)          -138.393          -DE/DX =    0.0                 !
 ! D24   D(4,5,12,1)           -59.1973         -DE/DX =    0.0                 !
 ! D25   D(6,5,12,1)           171.7009         -DE/DX =    0.0                 !
 ! D26   D(7,5,12,1)            59.2714         -DE/DX =    0.0                 !
 --------------------------------------------------------------------------------
 GradGradGradGradGradGradGradGradGradGradGradGradGradGradGradGradGradGrad

 Leave Link  103 at Wed Oct 21 14:33:57 2020, MaxMem=  2684354560 cpu:              31.3 elap:               3.9
 (Enter /udrive/faculty/rpeverati/g16/g16/l9999.exe)

 ----------------------------------------------------------------------

 Electric dipole moment (input orientation):
 (Debye = 10**-18 statcoulomb cm , SI units = C m)
                  (au)            (Debye)         (10**-30 SI)
   Tot        0.107654D+00      0.273629D+00      0.912728D+00
   x          0.202302D-04      0.514201D-04      0.171519D-03
   y         -0.960092D-01     -0.244031D+00     -0.814000D+00
   z         -0.486991D-01     -0.123781D+00     -0.412888D+00

 Dipole polarizability, Alpha (input orientation).
 (esu units = cm**3 , SI units = C**2 m**2 J**-1)
 Alpha(0;0):
               (au)            (10**-24 esu)      (10**-40 SI)
   iso        0.466809D+02      0.691739D+01      0.769664D+01
   aniso      0.451761D+02      0.669441D+01      0.744854D+01
   xx         0.665390D+02      0.986006D+01      0.109708D+02
   yx         0.323579D-03      0.479494D-04      0.533510D-04
   yy         0.563211D+02      0.834593D+01      0.928610D+01
   zx        -0.827175D-02     -0.122575D-02     -0.136383D-02
   zy         0.125606D+01      0.186128D+00      0.207096D+00
   zz         0.171825D+02      0.254619D+01      0.283301D+01

 First dipole hyperpolarizability, Beta (input orientation).
 ||, _|_  parallel and perpendicular components, (z) with respect to z axis,
 vector components x,y,z.  Values do not include the 1/n! factor of 1/2.
 (esu units = statvolt**-1 cm**4 , SI units = C**3 m**3 J**-2)
 Beta(0;0,0):
               (au)            (10**-30 esu)      (10**-50 SI)
   || (z)    -0.351217D+01     -0.303424D-01     -0.112613D-01
   _|_(z)    -0.117072D+01     -0.101141D-01     -0.375376D-02
   x          0.133355D+00      0.115208D-02      0.427583D-03
   y         -0.192239D+01     -0.166079D-01     -0.616386D-02
   z         -0.175608D+02     -0.151712D+00     -0.563064D-01
   ||         0.353325D+01      0.305245D-01      0.113289D-01
   xxx        0.163667D-01      0.141395D-03      0.524775D-04
   xxy       -0.245842D+02     -0.212389D+00     -0.788259D-01
   yxy        0.212371D-01      0.183472D-03      0.680937D-04
   yyy        0.342778D+02      0.296133D+00      0.109907D+00
   xxz       -0.218460D+02     -0.188733D+00     -0.700463D-01
   yxz        0.840370D-02      0.726014D-04      0.269453D-04
   yyz        0.175842D+01      0.151914D-01      0.563812D-02
   zxz        0.684777D-02      0.591594D-04      0.219564D-04
   zyz       -0.103343D+02     -0.892805D-01     -0.331356D-01
   zzz        0.142340D+02      0.122971D+00      0.456394D-01

 ----------------------------------------------------------------------

 Dipole orientation:
     6         -2.42417295          0.70865193          1.52711815
     6         -2.28110924         -0.52650756         -0.81742354
     6          0.00064779         -0.82550892         -2.08503291
     6          2.28162665         -0.52759097         -0.81570267
     6          2.42345790          0.70771632          1.52876081
     1          4.07502419          0.34567344          2.70633727
     1          1.82638838          2.69242852          1.64158647
     1          3.93711521         -1.54186181         -1.53920922
     1          0.00118384         -1.69355980         -3.96450489
     1         -3.93657923         -1.53992061         -1.54218555
     1         -4.07677976          0.34705811          2.70336430
     1         -0.00089718          0.08103804          2.63136877
     1         -1.82651757          2.69315143          1.64047459

 Electric dipole moment (dipole orientation):
 (Debye = 10**-18 statcoulomb cm , SI units = C m)
                  (au)            (Debye)         (10**-30 SI)
   Tot        0.107654D+00      0.273629D+00      0.912728D+00
   x          0.000000D+00      0.000000D+00      0.000000D+00
   y          0.000000D+00      0.000000D+00      0.000000D+00
   z          0.107654D+00      0.273629D+00      0.912728D+00

 Dipole polarizability, Alpha (dipole orientation).
 (esu units = cm**3 , SI units = C**2 m**2 J**-1)
 Alpha(0;0):
               (au)            (10**-24 esu)      (10**-40 SI)
   iso        0.466809D+02      0.691739D+01      0.769664D+01
   aniso      0.451761D+02      0.669441D+01      0.744854D+01
   xx         0.665390D+02      0.986006D+01      0.109708D+02
   yx        -0.152393D-01     -0.225823D-02     -0.251262D-02
   yy         0.241782D+02      0.358284D+01      0.398645D+01
   zx         0.842446D-02      0.124838D-02      0.138901D-02
   zy         0.150479D+02      0.222987D+01      0.248107D+01
   zz         0.493254D+02      0.730928D+01      0.813267D+01

 First dipole hyperpolarizability, Beta (dipole orientation).
 ||, _|_  parallel and perpendicular components, (z) with respect to z axis,
 vector components x,y,z.  Values do not include the 1/n! factor of 1/2.
 (esu units = statvolt**-1 cm**4 , SI units = C**3 m**3 J**-2)
 Beta(0;0,0):
               (au)            (10**-30 esu)      (10**-50 SI)
   || (z)     0.193168D+01      0.166882D-01      0.619368D-02
   _|_(z)     0.643895D+00      0.556275D-02      0.206456D-02
   x          0.129833D+00      0.112165D-02      0.416291D-03
   y         -0.147917D+02     -0.127789D+00     -0.474276D-01
   z          0.965842D+01      0.834412D-01      0.309684D-01
   ||         0.353325D+01      0.305245D-01      0.113289D-01
   xxx       -0.445970D-02     -0.385283D-04     -0.142994D-04
   xxy       -0.836190D+01     -0.722403D-01     -0.268113D-01
   yxy        0.840072D-02      0.725757D-04      0.269357D-04
   yyy        0.190410D+02      0.164499D+00      0.610523D-01
   xxz        0.318074D+02      0.274791D+00      0.101986D+00
   yxz       -0.224247D-02     -0.193732D-04     -0.719017D-05
   yyz       -0.671610D+01     -0.580219D-01     -0.215342D-01
   zxz        0.393366D-01      0.339837D-03      0.126127D-03
   zyz       -0.156097D+02     -0.134855D+00     -0.500503D-01
   zzz       -0.218718D+02     -0.188956D+00     -0.701290D-01

 ----------------------------------------------------------------------

 Test job not archived.
 1\1\GINC-NODE51\Freq\RPM3\ZDO\C5H8\RPEVERATI\21-Oct-2020\0\\#P Freq PM
 3 5D 7F Integral=UltraFineGrid SCF=(NoSymm,XQC,MaxCyc=120) IOp(1/33=1)
  Geom=Check Guess=Read\\TS search on BH76.\\0,1\C,-1.2827084613,-0.890
 4904649,-0.0313672023\C,-1.2071601308,0.5116698135,-0.0530284369\C,0.0
 001858639,1.1816166271,0.1095320419\C,1.2073358988,0.5113956375,-0.053
 4979557\C,1.2825474684,-0.8907457194,-0.0317199149\H,2.1566578989,-1.3
 597201152,-0.4843082228\H,0.9664819211,-1.4191340105,0.8778714347\H,2.
 0833726826,1.0957448775,-0.3588105605\H,0.0003356341,2.2764052333,0.14
 97792759\H,-2.0832072925,1.0962040386,-0.3579649358\H,-2.1570912516,-1
 .3591463003,-0.4837537038\H,-0.0002180474,-1.2612395253,-0.591658645\H
 ,-0.9665527677,-1.4190053856,0.8781155086\\Version=ES64L-G16RevA.03\St
 ate=1-A\HF=0.0918788\RMSD=1.314e-09\RMSF=1.457e-05\ZeroPoint=0.1080593
 \Thermal=0.1129172\Dipole=0.0000202,-0.0960092,-0.0486991\DipoleDeriv=
 0.0143007,0.0321072,0.0109873,-0.2101618,-0.3064413,0.0145481,-0.07772
 03,-0.1316771,-0.1497095,0.1282329,0.0530004,0.0204523,0.4024172,0.065
 961,-0.0365897,0.108557,-0.0034551,-0.1103901,-0.5748968,0.0000306,0.0
 000375,0.0000588,-0.0954603,0.0198925,0.0000557,0.036348,-0.2491675,0.
 1280959,-0.0530074,-0.0205287,-0.4024762,0.0659972,-0.0364863,-0.10862
 94,-0.0034343,-0.1103372,0.0143938,-0.0322059,-0.0110336,0.2100819,-0.
 3064553,0.0144893,0.0776054,-0.131663,-0.1497284,0.0435519,0.0391921,0
 .042156,-0.0258166,0.0572974,0.0308982,-0.0263893,0.0850999,0.0623427,
 -0.0279273,0.0743981,0.0044892,-0.009171,0.078016,0.0013011,0.0028448,
 0.0122441,0.0732919,0.0934187,0.048021,0.0164268,0.0469782,0.0544427,-
 0.0057211,-0.0153174,-0.0014033,0.1276869,0.0231267,0.000018,0.0000237
 ,0.0000174,0.1259453,-0.0024025,0.0000343,0.0269165,0.138637,0.0933957
 ,-0.0480208,-0.0164166,-0.0469832,0.0544503,-0.0057075,0.0153183,-0.00
 13822,0.1276853,0.0435317,-0.03916,-0.0421359,0.0258315,0.0572878,0.03
 08922,0.0264317,0.0850933,0.0623495,0.0487204,0.,0.000003,0.0000247,0.
 0709055,-0.0264186,0.0000196,0.015037,0.1040534,-0.0279535,-0.0743732,
 -0.004461,0.009199,0.0780335,0.001304,-0.0028103,0.0122825,0.0732825\P
 olar=66.5389784,0.0003236,56.3211395,-0.0082718,1.2560552,17.1825125\H
 yperPolar=0.0163667,-24.5842259,0.0212371,34.2777528,-21.8460449,0.008
 4037,1.7584167,0.0068478,-10.3343221,14.234014\PG=C01 [X(C5H8)]\NImag=
 1\\0.35310090,0.17991412,0.64966376,0.19852660,-0.10688524,0.35915239,
 -0.11539134,0.03735409,0.00917682,0.71915162,-0.10815248,-0.39287802,0
 .05305775,0.03285494,0.72221317,-0.01489770,0.02523768,-0.06775197,0.1
 1109656,-0.03751801,0.18263222,0.06901285,-0.12599923,-0.04056788,-0.3
 3096477,-0.05124073,-0.04276861,0.75037819,-0.03405469,-0.03763679,-0.
 00772295,-0.18814877,-0.18529739,-0.02543009,0.00003052,0.74818573,0.0
 0005534,-0.00924103,0.00873996,-0.04632748,-0.01565099,-0.07722047,-0.
 00010396,0.06646338,0.15969112,-0.04098803,0.04586814,0.01983046,-0.10
 102081,-0.05765234,-0.00325244,-0.33084177,0.18815444,0.04642036,0.719
 00981,0.06374541,-0.08544171,-0.03634626,0.05770276,0.11255782,0.00649
 913,0.05124577,-0.18533018,-0.01567972,-0.03284394,0.72229185,0.007188
 72,-0.00824817,-0.00616272,0.00329504,0.00651831,0.01196406,0.04286084
 ,-0.02550987,-0.07725444,-0.11131651,-0.03753786,0.18272193,-0.0929019
 0,0.07125174,0.03895366,-0.04102178,-0.06376699,-0.00717984,0.06906589
 ,0.03402795,-0.00008122,-0.11537741,0.10811814,0.01491741,0.35288663,-
 0.07120421,0.07752720,0.03784742,-0.04588232,-0.08541807,-0.00823143,0
 .12598285,-0.03768369,-0.00928523,-0.03741485,-0.39296969,0.02529213,-
 0.17990590,0.64982711,-0.03891079,0.03783148,0.01836093,-0.01982642,-0
 .03631970,-0.00615300,0.04054611,-0.00774529,0.00872688,-0.00914873,0.
 05307538,-0.06775511,-0.19854128,-0.10681771,0.35925119,-0.00015040,-0
 .00028589,0.00088295,-0.00018125,0.00029235,-0.00018006,0.00129594,-0.
 00060321,0.00295788,0.00331331,0.00497753,-0.00009358,-0.21914708,0.09
 436027,0.09601493,0.22578468,0.00053897,-0.00062881,0.00019665,0.00001
 173,0.00098839,0.00001530,-0.00096351,-0.00297718,0.00070204,0.0234518
 3,-0.01384558,-0.00997912,0.08924980,-0.08604548,-0.04556153,-0.103299
 48,0.09785592,0.00098097,-0.00039817,0.00106719,-0.00023032,0.00086637
 ,-0.00002324,0.00107667,0.00010718,0.00341175,-0.00026887,0.00126469,0
 .00333510,0.09192631,-0.04874527,-0.08569142,-0.11004754,0.05058507,0.
 08842653,0.00497559,-0.01149134,-0.01316416,0.00769593,0.01591744,0.00
 193823,-0.01918969,0.00073992,-0.00213659,0.01444575,-0.02463127,-0.00
 117642,-0.03449723,-0.00712730,0.06909868,-0.00793915,-0.00682996,0.02
 060706,0.06074922,0.00610701,-0.00441357,-0.00273819,0.00323477,0.0059
 7979,0.00152280,-0.00764122,-0.00070173,-0.00078622,-0.00346382,-0.025
 78705,0.01957854,-0.02642684,-0.08365490,0.10365728,0.00240397,0.00524
 826,-0.00481618,0.03185862,0.10372061,0.00632261,-0.00904201,-0.005131
 41,0.00538428,0.01032237,0.00103448,-0.01212347,0.00034847,-0.00050868
 ,0.00531232,-0.01122407,0.00262861,0.08429854,0.12129867,-0.20990695,0
 .00959692,0.00397614,-0.01176293,-0.06608116,-0.11850936,0.24323696,0.
 00182351,-0.00217349,-0.00067198,0.00075499,0.00373005,0.00153170,-0.0
 2405199,-0.00712482,0.00725793,-0.20404284,-0.11647954,0.05939830,0.00
 612248,0.00187141,0.00184908,0.00001072,-0.00019731,-0.00057117,0.0000
 8504,0.00044298,0.00008155,0.22423140,0.00036389,-0.00039645,-0.000102
 19,0.00157293,-0.00071298,0.00081889,0.00961091,0.00866276,-0.00246023
 ,-0.11341941,-0.11471646,0.03617972,-0.01734910,-0.01681901,0.00945578
 ,0.00012400,-0.00189361,-0.00033659,-0.00009837,-0.00162557,-0.0007287
 8,0.11850637,0.12815273,0.00594116,-0.00805886,-0.00361638,0.00667532,
 0.00777137,0.00540790,-0.00890565,0.00492938,0.00552944,0.06804273,0.0
 2455719,-0.06297923,0.00982770,0.01304699,0.01289163,-0.00164380,-0.00
 084474,-0.00144616,0.00074685,-0.00014897,-0.00007949,-0.06891352,-0.0
 4227573,0.04428498,-0.00246871,-0.00030676,-0.00089677,-0.00165510,-0.
 02429260,-0.00030734,-0.03826723,-0.00003568,-0.00000102,-0.00164827,0
 .02428922,0.00030960,-0.00246796,0.00030775,0.00089947,0.00008272,0.00
 038312,-0.00003610,0.00007544,-0.00008284,0.00002475,-0.00143971,0.001
 04169,0.00037377,0.04897876,-0.00077921,0.00019151,-0.00038653,-0.0047
 4781,-0.01201020,-0.00111609,-0.00003613,-0.30524865,-0.00960569,0.004
 74490,-0.01201710,-0.00111791,0.00077985,0.00019113,-0.00038706,-0.000
 01385,-0.00012306,-0.00001285,-0.00008539,0.00005421,-0.00003671,0.001
 22716,-0.00009834,-0.00007767,0.00003813,0.32907824,-0.00078151,-0.000
 02005,0.00450399,0.00044300,-0.00107057,0.00572695,0.00000076,-0.00890
 484,-0.03938815,-0.00044241,-0.00107670,0.00572777,0.00078214,-0.00002
 258,0.00450073,-0.00001589,0.00015968,-0.00007486,0.00012335,-0.000514
 76,-0.00011903,0.00002602,-0.00071052,-0.00189014,-0.00000361,0.012826
 20,0.02309875,0.00612123,-0.00187118,-0.00184461,-0.20404556,0.1165078
 5,-0.05932727,-0.02405271,0.00713429,-0.00724580,0.00075085,-0.0037277
 0,-0.00153012,0.00182216,0.00217031,0.00067029,0.00010157,0.00003504,0
 .00017025,-0.00050184,-0.00019208,-0.00031309,-0.00007448,0.00013860,0
 .00013144,-0.00144025,-0.00122681,-0.00002597,0.22423742,0.01734822,-0
 .01682410,0.00944604,0.11345389,-0.11476302,0.03614285,-0.00960610,0.0
 0866309,-0.00245423,-0.00157245,-0.00071239,0.00081955,-0.00036401,-0.
 00039627,-0.00010190,-0.00006374,-0.00004809,-0.00011169,0.00010568,0.
 00005785,0.00001762,-0.00013848,0.00019800,0.00024496,-0.00104161,-0.0
 0009779,-0.00071000,-0.11854373,0.12820336,-0.00982168,0.01304812,0.01
 289703,-0.06797662,0.02452075,-0.06292549,0.00892013,0.00492414,0.0055
 2950,-0.00667270,0.00777573,0.00541263,-0.00594611,-0.00806007,-0.0036
 1548,-0.00022747,0.00000599,-0.00020387,0.00184484,0.00074320,0.001081
 73,-0.00013113,0.00024508,0.00084828,-0.00037386,-0.00007702,-0.001891
 20,0.06882544,-0.04223586,0.04422475,-0.21926201,-0.09432350,-0.096001
 07,0.00330489,-0.00498350,0.00009072,0.00129639,0.00060263,-0.00295621
 ,-0.00018231,-0.00029036,0.00018032,-0.00015243,0.00028412,-0.00088332
 ,0.00008643,0.00007126,0.00019666,-0.00060005,0.00000221,0.00005973,0.
 00010167,0.00006369,0.00022747,0.00008269,0.00001381,0.00001580,0.0000
 1187,-0.00012471,0.00164246,0.22591212,-0.08921434,-0.08598020,-0.0455
 0857,-0.02345882,-0.01383649,-0.00997378,0.00096247,-0.00297773,0.0007
 0163,-0.00001119,0.00098811,0.00001513,-0.00053854,-0.00062832,0.00019
 725,-0.00007131,-0.00002524,-0.00012651,0.00047759,0.00006690,0.000031
 58,-0.00003507,-0.00004809,0.00000594,-0.00038311,-0.00012297,0.000159
 97,0.00019642,-0.00189406,-0.00084520,0.10326470,0.09778370,-0.0919114
 3,-0.04869271,-0.08564841,0.00026754,0.00126616,0.00333365,-0.00107733
 ,0.00010637,0.00341178,0.00023185,0.00086491,-0.00002357,-0.00097936,-
 0.00039647,0.00106854,-0.00019679,-0.00012650,-0.00019577,0.00070152,-
 0.00005366,0.00010871,-0.00017043,-0.00011169,-0.00020395,0.00003594,-
 0.00001289,-0.00007481,0.00057017,-0.00033686,-0.00144599,0.11003336,0
 .05052486,0.08837303,0.07065561,-0.10508803,-0.04510822,0.04892473,0.1
 1616960,0.01207752,-0.10449993,0.00001256,0.00001859,0.04889297,-0.116
 19115,-0.01209343,0.07068813,0.10507132,0.04507310,-0.00265690,-0.0019
 7410,-0.00310244,-0.02847396,-0.00647438,-0.02881792,-0.00301851,-0.00
 044933,-0.01065980,0.00009224,-0.00000002,0.00000141,-0.00301470,0.000
 44891,0.01066261,-0.00265530,0.00197487,0.00310323,-0.06647474,0.00894
 288,-0.01950698,-0.00453871,0.01259447,-0.01102871,-0.00754248,0.00000
 935,-0.00695471,-0.00191515,-0.01260612,-0.01100151,-0.00753339,-0.008
 96647,-0.01951602,-0.00454658,0.00218166,0.00142751,0.00177745,0.00139
 600,0.00154508,0.00247746,0.00017819,-0.00076055,0.00010668,0.00000009
 ,0.00014852,0.00040008,-0.00017784,-0.00076100,0.00010458,-0.00218061,
 0.00142773,0.00177777,0.00001914,0.06343653,0.02161672,-0.00685769,-0.
 02654953,0.00333897,-0.00253378,0.00134145,0.00001391,-0.00191102,-0.0
 0015237,-0.00335122,-0.00250053,0.00134616,-0.02164918,-0.00688249,-0.
 02654539,0.00301092,0.00083872,0.00304827,-0.01624638,0.00099774,-0.02
 054156,-0.00000009,0.00000853,0.00017077,0.,0.00004092,-0.00000022,0.0
 0000093,0.00000832,0.00016790,-0.00301053,0.00083938,0.00304973,0.0000
 2448,0.01695866,0.08522124,-0.03452611,0.00715012,-0.06911650,0.014449
 83,0.02461750,0.00117860,-0.01918415,-0.00073513,0.00214219,0.00769015
 ,-0.01591594,-0.00194022,0.00498167,0.01148777,0.01315957,-0.00060053,
 -0.00047745,-0.00070146,0.00317474,0.00023146,-0.00374524,-0.00050241,
 -0.00010569,-0.00184400,0.00007541,0.00008536,-0.00012308,0.00008429,0
 .00009793,-0.00074559,-0.00794390,0.00683641,-0.02060828,-0.02846123,-
 0.00139073,0.01625147,0.06076202,0.02644519,-0.08367722,0.10367914,0.0
 0345759,-0.02579380,0.01957675,0.00764504,-0.00070333,-0.00078928,-0.0
 0323463,0.00598433,0.00152448,-0.00611037,-0.00441535,-0.00273902,-0.0
 0000203,0.00006699,-0.00005345,-0.00023159,-0.00048949,0.00106893,0.00
 019244,0.00005788,0.00074342,0.00008260,0.00005417,-0.00051526,-0.0004
 4305,-0.00162528,-0.00014948,-0.00239999,0.00524670,-0.00480924,0.0064
 8059,0.00154446,0.00099294,-0.03188163,0.10375033,-0.08430874,0.121326
 13,-0.20986097,-0.00531726,-0.01122955,0.00263161,0.01212848,0.0003453
 2,-0.00051329,-0.00538426,0.01032856,0.00103698,-0.00632902,-0.0090444
 8,-0.00513247,-0.00005937,0.00003177,0.00010904,0.00374472,0.00106820,
 -0.00003983,0.00031358,0.00001766,0.00108194,-0.00002482,-0.00003672,-
 0.00011941,-0.00008152,-0.00072887,-0.00008020,-0.00959447,0.00397777,
 -0.01175329,0.02882088,0.00247402,-0.02055608,0.06609200,-0.11852950,0
 .24319658\\-0.00002751,0.00000679,-0.00000115,-0.00003735,-0.00002343,
 0.00001512,0.00000635,0.00002856,-0.00002842,0.00003661,-0.00002353,0.
 00000841,-0.00000163,0.00001393,-0.00000887,-0.00000089,-0.00000263,-0
 .00000119,0.00001093,-0.00000835,0.00001310,0.00000409,0.00000156,-0.0
 0000393,0.00000178,0.00000564,0.00001397,-0.00000538,-0.00000099,-0.00
 000803,0.00000056,0.00000110,-0.00000214,0.00001840,0.00000931,-0.0000
 0646,-0.00000597,-0.00000797,0.00000961\\\@


 STEINBACH'S GUIDELINES FOR SYSTEMS PROGRAMMING:
 NEVER TEST FOR AN ERROR CONDITION YOU DON'T KNOW HOW
 TO HANDLE.
 Job cpu time:       0 days  0 hours  3 minutes 21.2 seconds.
 Elapsed time:       0 days  0 hours  0 minutes 41.8 seconds.
 File lengths (MBytes):  RWF=     10 Int=      0 D2E=      0 Chk=      2 Scr=      1
 Normal termination of Gaussian 16 at Wed Oct 21 14:34:01 2020.
