 Entering Gaussian System, Link 0=g16
 Input=MN_91_RKT17_BH76_PM3_SE.in
 Output=MN_91_RKT17_BH76_PM3_SE.log
 Initial command:
 /udrive/faculty/rpeverati/g16/g16/l1.exe "/udrive/scratch-directories/gaussian09/rpeverati/Gau-770.inp" -scrdir="/udrive/scratch-directories/gaussian09/rpeverati/"
 Entering Link 1 = /udrive/faculty/rpeverati/g16/g16/l1.exe PID=       784.
  
 Copyright (c) 1988,1990,1992,1993,1995,1998,2003,2009,2016,
            Gaussian, Inc.  All Rights Reserved.
  
 This is part of the Gaussian(R) 16 program.  It is based on
 the Gaussian(R) 09 system (copyright 2009, Gaussian, Inc.),
 the Gaussian(R) 03 system (copyright 2003, Gaussian, Inc.),
 the Gaussian(R) 98 system (copyright 1998, Gaussian, Inc.),
 the Gaussian(R) 94 system (copyright 1995, Gaussian, Inc.),
 the Gaussian 92(TM) system (copyright 1992, Gaussian, Inc.),
 the Gaussian 90(TM) system (copyright 1990, Gaussian, Inc.),
 the Gaussian 88(TM) system (copyright 1988, Gaussian, Inc.),
 the Gaussian 86(TM) system (copyright 1986, Carnegie Mellon
 University), and the Gaussian 82(TM) system (copyright 1983,
 Carnegie Mellon University). Gaussian is a federally registered
 trademark of Gaussian, Inc.
  
 This software contains proprietary and confidential information,
 including trade secrets, belonging to Gaussian, Inc.
  
 This software is provided under written license and may be
 used, copied, transmitted, or stored only in accord with that
 written license.
  
 The following legend is applicable only to US Government
 contracts under FAR:
  
                    RESTRICTED RIGHTS LEGEND
  
 Use, reproduction and disclosure by the US Government is
 subject to restrictions as set forth in subparagraphs (a)
 and (c) of the Commercial Computer Software - Restricted
 Rights clause in FAR 52.227-19.
  
 Gaussian, Inc.
 340 Quinnipiac St., Bldg. 40, Wallingford CT 06492
  
  
 ---------------------------------------------------------------
 Warning -- This program may not be used in any manner that
 competes with the business of Gaussian, Inc. or will provide
 assistance to any competitor of Gaussian, Inc.  The licensee
 of this program is prohibited from giving any competitor of
 Gaussian, Inc. access to this program.  By using this program,
 the user acknowledges that Gaussian, Inc. is engaged in the
 business of creating and licensing software in the field of
 computational chemistry and represents and warrants to the
 licensee that it is not a competitor of Gaussian, Inc. and that
 it will not use this program in any manner prohibited above.
 ---------------------------------------------------------------
  

 Cite this work as:
 Gaussian 16, Revision A.03,
 M. J. Frisch, G. W. Trucks, H. B. Schlegel, G. E. Scuseria, 
 M. A. Robb, J. R. Cheeseman, G. Scalmani, V. Barone, 
 G. A. Petersson, H. Nakatsuji, X. Li, M. Caricato, A. V. Marenich, 
 J. Bloino, B. G. Janesko, R. Gomperts, B. Mennucci, H. P. Hratchian, 
 J. V. Ortiz, A. F. Izmaylov, J. L. Sonnenberg, D. Williams-Young, 
 F. Ding, F. Lipparini, F. Egidi, J. Goings, B. Peng, A. Petrone, 
 T. Henderson, D. Ranasinghe, V. G. Zakrzewski, J. Gao, N. Rega, 
 G. Zheng, W. Liang, M. Hada, M. Ehara, K. Toyota, R. Fukuda, 
 J. Hasegawa, M. Ishida, T. Nakajima, Y. Honda, O. Kitao, H. Nakai, 
 T. Vreven, K. Throssell, J. A. Montgomery, Jr., J. E. Peralta, 
 F. Ogliaro, M. J. Bearpark, J. J. Heyd, E. N. Brothers, K. N. Kudin, 
 V. N. Staroverov, T. A. Keith, R. Kobayashi, J. Normand, 
 K. Raghavachari, A. P. Rendell, J. C. Burant, S. S. Iyengar, 
 J. Tomasi, M. Cossi, J. M. Millam, M. Klene, C. Adamo, R. Cammi, 
 J. W. Ochterski, R. L. Martin, K. Morokuma, O. Farkas, 
 J. B. Foresman, and D. J. Fox, Gaussian, Inc., Wallingford CT, 2016.
 
 ******************************************
 Gaussian 16:  ES64L-G16RevA.03 25-Dec-2016
                28-Oct-2020 
 ******************************************
 %NoSave
 %nproc=12
 Will use up to   12 processors via shared memory.
 %mem=20GB
 %chk=MN_91_RKT17_BH76_PM3_SE
 ----------------------------------------------------------------------
 #P Opt(TS,MaxCyc=50,NoEigenTest,MaxStep=10,AddRedundant) PM3 5D 7F Int
 egral=UltraFineGrid SCF=(NoSymm,MaxCyc=120) IOp(1/33=1)
 ----------------------------------------------------------------------
 1/5=1,6=50,8=10,11=1,18=120,26=1,33=1,38=1/1,3;
 2/9=110,12=2,17=6,18=5,40=1/2;
 3/5=2,8=11,25=1,41=800000,71=1,75=-5/1,2,3;
 4/9=2,35=1/1;
 5/5=2,7=120,35=1,38=5/2;
 6/7=2,8=2,9=2,10=2,28=1/1;
 7//1,2,3,16;
 1/5=1,6=50,8=10,11=1,18=20,26=1,33=1/3(2);
 2/9=110/2;
 99//99;
 2/9=110/2;
 3/5=2,8=11,25=1,41=800000,71=1,75=-5,135=20/1,2,3;
 4/5=5,9=2,16=3,35=1/1;
 5/5=2,7=120,35=1,38=5/2;
 7//1,2,3,16;
 1/5=1,6=50,8=10,11=1,18=20,26=1,33=1/3(-5);
 2/9=110/2;
 6/7=2,8=2,9=2,10=2,19=2,28=1/1;
 99/9=1/99;
 Leave Link    1 at Wed Oct 28 15:31:41 2020, MaxMem=  2684354560 cpu:               2.8 elap:               0.3
 (Enter /udrive/faculty/rpeverati/g16/g16/l101.exe)
 ONIOM results not found on unit 2.
 ------------------
 TS search on BH76.
 ------------------
 TstMul:  ICh=     0
 TstMul:  Mul=     3
 TstMul:  ICh=     0
 TstMul:  Mul=     3
 Symbolic Z-matrix:
 Charge =  0 Multiplicity = 3
 Cl                    0.01882  -0.8173    0. 
 H                    -0.47049   0.56948   0. 
 O                     0.01882   1.66558   0. 
 
 RdStrC is calling ZToCFu for IStruc=1 NZ=     3.
 PrtBox:  NBox=     1 Levels=  1 BoxLen=    8.00 SMaxX=        4.69
          Shift=            0.889094            1.544480            0.000000
 Box      1 Number                   0 centers from      1 to      3:
 After GenITR:
 ITRead=  0  0  0
 MicOpt= -1 -1 -1
 Add virtual bond connecting atoms O3         and H2         Dist= 2.27D+00.
 The following ModRedundant input section has been read:
 B       1       2 D                                                           
 B       2       3 D                                                           
 A       1       2       3 D                                                   
 
 ITRead=  0  0  0
 MicOpt= -1 -1 -1
 NAtoms=      3 NQM=        3 NQMF=       0 NMMI=      0 NMMIF=      0
                NMic=       0 NMicF=      0.
                    Isotopes and Nuclear Properties:
 (Nuclear quadrupole moments (NQMom) in fm**2, nuclear magnetic moments (NMagM)
  in nuclear magnetons)

  Atom         1           2           3
 IAtWgt=          35           1          16
 AtmWgt=  34.9688527   1.0078250  15.9949146
 NucSpn=           3           1           0
 AtZEff=   0.0000000   0.0000000   0.0000000
 NQMom=   -8.1650000   0.0000000   0.0000000
 NMagM=    0.8218740   2.7928460   0.0000000
 AtZNuc=  17.0000000   1.0000000   8.0000000
 No MM parameters found.
 Leave Link  101 at Wed Oct 28 15:31:43 2020, MaxMem=  2684354560 cpu:              14.6 elap:               1.2
 (Enter /udrive/faculty/rpeverati/g16/g16/l103.exe)

 GradGradGradGradGradGradGradGradGradGradGradGradGradGradGradGradGradGrad
 Berny optimization.
 Optmz: redundant internal coordinate code flag= 1
 Initialization pass.
                           ----------------------------
                           !    Initial Parameters    !
                           ! (Angstroms and Degrees)  !
 --------------------------                            --------------------------
 ! Name  Definition              Value          Derivative Info.                !
 --------------------------------------------------------------------------------
 ! R1    R(1,2)                  1.4706         calc D2E/DXDY, step=    0.0026  !
 ! R2    R(2,3)                  1.2004         calc D2E/DXDY, step=    0.0026  !
 ! A1    A(1,2,3)              136.5089         calc D2E/DXDY, step=    0.2865  !
 --------------------------------------------------------------------------------
 Maximum allowed force set to 1.00D+20.
 Trust Radius=1.00D-01 FncErr=1.00D-07 GrdErr=1.00D-07 EigMax=2.50D+02 EigMin=1.00D-04
 Number of steps in this run=     50 maximum allowed number of steps=    100.
 Search for a saddle point of order  1.
 GradGradGradGradGradGradGradGradGradGradGradGradGradGradGradGradGradGrad

 Leave Link  103 at Wed Oct 28 15:31:43 2020, MaxMem=  2684354560 cpu:               0.3 elap:               0.1
 (Enter /udrive/faculty/rpeverati/g16/g16/l202.exe)
                          Input orientation:                          
 ---------------------------------------------------------------------
 Center     Atomic      Atomic             Coordinates (Angstroms)
 Number     Number       Type             X           Y           Z
 ---------------------------------------------------------------------
      1         17           0        0.018820   -0.817304    0.000000
      2          1           0       -0.470488    0.569479    0.000000
      3          8           0        0.018820    1.665580    0.000000
 ---------------------------------------------------------------------
                    Distance matrix (angstroms):
                    1          2          3
     1  Cl   0.000000
     2  H    1.470575   0.000000
     3  O    2.482884   1.200358   0.000000
 Stoichiometry    ClHO(3)
 Framework group  CS[SG(ClHO)]
 Deg. of freedom     3
 Full point group                 CS      NOp   2
 Largest Abelian subgroup         CS      NOp   2
 Largest concise Abelian subgroup C1      NOp   1
                         Standard orientation:                         
 ---------------------------------------------------------------------
 Center     Atomic      Atomic             Coordinates (Angstroms)
 Number     Number       Type             X           Y           Z
 ---------------------------------------------------------------------
      1         17           0        0.018820   -0.817302    0.000000
      2          1           0       -0.470489    0.569481    0.000000
      3          8           0        0.018820    1.665582    0.000000
 ---------------------------------------------------------------------
 Rotational constants (GHZ):        2147.4086014           7.4294964           7.4038808
 Leave Link  202 at Wed Oct 28 15:31:43 2020, MaxMem=  2684354560 cpu:               0.1 elap:               0.1
 (Enter /udrive/faculty/rpeverati/g16/g16/l301.exe)
 Standard basis: VSTO-6G (5D, 7F)
 Ernie: Thresh=  0.10000D-02 Tol=  0.10000D-05 Strict=F.
  NNHCO=     0 NNPyr=     0 NCTC=     0               EPep=         0.000000000
    EC=        12.612896686  ECS=         0.176292134   EG=         0.032095438
   EHC=         0.000000000  EAt=       -22.696767356  AtH=         0.224141636
 EPDDG=         0.000000000  ECC=        12.821284259 EAtT=        22.920908991
 There are     7 symmetry adapted cartesian basis functions of A'  symmetry.
 There are     2 symmetry adapted cartesian basis functions of A"  symmetry.
 There are     7 symmetry adapted basis functions of A'  symmetry.
 There are     2 symmetry adapted basis functions of A"  symmetry.
     9 basis functions,    54 primitive gaussians,     9 cartesian basis functions
     8 alpha electrons        6 beta electrons
       nuclear repulsion energy        35.7421932500 Hartrees.
 IExCor=    0 DFT=F Ex=HF Corr=None ExCW=0 ScaHFX=  1.000000
 ScaDFX=  1.000000  1.000000  1.000000  1.000000 ScalE2=  1.000000  1.000000
 IRadAn=      5 IRanWt=     -1 IRanGd=            0 ICorTp=0 IEmpDi=  4
 Integral buffers will be    131072 words long.
 Regular integral format.
 Two-electron integral symmetry is turned off.
 Leave Link  301 at Wed Oct 28 15:31:43 2020, MaxMem=  2684354560 cpu:               3.4 elap:               0.4
 (Enter /udrive/faculty/rpeverati/g16/g16/l302.exe)
 Do NDO integrals.
 NPDir=0 NMtPBC=     1 NCelOv=     1 NCel=       1 NClECP=     1 NCelD=      1
         NCelK=      1 NCelE2=     1 NClLst=     1 CellRange=     0.0.
 One-electron integrals computed using PRISM.
 NBasis=     9 RedAO= T EigKep=  1.00D+00  NBF=     7     2
 NBsUse=     9 1.00D-06 EigRej= -1.00D+00 NBFU=     7     2
 Leave Link  302 at Wed Oct 28 15:31:44 2020, MaxMem=  2684354560 cpu:               2.5 elap:               0.2
 (Enter /udrive/faculty/rpeverati/g16/g16/l303.exe)
 DipDrv:  MaxL=1.
 Leave Link  303 at Wed Oct 28 15:31:44 2020, MaxMem=  2684354560 cpu:               1.0 elap:               0.1
 (Enter /udrive/faculty/rpeverati/g16/g16/l401.exe)
 SCF N**3 symmetry information disabled.
 Simple Huckel Guess.
 JPrj=0 DoOrth=F DoCkMO=F.
 Initial guess orbital symmetries:
 Alpha Orbitals:
       Occupied  (A') (A') (A') (A') (A") (A') (A") (A')
       Virtual   (A')
 Beta  Orbitals:
       Occupied  (A') (A') (A') (A') (A") (A')
       Virtual   (A") (A') (A')
 The electronic state of the initial guess is 3-A".
 Initial guess <Sx>= 0.0000 <Sy>= 0.0000 <Sz>= 1.0000 <S**2>= 2.0000 S= 1.0000
 Leave Link  401 at Wed Oct 28 15:31:44 2020, MaxMem=  2684354560 cpu:               1.5 elap:               0.2
 (Enter /udrive/faculty/rpeverati/g16/g16/l502.exe)
 Keep J ints in memory in canonical form, NReq=859290.
 FoFCou: FMM=F IPFlag=           0 FMFlag=           0 FMFlg1=           0
         NFxFlg=           0 DoJE=F BraDBF=F KetDBF=F FulRan=T
         wScrn=  0.000000 ICntrl=       600 IOpCl=  2 I1Cent=           0 NGrid=           0
         NMat0=    1 NMatS0=     21 NMatT0=    0 NMatD0=    1 NMtDS0=    0 NMtDT0=    0
 Symmetry not used in FoFCou.
 Two-electron integral symmetry not used.
 UHF open shell SCF:
 Using DIIS extrapolation, IDIIS=  1040.
 Overlap will be assumed to be unity.
 NGot=  2684354560 LenX=  2684293973 LenY=  2684293091
 Requested convergence on RMS density matrix=1.00D-08 within 120 cycles.
 Requested convergence on MAX density matrix=1.00D-06.
 Requested convergence on             energy=1.00D-06.
 No special actions if energy rises.

 Cycle   1  Pass 1  IDiag  1:
 E= 0.486777708785617    
 DIIS: error= 1.61D-01 at cycle   1 NSaved=   1.
 NSaved= 1 IEnMin= 1 EnMin= 0.486777708785617     IErMin= 1 ErrMin= 1.61D-01
 ErrMax= 1.61D-01  0.00D+00 EMaxC= 1.00D-01 BMatC= 6.41D-01 BMatP= 6.41D-01
 IDIUse=3 WtCom= 0.00D+00 WtEn= 1.00D+00
 Coeff-Com:  0.100D+01
 Coeff-En:   0.100D+01
 Coeff:      0.100D+01
 GapD=    2.000 DampG=2.000 DampE=0.250 DampFc=0.5000 IDamp=-1.
 Damping current iteration by 5.00D-01
 RMSDP=1.14D-01 MaxDP=7.70D-01              OVMax= 0.00D+00

 Cycle   2  Pass 1  IDiag  1:
 E= 0.321508117961166     Delta-E=       -0.165269590824 Rises=F Damp=T
 DIIS: error= 8.45D-02 at cycle   2 NSaved=   2.
 NSaved= 2 IEnMin= 2 EnMin= 0.321508117961166     IErMin= 2 ErrMin= 8.45D-02
 ErrMax= 8.45D-02  0.00D+00 EMaxC= 1.00D-01 BMatC= 1.85D-01 BMatP= 6.41D-01
 IDIUse=3 WtCom= 1.55D-01 WtEn= 8.45D-01
 Coeff-Com: -0.104D+01 0.204D+01
 Coeff-En:   0.000D+00 0.100D+01
 Coeff:     -0.160D+00 0.116D+01
 RMSDP=5.77D-02 MaxDP=4.34D-01 DE=-1.65D-01 OVMax= 0.00D+00

 Cycle   3  Pass 1  IDiag  1:
 E= 0.106865066568204     Delta-E=       -0.214643051393 Rises=F Damp=F
 DIIS: error= 1.46D-02 at cycle   3 NSaved=   3.
 NSaved= 3 IEnMin= 3 EnMin= 0.106865066568204     IErMin= 3 ErrMin= 1.46D-02
 ErrMax= 1.46D-02  0.00D+00 EMaxC= 1.00D-01 BMatC= 1.14D-02 BMatP= 1.85D-01
 IDIUse=3 WtCom= 8.54D-01 WtEn= 1.46D-01
 Coeff-Com:  0.435D+00-0.887D+00 0.145D+01
 Coeff-En:   0.000D+00 0.000D+00 0.100D+01
 Coeff:      0.372D+00-0.758D+00 0.139D+01
 RMSDP=2.15D-02 MaxDP=1.03D-01 DE=-2.15D-01 OVMax= 0.00D+00

 Cycle   4  Pass 1  IDiag  3:
 E= 0.862151161693490E-01 Delta-E=       -0.020649950399 Rises=F Damp=F
 DIIS: error= 1.47D-02 at cycle   4 NSaved=   4.
 NSaved= 4 IEnMin= 4 EnMin= 0.862151161693490E-01 IErMin= 3 ErrMin= 1.46D-02
 ErrMax= 1.47D-02  0.00D+00 EMaxC= 1.00D-01 BMatC= 3.44D-03 BMatP= 1.14D-02
 IDIUse=3 WtCom= 8.53D-01 WtEn= 1.47D-01
 Coeff-Com:  0.403D-01-0.215D-01-0.490D+00 0.147D+01
 Coeff-En:   0.000D+00 0.000D+00 0.000D+00 0.100D+01
 Coeff:      0.344D-01-0.184D-01-0.418D+00 0.140D+01
 Gap=     0.484 Goal=   None    Shift=    0.000
 Gap=     0.277 Goal=   None    Shift=    0.000
 RMSDP=1.86D-02 MaxDP=1.26D-01 DE=-2.06D-02 OVMax= 1.39D-01

 Cycle   5  Pass 1  IDiag  3:
 E= 0.756923366160152E-01 Delta-E=       -0.010522779553 Rises=F Damp=F
 DIIS: error= 8.26D-03 at cycle   5 NSaved=   5.
 NSaved= 5 IEnMin= 5 EnMin= 0.756923366160152E-01 IErMin= 5 ErrMin= 8.26D-03
 ErrMax= 8.26D-03  0.00D+00 EMaxC= 1.00D-01 BMatC= 9.31D-04 BMatP= 3.44D-03
 IDIUse=3 WtCom= 9.17D-01 WtEn= 8.26D-02
 Coeff-Com: -0.508D-02-0.105D-01 0.291D+00-0.146D+01 0.218D+01
 Coeff-En:   0.000D+00 0.000D+00 0.000D+00 0.000D+00 0.100D+01
 Coeff:     -0.466D-02-0.961D-02 0.267D+00-0.134D+01 0.208D+01
 Gap=     0.484 Goal=   None    Shift=    0.000
 Gap=     0.293 Goal=   None    Shift=    0.000
 RMSDP=1.58D-02 MaxDP=1.13D-01 DE=-1.05D-02 OVMax= 1.14D-01

 Cycle   6  Pass 1  IDiag  3:
 E= 0.724221011480211E-01 Delta-E=       -0.003270235468 Rises=F Damp=F
 DIIS: error= 2.78D-03 at cycle   6 NSaved=   6.
 NSaved= 6 IEnMin= 6 EnMin= 0.724221011480211E-01 IErMin= 6 ErrMin= 2.78D-03
 ErrMax= 2.78D-03  0.00D+00 EMaxC= 1.00D-01 BMatC= 1.27D-04 BMatP= 9.31D-04
 IDIUse=3 WtCom= 9.72D-01 WtEn= 2.78D-02
 Coeff-Com: -0.274D-01 0.502D-01-0.929D-02 0.432D+00-0.775D+00 0.133D+01
 Coeff-En:   0.000D+00 0.000D+00 0.000D+00 0.000D+00 0.000D+00 0.100D+01
 Coeff:     -0.266D-01 0.488D-01-0.903D-02 0.420D+00-0.753D+00 0.132D+01
 Gap=     0.488 Goal=   None    Shift=    0.000
 Gap=     0.290 Goal=   None    Shift=    0.000
 RMSDP=3.25D-03 MaxDP=1.44D-02 DE=-3.27D-03 OVMax= 1.36D-02

 Cycle   7  Pass 1  IDiag  3:
 E= 0.721994582025971E-01 Delta-E=       -0.000222642945 Rises=F Damp=F
 DIIS: error= 1.86D-03 at cycle   7 NSaved=   7.
 NSaved= 7 IEnMin= 7 EnMin= 0.721994582025971E-01 IErMin= 7 ErrMin= 1.86D-03
 ErrMax= 1.86D-03  0.00D+00 EMaxC= 1.00D-01 BMatC= 8.19D-05 BMatP= 1.27D-04
 IDIUse=3 WtCom= 9.81D-01 WtEn= 1.86D-02
 Coeff-Com: -0.268D-01 0.805D-01-0.399D+00 0.893D+00-0.145D+01-0.151D+01
 Coeff-Com:  0.341D+01
 Coeff-En:   0.000D+00 0.000D+00 0.000D+00 0.000D+00 0.000D+00 0.000D+00
 Coeff-En:   0.100D+01
 Coeff:     -0.263D-01 0.791D-01-0.391D+00 0.876D+00-0.142D+01-0.148D+01
 Coeff:      0.337D+01
 Gap=     0.490 Goal=   None    Shift=    0.000
 Gap=     0.297 Goal=   None    Shift=    0.000
 RMSDP=9.75D-03 MaxDP=5.44D-02 DE=-2.23D-04 OVMax= 6.99D-02

 Cycle   8  Pass 1  IDiag  3:
 E= 0.715201364637750E-01 Delta-E=       -0.000679321739 Rises=F Damp=F
 DIIS: error= 1.10D-03 at cycle   8 NSaved=   8.
 NSaved= 8 IEnMin= 8 EnMin= 0.715201364637750E-01 IErMin= 8 ErrMin= 1.10D-03
 ErrMax= 1.10D-03  0.00D+00 EMaxC= 1.00D-01 BMatC= 2.62D-05 BMatP= 8.19D-05
 IDIUse=3 WtCom= 9.89D-01 WtEn= 1.10D-02
 Coeff-Com: -0.278D-01 0.587D-01-0.579D-01 0.803D-01 0.238D+00 0.288D+00
 Coeff-Com: -0.126D+01 0.168D+01
 Coeff-En:   0.000D+00 0.000D+00 0.000D+00 0.000D+00 0.000D+00 0.000D+00
 Coeff-En:   0.000D+00 0.100D+01
 Coeff:     -0.275D-01 0.580D-01-0.572D-01 0.794D-01 0.235D+00 0.285D+00
 Coeff:     -0.125D+01 0.167D+01
 Gap=     0.489 Goal=   None    Shift=    0.000
 Gap=     0.294 Goal=   None    Shift=    0.000
 RMSDP=3.89D-03 MaxDP=2.17D-02 DE=-6.79D-04 OVMax= 2.58D-02

 Cycle   9  Pass 1  IDiag  3:
 E= 0.713774514298038E-01 Delta-E=       -0.000142685034 Rises=F Damp=F
 DIIS: error= 5.67D-04 at cycle   9 NSaved=   9.
 NSaved= 9 IEnMin= 9 EnMin= 0.713774514298038E-01 IErMin= 9 ErrMin= 5.67D-04
 ErrMax= 5.67D-04  0.00D+00 EMaxC= 1.00D-01 BMatC= 6.81D-06 BMatP= 2.62D-05
 IDIUse=3 WtCom= 9.94D-01 WtEn= 5.67D-03
 Coeff-Com: -0.671D-02 0.121D-01-0.195D-02 0.448D-02-0.180D+00 0.139D+00
 Coeff-Com:  0.189D+00-0.105D+01 0.190D+01
 Coeff-En:   0.000D+00 0.000D+00 0.000D+00 0.000D+00 0.000D+00 0.000D+00
 Coeff-En:   0.000D+00 0.000D+00 0.100D+01
 Coeff:     -0.667D-02 0.120D-01-0.194D-02 0.446D-02-0.179D+00 0.138D+00
 Coeff:      0.187D+00-0.105D+01 0.189D+01
 Gap=     0.490 Goal=   None    Shift=    0.000
 Gap=     0.297 Goal=   None    Shift=    0.000
 RMSDP=2.82D-03 MaxDP=1.53D-02 DE=-1.43D-04 OVMax= 2.25D-02

 Cycle  10  Pass 1  IDiag  3:
 E= 0.713415766402790E-01 Delta-E=       -0.000035874790 Rises=F Damp=F
 DIIS: error= 1.87D-04 at cycle  10 NSaved=  10.
 NSaved=10 IEnMin=10 EnMin= 0.713415766402790E-01 IErMin=10 ErrMin= 1.87D-04
 ErrMax= 1.87D-04  0.00D+00 EMaxC= 1.00D-01 BMatC= 1.06D-06 BMatP= 6.81D-06
 IDIUse=3 WtCom= 9.98D-01 WtEn= 1.87D-03
 Coeff-Com: -0.327D-02 0.563D-02 0.144D-01-0.106D+00 0.289D+00-0.127D+00
 Coeff-Com: -0.196D+00 0.671D+00-0.122D+01 0.167D+01
 Coeff-En:   0.000D+00 0.000D+00 0.000D+00 0.000D+00 0.000D+00 0.000D+00
 Coeff-En:   0.000D+00 0.000D+00 0.000D+00 0.100D+01
 Coeff:     -0.326D-02 0.562D-02 0.143D-01-0.106D+00 0.289D+00-0.127D+00
 Coeff:     -0.196D+00 0.670D+00-0.122D+01 0.167D+01
 Gap=     0.490 Goal=   None    Shift=    0.000
 Gap=     0.296 Goal=   None    Shift=    0.000
 RMSDP=2.41D-04 MaxDP=1.08D-03 DE=-3.59D-05 OVMax= 1.66D-03

 Cycle  11  Pass 1  IDiag  3:
 E= 0.713395190746127E-01 Delta-E=       -0.000002057566 Rises=F Damp=F
 DIIS: error= 1.10D-04 at cycle  11 NSaved=  11.
 NSaved=11 IEnMin=11 EnMin= 0.713395190746127E-01 IErMin=11 ErrMin= 1.10D-04
 ErrMax= 1.10D-04  0.00D+00 EMaxC= 1.00D-01 BMatC= 3.40D-07 BMatP= 1.06D-06
 IDIUse=3 WtCom= 9.99D-01 WtEn= 1.10D-03
 Coeff-Com: -0.499D-03 0.153D-03 0.607D-02-0.157D-01 0.604D-02 0.236D-01
 Coeff-Com: -0.564D-01-0.166D-01 0.175D+00-0.127D+01 0.215D+01
 Coeff-En:   0.000D+00 0.000D+00 0.000D+00 0.000D+00 0.000D+00 0.000D+00
 Coeff-En:   0.000D+00 0.000D+00 0.000D+00 0.000D+00 0.100D+01
 Coeff:     -0.499D-03 0.152D-03 0.606D-02-0.156D-01 0.604D-02 0.236D-01
 Coeff:     -0.564D-01-0.166D-01 0.175D+00-0.127D+01 0.215D+01
 Gap=     0.490 Goal=   None    Shift=    0.000
 Gap=     0.297 Goal=   None    Shift=    0.000
 RMSDP=2.99D-04 MaxDP=1.63D-03 DE=-2.06D-06 OVMax= 2.10D-03

 Cycle  12  Pass 1  IDiag  3:
 E= 0.713384807430444E-01 Delta-E=       -0.000001038332 Rises=F Damp=F
 DIIS: error= 2.58D-05 at cycle  12 NSaved=  12.
 NSaved=12 IEnMin=12 EnMin= 0.713384807430444E-01 IErMin=12 ErrMin= 2.58D-05
 ErrMax= 2.58D-05  0.00D+00 EMaxC= 1.00D-01 BMatC= 2.38D-08 BMatP= 3.40D-07
 IDIUse=1 WtCom= 1.00D+00 WtEn= 0.00D+00
 Coeff-Com: -0.397D-03 0.999D-03-0.182D-02 0.126D-01-0.313D-01 0.397D-01
 Coeff-Com:  0.249D-02-0.119D+00 0.230D+00 0.361D+00-0.121D+01 0.171D+01
 Coeff:     -0.397D-03 0.999D-03-0.182D-02 0.126D-01-0.313D-01 0.397D-01
 Coeff:      0.249D-02-0.119D+00 0.230D+00 0.361D+00-0.121D+01 0.171D+01
 Gap=     0.490 Goal=   None    Shift=    0.000
 Gap=     0.296 Goal=   None    Shift=    0.000
 RMSDP=7.70D-05 MaxDP=4.30D-04 DE=-1.04D-06 OVMax= 4.54D-04

 Cycle  13  Pass 1  IDiag  3:
 E= 0.713384335981360E-01 Delta-E=       -0.000000047145 Rises=F Damp=F
 DIIS: error= 1.64D-05 at cycle  13 NSaved=  13.
 NSaved=13 IEnMin=13 EnMin= 0.713384335981360E-01 IErMin=13 ErrMin= 1.64D-05
 ErrMax= 1.64D-05  0.00D+00 EMaxC= 1.00D-01 BMatC= 7.68D-09 BMatP= 2.38D-08
 IDIUse=1 WtCom= 1.00D+00 WtEn= 0.00D+00
 Coeff-Com:  0.350D-04 0.324D-04-0.162D-02 0.497D-02-0.428D-03-0.731D-02
 Coeff-Com: -0.643D-02 0.613D-01-0.132D+00-0.104D+00 0.507D+00-0.102D+01
 Coeff-Com:  0.170D+01
 Coeff:      0.350D-04 0.324D-04-0.162D-02 0.497D-02-0.428D-03-0.731D-02
 Coeff:     -0.643D-02 0.613D-01-0.132D+00-0.104D+00 0.507D+00-0.102D+01
 Coeff:      0.170D+01
 Gap=     0.490 Goal=   None    Shift=    0.000
 Gap=     0.296 Goal=   None    Shift=    0.000
 RMSDP=3.73D-05 MaxDP=1.95D-04 DE=-4.71D-08 OVMax= 2.91D-04

 Cycle  14  Pass 1  IDiag  3:
 E= 0.713384157287038E-01 Delta-E=       -0.000000017869 Rises=F Damp=F
 DIIS: error= 7.04D-06 at cycle  14 NSaved=  14.
 NSaved=14 IEnMin=14 EnMin= 0.713384157287038E-01 IErMin=14 ErrMin= 7.04D-06
 ErrMax= 7.04D-06  0.00D+00 EMaxC= 1.00D-01 BMatC= 1.22D-09 BMatP= 7.68D-09
 IDIUse=1 WtCom= 1.00D+00 WtEn= 0.00D+00
 Coeff-Com:  0.597D-04-0.886D-04 0.126D-03-0.291D-03 0.174D-02 0.623D-03
 Coeff-Com: -0.233D-02 0.139D-02 0.547D-02 0.265D-01-0.966D-01 0.275D+00
 Coeff-Com: -0.867D+00 0.166D+01
 Coeff:      0.597D-04-0.886D-04 0.126D-03-0.291D-03 0.174D-02 0.623D-03
 Coeff:     -0.233D-02 0.139D-02 0.547D-02 0.265D-01-0.966D-01 0.275D+00
 Coeff:     -0.867D+00 0.166D+01
 Gap=     0.490 Goal=   None    Shift=    0.000
 Gap=     0.296 Goal=   None    Shift=    0.000
 RMSDP=1.40D-05 MaxDP=7.65D-05 DE=-1.79D-08 OVMax= 1.02D-04

 Cycle  15  Pass 1  IDiag  3:
 E= 0.713384124710643E-01 Delta-E=       -0.000000003258 Rises=F Damp=F
 DIIS: error= 2.76D-06 at cycle  15 NSaved=  15.
 NSaved=15 IEnMin=15 EnMin= 0.713384124710643E-01 IErMin=15 ErrMin= 2.76D-06
 ErrMax= 2.76D-06  0.00D+00 EMaxC= 1.00D-01 BMatC= 1.34D-10 BMatP= 1.22D-09
 IDIUse=1 WtCom= 1.00D+00 WtEn= 0.00D+00
 Coeff-Com: -0.318D-04 0.435D-04 0.125D-03 0.449D-04 0.107D-04 0.136D-02
 Coeff-Com: -0.921D-03 0.576D-03-0.658D-02 0.582D-01-0.994D-01-0.390D-01
 Coeff-Com:  0.690D+00-0.191D+01 0.231D+01
 Coeff:     -0.318D-04 0.435D-04 0.125D-03 0.449D-04 0.107D-04 0.136D-02
 Coeff:     -0.921D-03 0.576D-03-0.658D-02 0.582D-01-0.994D-01-0.390D-01
 Coeff:      0.690D+00-0.191D+01 0.231D+01
 Gap=     0.490 Goal=   None    Shift=    0.000
 Gap=     0.296 Goal=   None    Shift=    0.000
 RMSDP=9.24D-06 MaxDP=6.19D-05 DE=-3.26D-09 OVMax= 8.12D-05

 Cycle  16  Pass 1  IDiag  3:
 E= 0.713384117174769E-01 Delta-E=       -0.000000000754 Rises=F Damp=F
 DIIS: error= 1.51D-06 at cycle  16 NSaved=  16.
 NSaved=16 IEnMin=16 EnMin= 0.713384117174769E-01 IErMin=16 ErrMin= 1.51D-06
 ErrMax= 1.51D-06  0.00D+00 EMaxC= 1.00D-01 BMatC= 6.29D-11 BMatP= 1.34D-10
 IDIUse=1 WtCom= 1.00D+00 WtEn= 0.00D+00
 Coeff-Com:  0.175D-05 0.203D-04 0.111D-03-0.148D-02 0.394D-02-0.966D-03
 Coeff-Com: -0.639D-02 0.772D-02 0.624D-02-0.994D-01 0.159D+00 0.202D+00
 Coeff-Com: -0.187D+01 0.503D+01-0.669D+01 0.426D+01
 Coeff:      0.175D-05 0.203D-04 0.111D-03-0.148D-02 0.394D-02-0.966D-03
 Coeff:     -0.639D-02 0.772D-02 0.624D-02-0.994D-01 0.159D+00 0.202D+00
 Coeff:     -0.187D+01 0.503D+01-0.669D+01 0.426D+01
 Gap=     0.490 Goal=   None    Shift=    0.000
 Gap=     0.296 Goal=   None    Shift=    0.000
 RMSDP=1.07D-05 MaxDP=4.58D-05 DE=-7.54D-10 OVMax= 6.58D-05

 Cycle  17  Pass 1  IDiag  3:
 E= 0.713384113750877E-01 Delta-E=       -0.000000000342 Rises=F Damp=F
 DIIS: error= 1.21D-06 at cycle  17 NSaved=  17.
 NSaved=17 IEnMin=17 EnMin= 0.713384113750877E-01 IErMin=17 ErrMin= 1.21D-06
 ErrMax= 1.21D-06  0.00D+00 EMaxC= 1.00D-01 BMatC= 1.71D-11 BMatP= 6.29D-11
 IDIUse=1 WtCom= 1.00D+00 WtEn= 0.00D+00
 Coeff-Com: -0.260D-05 0.601D-05-0.815D-05-0.926D-04 0.187D-03-0.242D-03
 Coeff-Com:  0.175D-03-0.404D-03 0.171D-02-0.831D-02 0.125D-01 0.105D-01
 Coeff-Com: -0.116D+00 0.270D+00-0.319D+00 0.218D+00 0.932D+00
 Coeff:     -0.260D-05 0.601D-05-0.815D-05-0.926D-04 0.187D-03-0.242D-03
 Coeff:      0.175D-03-0.404D-03 0.171D-02-0.831D-02 0.125D-01 0.105D-01
 Coeff:     -0.116D+00 0.270D+00-0.319D+00 0.218D+00 0.932D+00
 Gap=     0.490 Goal=   None    Shift=    0.000
 Gap=     0.296 Goal=   None    Shift=    0.000
 RMSDP=2.21D-06 MaxDP=1.17D-05 DE=-3.42D-10 OVMax= 1.44D-05

 Cycle  18  Pass 1  IDiag  3:
 E= 0.713384113215483E-01 Delta-E=       -0.000000000054 Rises=F Damp=F
 DIIS: error= 2.11D-07 at cycle  18 NSaved=  18.
 NSaved=18 IEnMin=18 EnMin= 0.713384113215483E-01 IErMin=18 ErrMin= 2.11D-07
 ErrMax= 2.11D-07  0.00D+00 EMaxC= 1.00D-01 BMatC= 7.61D-13 BMatP= 1.71D-11
 IDIUse=1 WtCom= 1.00D+00 WtEn= 0.00D+00
 Coeff-Com: -0.206D-05 0.327D-05 0.835D-05 0.552D-04-0.151D-03 0.245D-03
 Coeff-Com:  0.292D-04-0.351D-03-0.325D-03 0.101D-01-0.187D-01 0.117D-02
 Coeff-Com:  0.919D-01-0.231D+00 0.304D+00-0.189D+00-0.752D+00 0.178D+01
 Coeff:     -0.206D-05 0.327D-05 0.835D-05 0.552D-04-0.151D-03 0.245D-03
 Coeff:      0.292D-04-0.351D-03-0.325D-03 0.101D-01-0.187D-01 0.117D-02
 Coeff:      0.919D-01-0.231D+00 0.304D+00-0.189D+00-0.752D+00 0.178D+01
 Gap=     0.490 Goal=   None    Shift=    0.000
 Gap=     0.296 Goal=   None    Shift=    0.000
 RMSDP=9.33D-07 MaxDP=4.32D-06 DE=-5.35D-11 OVMax= 6.63D-06

 Cycle  19  Pass 1  IDiag  3:
 E= 0.713384113209372E-01 Delta-E=       -0.000000000001 Rises=F Damp=F
 DIIS: error= 1.52D-07 at cycle  19 NSaved=  19.
 NSaved=19 IEnMin=19 EnMin= 0.713384113209372E-01 IErMin=19 ErrMin= 1.52D-07
 ErrMax= 1.52D-07  0.00D+00 EMaxC= 1.00D-01 BMatC= 4.57D-13 BMatP= 7.61D-13
 IDIUse=1 WtCom= 1.00D+00 WtEn= 0.00D+00
 Large coefficients: NSaved= 19 BigCof=    0.00 CofMax=   10.00 Det=-6.59D-15
 Inversion failed.  Reducing to 18 matrices.
 Large coefficients: NSaved= 18 BigCof=    0.00 CofMax=   10.00 Det=-7.78D-15
 Inversion failed.  Reducing to 17 matrices.
 Large coefficients: NSaved= 17 BigCof=    0.00 CofMax=   10.00 Det=-8.28D-15
 Inversion failed.  Reducing to 16 matrices.
 Large coefficients: NSaved= 16 BigCof=    0.00 CofMax=   10.00 Det=-9.34D-15
 Inversion failed.  Reducing to 15 matrices.
 Coeff-Com:  0.527D-05 0.149D-04-0.404D-04 0.290D-04 0.378D-04-0.501D-03
 Coeff-Com:  0.660D-03 0.971D-03-0.756D-02 0.794D-02-0.159D-01 0.111D-02
 Coeff-Com:  0.183D+00-0.361D+00 0.119D+01
 Coeff:      0.527D-05 0.149D-04-0.404D-04 0.290D-04 0.378D-04-0.501D-03
 Coeff:      0.660D-03 0.971D-03-0.756D-02 0.794D-02-0.159D-01 0.111D-02
 Coeff:      0.183D+00-0.361D+00 0.119D+01
 Gap=     0.490 Goal=   None    Shift=    0.000
 Gap=     0.296 Goal=   None    Shift=    0.000
 RMSDP=4.66D-07 MaxDP=2.15D-06 DE=-6.11D-13 OVMax= 3.62D-06

 Cycle  20  Pass 1  IDiag  3:
 E= 0.713384113194024E-01 Delta-E=       -0.000000000002 Rises=F Damp=F
 DIIS: error= 8.05D-09 at cycle  20 NSaved=  16.
 NSaved=16 IEnMin=16 EnMin= 0.713384113194024E-01 IErMin=16 ErrMin= 8.05D-09
 ErrMax= 8.05D-09  0.00D+00 EMaxC= 1.00D-01 BMatC= 2.04D-15 BMatP= 4.57D-13
 IDIUse=1 WtCom= 1.00D+00 WtEn= 0.00D+00
 Large coefficients: NSaved= 16 BigCof=    0.00 CofMax=   10.00 Det=-1.55D-16
 Inversion failed.  Reducing to 15 matrices.
 Coeff-Com: -0.650D-05 0.828D-06 0.438D-04-0.136D-03 0.285D-03-0.256D-03
 Coeff-Com: -0.924D-03 0.498D-02-0.655D-02 0.699D-02-0.417D-02-0.881D-01
 Coeff-Com:  0.144D+00-0.206D+00 0.115D+01
 Coeff:     -0.650D-05 0.828D-06 0.438D-04-0.136D-03 0.285D-03-0.256D-03
 Coeff:     -0.924D-03 0.498D-02-0.655D-02 0.699D-02-0.417D-02-0.881D-01
 Coeff:      0.144D+00-0.206D+00 0.115D+01
 Gap=     0.490 Goal=   None    Shift=    0.000
 Gap=     0.296 Goal=   None    Shift=    0.000
 RMSDP=1.87D-08 MaxDP=8.33D-08 DE=-1.53D-12 OVMax= 1.55D-07

 Cycle  21  Pass 1  IDiag  3:
 E= 0.713384113193953E-01 Delta-E=       -0.000000000000 Rises=F Damp=F
 DIIS: error= 2.08D-09 at cycle  21 NSaved=  16.
 NSaved=16 IEnMin=16 EnMin= 0.713384113193953E-01 IErMin=16 ErrMin= 2.08D-09
 ErrMax= 2.08D-09  0.00D+00 EMaxC= 1.00D-01 BMatC= 1.25D-16 BMatP= 2.04D-15
 IDIUse=1 WtCom= 1.00D+00 WtEn= 0.00D+00
 Large coefficients: NSaved= 16 BigCof=    0.00 CofMax=   10.00 Det=-4.59D-17
 Inversion failed.  Reducing to 15 matrices.
 Coeff-Com: -0.359D-06-0.417D-05 0.161D-04-0.850D-04 0.170D-03-0.675D-04
 Coeff-Com: -0.525D-03 0.207D-02-0.206D-02 0.309D-02-0.721D-02 0.194D-01
 Coeff-Com: -0.117D+00-0.221D+00 0.132D+01
 Coeff:     -0.359D-06-0.417D-05 0.161D-04-0.850D-04 0.170D-03-0.675D-04
 Coeff:     -0.525D-03 0.207D-02-0.206D-02 0.309D-02-0.721D-02 0.194D-01
 Coeff:     -0.117D+00-0.221D+00 0.132D+01
 Gap=     0.490 Goal=   None    Shift=    0.000
 Gap=     0.296 Goal=   None    Shift=    0.000
 RMSDP=3.06D-09 MaxDP=1.27D-08 DE=-7.11D-15 OVMax= 1.33D-08

 Cycle  22  Pass 2  IDiag  1:
 SCF Done:  E(UPM3) =  0.713384113194E-01 A.U. after   22 cycles
            NFock= 21  Conv=0.31D-08     -V/T= 1.0020
 <Sx>= 0.0000 <Sy>= 0.0000 <Sz>= 1.0000 <S**2>= 2.0230 S= 1.0076
 <L.S>= 0.000000000000E+00
 KE=-3.548941468734D+01 PE=-2.453445321899D+01 EE= 2.435301306766D+01
 Annihilation of the first spin contaminant:
 S**2 before annihilation     2.0230,   after     2.0000
 Leave Link  502 at Wed Oct 28 15:31:44 2020, MaxMem=  2684354560 cpu:               1.8 elap:               0.2
 (Enter /udrive/faculty/rpeverati/g16/g16/l601.exe)
 Copying SCF densities to generalized density rwf, IOpCl= 1 IROHF=0.

 **********************************************************************

            Population analysis using the SCF density.

 **********************************************************************

 Orbital symmetries:
 Alpha Orbitals:
       Occupied  (A') (A') (A') (A") (A') (A') (A") (A')
       Virtual   (A')
 Beta  Orbitals:
       Occupied  (A') (A') (A') (A') (A") (A')
       Virtual   (A') (A") (A')
 The electronic state is 3-A".
 Alpha  occ. eigenvalues --   -2.05875  -1.19578  -0.65560  -0.56503  -0.52122
 Alpha  occ. eigenvalues --   -0.42577  -0.41949  -0.41615
 Alpha virt. eigenvalues --    0.07316
  Beta  occ. eigenvalues --   -1.98965  -1.16705  -0.58401  -0.48040  -0.41995
  Beta  occ. eigenvalues --   -0.41899
  Beta virt. eigenvalues --   -0.12381  -0.05055   0.09460
          Condensed to atoms (all electrons):
               1          2          3
     1  Cl   7.079356   0.000000   0.000000
     2  H    0.000000   0.808717   0.000000
     3  O    0.000000   0.000000   6.111927
          Atomic-Atomic Spin Densities.
               1          2          3
     1  Cl   0.579515   0.000000   0.000000
     2  H    0.000000  -0.129655   0.000000
     3  O    0.000000   0.000000   1.550140
 Mulliken charges and spin densities:
               1          2
     1  Cl  -0.079356   0.579515
     2  H    0.191283  -0.129655
     3  O   -0.111927   1.550140
 Sum of Mulliken charges =   0.00000   2.00000
 Mulliken charges and spin densities with hydrogens summed into heavy atoms:
               1          2
     1  Cl  -0.079356   0.579515
     3  O    0.079356   1.420485
 Charge=              0.0000 electrons
 Dipole moment (field-independent basis, Debye):
    X=             -0.7045    Y=              0.0396    Z=             -0.0000  Tot=              0.7056
 N-N= 3.574219324999D+01 E-N=-2.453445322340D+01  KE=-3.548941468734D+01
 Leave Link  601 at Wed Oct 28 15:31:44 2020, MaxMem=  2684354560 cpu:               1.0 elap:               0.1
 (Enter /udrive/faculty/rpeverati/g16/g16/l701.exe)
 ... and contract with generalized density number  0.
 Compute integral first derivatives.
 Leave Link  701 at Wed Oct 28 15:31:45 2020, MaxMem=  2684354560 cpu:               1.6 elap:               0.2
 (Enter /udrive/faculty/rpeverati/g16/g16/l702.exe)
 L702 exits ... SP integral derivatives will be done elsewhere.
 Leave Link  702 at Wed Oct 28 15:31:45 2020, MaxMem=  2684354560 cpu:               0.9 elap:               0.1
 (Enter /udrive/faculty/rpeverati/g16/g16/l703.exe)
 Integral derivatives from FoFJK, PRISM(SPDF).
 Compute integral first derivatives, UseDBF=F ICtDFT=           0.
 Calling FoFJK, ICntrl=      2127 FMM=F ISym2X=1 I1Cent= 0 IOpClX= 1 NMat=1 NMatS=1 NMatT=0.
 FoFJK:  IHMeth= 9 ICntrl=    2127 DoSepK=F KAlg= 0 I1Cent=           0 FoldK=F
 IRaf=         0 NMat=       1 IRICut=       1 DoRegI=T DoRafI=F ISym2E= 1 IDoP0=3 IntGTp=3.
 FoFCou: FMM=F IPFlag=           0 FMFlag=      100000 FMFlg1=         800
         NFxFlg=           0 DoJE=F BraDBF=F KetDBF=F FulRan=T
         wScrn=  0.000000 ICntrl=      2127 IOpCl=  1 I1Cent=           0 NGrid=           0
         NMat0=    1 NMatS0=      1 NMatT0=    0 NMatD0=    1 NMtDS0=    0 NMtDT0=    0
 Petite list used in FoFCou.
 Leave Link  703 at Wed Oct 28 15:31:45 2020, MaxMem=  2684354560 cpu:               0.8 elap:               0.1
 (Enter /udrive/faculty/rpeverati/g16/g16/l716.exe)
 Dipole        =-2.77175177D-01 1.55850482D-02-5.52375049D-16
 ***** Axes restored to original set *****
 -------------------------------------------------------------------
 Center     Atomic                   Forces (Hartrees/Bohr)
 Number     Number              X              Y              Z
 -------------------------------------------------------------------
      1       17           0.001789808   -0.014960171    0.000000000
      2        1           0.015355761    0.043480449   -0.000000000
      3        8          -0.017145569   -0.028520278    0.000000000
 -------------------------------------------------------------------
 Cartesian Forces:  Max     0.043480449 RMS     0.019609340
 Leave Link  716 at Wed Oct 28 15:31:45 2020, MaxMem=  2684354560 cpu:               0.8 elap:               0.1
 (Enter /udrive/faculty/rpeverati/g16/g16/l103.exe)

 GradGradGradGradGradGradGradGradGradGradGradGradGradGradGradGradGradGrad
 Berny optimization.
 Optmz: redundant internal coordinate code flag= 1
 FormGI is forming the generalized inverse of G from B-inverse, IUseBI=4.
 Internal  Forces:  Max     0.033032284 RMS     0.021532190
 Numerically estimating second derivatives.
 Iteration  1 RMS(Cart)=  0.00231545 RMS(Int)=  0.00000023
 Iteration  2 RMS(Cart)=  0.00000026 RMS(Int)=  0.00000000
 Largest change from initial coordinates is atom    1       0.001 Angstoms.
 GradGradGradGradGradGradGradGradGradGradGradGradGradGradGradGradGradGrad

 Leave Link  103 at Wed Oct 28 15:31:45 2020, MaxMem=  2684354560 cpu:               0.4 elap:               0.1
 (Enter /udrive/faculty/rpeverati/g16/g16/l202.exe)
                          Input orientation:                          
 ---------------------------------------------------------------------
 Center     Atomic      Atomic             Coordinates (Angstroms)
 Number     Number       Type             X           Y           Z
 ---------------------------------------------------------------------
      1         17           0        0.019118   -0.819004    0.000000
      2          1           0       -0.470760    0.570384    0.000000
      3          8           0        0.018793    1.666375    0.000000
 ---------------------------------------------------------------------
                    Distance matrix (angstroms):
                    1          2          3
     1  Cl   0.000000
     2  H    1.473220   0.000000
     3  O    2.485379   1.200358   0.000000
 Stoichiometry    ClHO(3)
 Framework group  CS[SG(ClHO)]
 Deg. of freedom     3
 Full point group                 CS      NOp   2
 RotChk:  IX=0 Diff= 1.85D-04
 Largest Abelian subgroup         CS      NOp   2
 Largest concise Abelian subgroup C1      NOp   1
                         Standard orientation:                         
 ---------------------------------------------------------------------
 Center     Atomic      Atomic             Coordinates (Angstroms)
 Number     Number       Type             X           Y           Z
 ---------------------------------------------------------------------
      1         17           0        0.018834   -0.818172    0.000000
      2          1           0       -0.470862    0.571279    0.000000
      3          8           0        0.018834    1.667206    0.000000
 ---------------------------------------------------------------------
 Rotational constants (GHZ):        2144.0534321           7.4144183           7.3888666
 Leave Link  202 at Wed Oct 28 15:31:45 2020, MaxMem=  2684354560 cpu:               0.4 elap:               0.1
 (Enter /udrive/faculty/rpeverati/g16/g16/l301.exe)
 Standard basis: VSTO-6G (5D, 7F)
 Ernie: Thresh=  0.10000D-02 Tol=  0.10000D-05 Strict=F.
  NNHCO=     0 NNPyr=     0 NCTC=     0               EPep=         0.000000000
    EC=        12.602728654  ECS=         0.175581847   EG=         0.032057894
   EHC=         0.000000000  EAt=       -22.696767356  AtH=         0.224141636
 EPDDG=         0.000000000  ECC=        12.810368396 EAtT=        22.920908991
 There are     7 symmetry adapted cartesian basis functions of A'  symmetry.
 There are     2 symmetry adapted cartesian basis functions of A"  symmetry.
 There are     7 symmetry adapted basis functions of A'  symmetry.
 There are     2 symmetry adapted basis functions of A"  symmetry.
     9 basis functions,    54 primitive gaussians,     9 cartesian basis functions
     8 alpha electrons        6 beta electrons
       nuclear repulsion energy        35.7312773870 Hartrees.
 IExCor=    0 DFT=F Ex=HF Corr=None ExCW=0 ScaHFX=  1.000000
 ScaDFX=  1.000000  1.000000  1.000000  1.000000 ScalE2=  1.000000  1.000000
 IRadAn=      5 IRanWt=     -1 IRanGd=            0 ICorTp=0 IEmpDi=  4
 Integral buffers will be    131072 words long.
 Regular integral format.
 Two-electron integral symmetry is turned off.
 Leave Link  301 at Wed Oct 28 15:31:46 2020, MaxMem=  2684354560 cpu:               1.4 elap:               0.2
 (Enter /udrive/faculty/rpeverati/g16/g16/l302.exe)
 Do NDO integrals.
 NPDir=0 NMtPBC=     1 NCelOv=     1 NCel=       1 NClECP=     1 NCelD=      1
         NCelK=      1 NCelE2=     1 NClLst=     1 CellRange=     0.0.
 One-electron integrals computed using PRISM.
 NBasis=     9 RedAO= T EigKep=  1.00D+00  NBF=     7     2
 NBsUse=     9 1.00D-06 EigRej= -1.00D+00 NBFU=     7     2
 Leave Link  302 at Wed Oct 28 15:31:46 2020, MaxMem=  2684354560 cpu:               2.0 elap:               0.2
 (Enter /udrive/faculty/rpeverati/g16/g16/l303.exe)
 DipDrv:  MaxL=1.
 Leave Link  303 at Wed Oct 28 15:31:46 2020, MaxMem=  2684354560 cpu:               0.8 elap:               0.1
 (Enter /udrive/faculty/rpeverati/g16/g16/l401.exe)
 Initial guess from the checkpoint file:  "MN_91_RKT17_BH76_PM3_SE.chk"
 SCF N**3 symmetry information disabled.
 B after Tr=     0.000000   -0.000000    0.000000
         Rot=    1.000000    0.000000    0.000000    0.000010 Ang=   0.00 deg.
 Guess basis will be translated and rotated to current coordinates.
 JPrj=0 DoOrth=T DoCkMO=T.
 Initial guess orbital symmetries:
 Alpha Orbitals:
       Occupied  (A') (A') (A') (A") (A') (A') (A") (A')
       Virtual   (A')
 Beta  Orbitals:
       Occupied  (A') (A') (A') (A') (A") (A')
       Virtual   (A') (A") (A')
 The electronic state of the initial guess is 3-A".
 Initial guess <Sx>= 0.0000 <Sy>= 0.0000 <Sz>= 1.0000 <S**2>= 2.0230 S= 1.0076
 Leave Link  401 at Wed Oct 28 15:31:46 2020, MaxMem=  2684354560 cpu:               2.2 elap:               0.2
 (Enter /udrive/faculty/rpeverati/g16/g16/l502.exe)
 Keep J ints in memory in canonical form, NReq=859290.
 FoFCou: FMM=F IPFlag=           0 FMFlag=           0 FMFlg1=           0
         NFxFlg=           0 DoJE=F BraDBF=F KetDBF=F FulRan=T
         wScrn=  0.000000 ICntrl=       600 IOpCl=  2 I1Cent=           0 NGrid=           0
         NMat0=    1 NMatS0=     21 NMatT0=    0 NMatD0=    1 NMtDS0=    0 NMtDT0=    0
 Symmetry not used in FoFCou.
 Two-electron integral symmetry not used.
 UHF open shell SCF:
 Using DIIS extrapolation, IDIIS=  1040.
 Overlap will be assumed to be unity.
 NGot=  2684354560 LenX=  2684293973 LenY=  2684293091
 Requested convergence on RMS density matrix=1.00D-08 within 120 cycles.
 Requested convergence on MAX density matrix=1.00D-06.
 Requested convergence on             energy=1.00D-06.
 No special actions if energy rises.

 Cycle   1  Pass 1  IDiag  1:
 E= 0.712673011665572E-01
 DIIS: error= 2.29D-04 at cycle   1 NSaved=   1.
 NSaved= 1 IEnMin= 1 EnMin= 0.712673011665572E-01 IErMin= 1 ErrMin= 2.29D-04
 ErrMax= 2.29D-04  0.00D+00 EMaxC= 1.00D-01 BMatC= 1.34D-06 BMatP= 1.34D-06
 IDIUse=3 WtCom= 9.98D-01 WtEn= 2.29D-03
 Coeff-Com:  0.100D+01
 Coeff-En:   0.100D+01
 Coeff:      0.100D+01
 RMSDP=8.98D-05 MaxDP=4.39D-04              OVMax= 0.00D+00

 Cycle   2  Pass 1  IDiag  3:
 E= 0.712665733537676E-01 Delta-E=       -0.000000727813 Rises=F Damp=F
 DIIS: error= 5.50D-05 at cycle   2 NSaved=   2.
 NSaved= 2 IEnMin= 2 EnMin= 0.712665733537676E-01 IErMin= 2 ErrMin= 5.50D-05
 ErrMax= 5.50D-05  0.00D+00 EMaxC= 1.00D-01 BMatC= 1.33D-07 BMatP= 1.34D-06
 IDIUse=1 WtCom= 1.00D+00 WtEn= 0.00D+00
 Coeff-Com: -0.182D+00 0.118D+01
 Coeff:     -0.182D+00 0.118D+01
 Gap=     0.489 Goal=   None    Shift=    0.000
 Gap=     0.295 Goal=   None    Shift=    0.000
 RMSDP=6.55D-05 MaxDP=3.36D-04 DE=-7.28D-07 OVMax= 3.69D-04

 Cycle   3  Pass 1  IDiag  3:
 E= 0.712663386163186E-01 Delta-E=       -0.000000234737 Rises=F Damp=F
 DIIS: error= 3.75D-05 at cycle   3 NSaved=   3.
 NSaved= 3 IEnMin= 3 EnMin= 0.712663386163186E-01 IErMin= 3 ErrMin= 3.75D-05
 ErrMax= 3.75D-05  0.00D+00 EMaxC= 1.00D-01 BMatC= 4.84D-08 BMatP= 1.33D-07
 IDIUse=1 WtCom= 1.00D+00 WtEn= 0.00D+00
 Coeff-Com:  0.174D+00-0.179D+01 0.261D+01
 Coeff:      0.174D+00-0.179D+01 0.261D+01
 Gap=     0.489 Goal=   None    Shift=    0.000
 Gap=     0.295 Goal=   None    Shift=    0.000
 RMSDP=1.02D-04 MaxDP=5.11D-04 DE=-2.35D-07 OVMax= 5.63D-04

 Cycle   4  Pass 1  IDiag  3:
 E= 0.712661670558603E-01 Delta-E=       -0.000000171560 Rises=F Damp=F
 DIIS: error= 1.28D-05 at cycle   4 NSaved=   4.
 NSaved= 4 IEnMin= 4 EnMin= 0.712661670558603E-01 IErMin= 4 ErrMin= 1.28D-05
 ErrMax= 1.28D-05  0.00D+00 EMaxC= 1.00D-01 BMatC= 4.56D-09 BMatP= 4.84D-08
 IDIUse=1 WtCom= 1.00D+00 WtEn= 0.00D+00
 Coeff-Com: -0.809D-01 0.830D+00-0.138D+01 0.164D+01
 Coeff:     -0.809D-01 0.830D+00-0.138D+01 0.164D+01
 Gap=     0.489 Goal=   None    Shift=    0.000
 Gap=     0.295 Goal=   None    Shift=    0.000
 RMSDP=2.90D-05 MaxDP=1.68D-04 DE=-1.72D-07 OVMax= 1.82D-04

 Cycle   5  Pass 1  IDiag  3:
 E= 0.712661498138729E-01 Delta-E=       -0.000000017242 Rises=F Damp=F
 DIIS: error= 1.07D-05 at cycle   5 NSaved=   5.
 NSaved= 5 IEnMin= 5 EnMin= 0.712661498138729E-01 IErMin= 5 ErrMin= 1.07D-05
 ErrMax= 1.07D-05  0.00D+00 EMaxC= 1.00D-01 BMatC= 1.68D-09 BMatP= 4.56D-09
 IDIUse=1 WtCom= 1.00D+00 WtEn= 0.00D+00
 Coeff-Com:  0.645D-01-0.670D+00 0.118D+01-0.193D+01 0.235D+01
 Coeff:      0.645D-01-0.670D+00 0.118D+01-0.193D+01 0.235D+01
 Gap=     0.489 Goal=   None    Shift=    0.000
 Gap=     0.295 Goal=   None    Shift=    0.000
 RMSDP=2.26D-05 MaxDP=1.18D-04 DE=-1.72D-08 OVMax= 1.79D-04

 Cycle   6  Pass 1  IDiag  3:
 E= 0.712661410241466E-01 Delta-E=       -0.000000008790 Rises=F Damp=F
 DIIS: error= 7.20D-06 at cycle   6 NSaved=   6.
 NSaved= 6 IEnMin= 6 EnMin= 0.712661410241466E-01 IErMin= 6 ErrMin= 7.20D-06
 ErrMax= 7.20D-06  0.00D+00 EMaxC= 1.00D-01 BMatC= 6.84D-10 BMatP= 1.68D-09
 IDIUse=1 WtCom= 1.00D+00 WtEn= 0.00D+00
 Coeff-Com: -0.941D-01 0.996D+00-0.181D+01 0.327D+01-0.470D+01 0.334D+01
 Coeff:     -0.941D-01 0.996D+00-0.181D+01 0.327D+01-0.470D+01 0.334D+01
 Gap=     0.489 Goal=   None    Shift=    0.000
 Gap=     0.295 Goal=   None    Shift=    0.000
 RMSDP=2.35D-05 MaxDP=1.43D-04 DE=-8.79D-09 OVMax= 1.90D-04

 Cycle   7  Pass 1  IDiag  3:
 E= 0.712661357399966E-01 Delta-E=       -0.000000005284 Rises=F Damp=F
 DIIS: error= 3.10D-06 at cycle   7 NSaved=   7.
 NSaved= 7 IEnMin= 7 EnMin= 0.712661357399966E-01 IErMin= 7 ErrMin= 3.10D-06
 ErrMax= 3.10D-06  0.00D+00 EMaxC= 1.00D-01 BMatC= 1.57D-10 BMatP= 6.84D-10
 IDIUse=1 WtCom= 1.00D+00 WtEn= 0.00D+00
 Coeff-Com:  0.641D-01-0.683D+00 0.125D+01-0.235D+01 0.360D+01-0.335D+01
 Coeff-Com:  0.247D+01
 Coeff:      0.641D-01-0.683D+00 0.125D+01-0.235D+01 0.360D+01-0.335D+01
 Coeff:      0.247D+01
 Gap=     0.489 Goal=   None    Shift=    0.000
 Gap=     0.295 Goal=   None    Shift=    0.000
 RMSDP=1.60D-05 MaxDP=9.99D-05 DE=-5.28D-09 OVMax= 1.30D-04

 Cycle   8  Pass 1  IDiag  3:
 E= 0.712661344780159E-01 Delta-E=       -0.000000001262 Rises=F Damp=F
 DIIS: error= 7.62D-07 at cycle   8 NSaved=   8.
 NSaved= 8 IEnMin= 8 EnMin= 0.712661344780159E-01 IErMin= 8 ErrMin= 7.62D-07
 ErrMax= 7.62D-07  0.00D+00 EMaxC= 1.00D-01 BMatC= 1.11D-11 BMatP= 1.57D-10
 IDIUse=1 WtCom= 1.00D+00 WtEn= 0.00D+00
 Coeff-Com: -0.679D-01 0.728D+00-0.133D+01 0.247D+01-0.375D+01 0.345D+01
 Coeff-Com: -0.258D+01 0.209D+01
 Coeff:     -0.679D-01 0.728D+00-0.133D+01 0.247D+01-0.375D+01 0.345D+01
 Coeff:     -0.258D+01 0.209D+01
 Gap=     0.489 Goal=   None    Shift=    0.000
 Gap=     0.295 Goal=   None    Shift=    0.000
 RMSDP=2.17D-06 MaxDP=1.13D-05 DE=-1.26D-09 OVMax= 1.38D-05

 Cycle   9  Pass 1  IDiag  3:
 E= 0.712661344203198E-01 Delta-E=       -0.000000000058 Rises=F Damp=F
 DIIS: error= 5.37D-07 at cycle   9 NSaved=   9.
 NSaved= 9 IEnMin= 9 EnMin= 0.712661344203198E-01 IErMin= 9 ErrMin= 5.37D-07
 ErrMax= 5.37D-07  0.00D+00 EMaxC= 1.00D-01 BMatC= 3.60D-12 BMatP= 1.11D-11
 IDIUse=1 WtCom= 1.00D+00 WtEn= 0.00D+00
 Coeff-Com:  0.139D+00-0.149D+01 0.272D+01-0.506D+01 0.769D+01-0.706D+01
 Coeff-Com:  0.530D+01-0.488D+01 0.364D+01
 Coeff:      0.139D+00-0.149D+01 0.272D+01-0.506D+01 0.769D+01-0.706D+01
 Coeff:      0.530D+01-0.488D+01 0.364D+01
 Gap=     0.489 Goal=   None    Shift=    0.000
 Gap=     0.295 Goal=   None    Shift=    0.000
 RMSDP=2.27D-06 MaxDP=1.49D-05 DE=-5.77D-11 OVMax= 1.92D-05

 Cycle  10  Pass 1  IDiag  3:
 E= 0.712661343841674E-01 Delta-E=       -0.000000000036 Rises=F Damp=F
 DIIS: error= 1.79D-07 at cycle  10 NSaved=  10.
 NSaved=10 IEnMin=10 EnMin= 0.712661343841674E-01 IErMin=10 ErrMin= 1.79D-07
 ErrMax= 1.79D-07  0.00D+00 EMaxC= 1.00D-01 BMatC= 5.90D-13 BMatP= 3.60D-12
 IDIUse=1 WtCom= 1.00D+00 WtEn= 0.00D+00
 Large coefficients: NSaved= 10 BigCof=   10.57 CofMax=   10.00 Det=-3.06D-15
 Inversion failed.  Reducing to  9 matrices.
 Coeff-Com:  0.458D-03-0.154D-02 0.832D-02-0.183D-01 0.175D-01-0.132D-01
 Coeff-Com:  0.108D+00-0.471D+00 0.137D+01
 Coeff:      0.458D-03-0.154D-02 0.832D-02-0.183D-01 0.175D-01-0.132D-01
 Coeff:      0.108D+00-0.471D+00 0.137D+01
 Gap=     0.489 Goal=   None    Shift=    0.000
 Gap=     0.295 Goal=   None    Shift=    0.000
 RMSDP=7.71D-07 MaxDP=5.03D-06 DE=-3.62D-11 OVMax= 6.76D-06

 Cycle  11  Pass 1  IDiag  3:
 E= 0.712661343793215E-01 Delta-E=       -0.000000000005 Rises=F Damp=F
 DIIS: error= 8.37D-08 at cycle  11 NSaved=  10.
 NSaved=10 IEnMin=10 EnMin= 0.712661343793215E-01 IErMin=10 ErrMin= 8.37D-08
 ErrMax= 8.37D-08  0.00D+00 EMaxC= 1.00D-01 BMatC= 1.35D-13 BMatP= 5.90D-13
 IDIUse=1 WtCom= 1.00D+00 WtEn= 0.00D+00
 Coeff-Com: -0.324D-03 0.141D-02-0.767D-02 0.152D-01-0.119D-01 0.285D-02
 Coeff-Com: -0.298D-01 0.218D+00-0.136D+01 0.217D+01
 Coeff:     -0.324D-03 0.141D-02-0.767D-02 0.152D-01-0.119D-01 0.285D-02
 Coeff:     -0.298D-01 0.218D+00-0.136D+01 0.217D+01
 Gap=     0.489 Goal=   None    Shift=    0.000
 Gap=     0.295 Goal=   None    Shift=    0.000
 RMSDP=5.36D-07 MaxDP=3.41D-06 DE=-4.85D-12 OVMax= 4.70D-06

 Cycle  12  Pass 1  IDiag  3:
 E= 0.712661343782628E-01 Delta-E=       -0.000000000001 Rises=F Damp=F
 DIIS: error= 5.96D-09 at cycle  12 NSaved=  11.
 NSaved=11 IEnMin=11 EnMin= 0.712661343782628E-01 IErMin=11 ErrMin= 5.96D-09
 ErrMax= 5.96D-09  0.00D+00 EMaxC= 1.00D-01 BMatC= 1.12D-15 BMatP= 1.35D-13
 IDIUse=1 WtCom= 1.00D+00 WtEn= 0.00D+00
 Coeff-Com:  0.783D-04-0.440D-03 0.276D-02-0.500D-02 0.190D-02 0.294D-02
 Coeff-Com:  0.172D-01-0.150D+00 0.921D+00-0.146D+01 0.167D+01
 Coeff:      0.783D-04-0.440D-03 0.276D-02-0.500D-02 0.190D-02 0.294D-02
 Coeff:      0.172D-01-0.150D+00 0.921D+00-0.146D+01 0.167D+01
 Gap=     0.489 Goal=   None    Shift=    0.000
 Gap=     0.295 Goal=   None    Shift=    0.000
 RMSDP=1.04D-08 MaxDP=5.61D-08 DE=-1.06D-12 OVMax= 6.27D-08

 Cycle  13  Pass 1  IDiag  3:
 E= 0.712661343782699E-01 Delta-E=        0.000000000000 Rises=F Damp=F
 DIIS: error= 1.32D-09 at cycle  13 NSaved=  12.
 NSaved=12 IEnMin=11 EnMin= 0.712661343782628E-01 IErMin=12 ErrMin= 1.32D-09
 ErrMax= 1.32D-09  0.00D+00 EMaxC= 1.00D-01 BMatC= 4.65D-17 BMatP= 1.12D-15
 IDIUse=1 WtCom= 1.00D+00 WtEn= 0.00D+00
 Coeff-Com: -0.335D-04 0.232D-03-0.158D-02 0.283D-02-0.773D-03-0.220D-02
 Coeff-Com: -0.108D-01 0.969D-01-0.593D+00 0.941D+00-0.113D+01 0.170D+01
 Coeff:     -0.335D-04 0.232D-03-0.158D-02 0.283D-02-0.773D-03-0.220D-02
 Coeff:     -0.108D-01 0.969D-01-0.593D+00 0.941D+00-0.113D+01 0.170D+01
 Gap=     0.489 Goal=   None    Shift=    0.000
 Gap=     0.295 Goal=   None    Shift=    0.000
 RMSDP=3.29D-09 MaxDP=2.12D-08 DE= 7.11D-15 OVMax= 2.60D-08

 Cycle  14  Pass 2  IDiag  1:
 SCF Done:  E(UPM3) =  0.712661343783E-01 A.U. after   14 cycles
            NFock= 13  Conv=0.33D-08     -V/T= 1.0020
 <Sx>= 0.0000 <Sy>= 0.0000 <Sz>= 1.0000 <S**2>= 2.0232 S= 1.0077
 <L.S>= 0.000000000000E+00
 KE=-3.548877575020D+01 PE=-2.451553681406D+01 EE= 2.434430131164D+01
 Annihilation of the first spin contaminant:
 S**2 before annihilation     2.0232,   after     2.0000
 Leave Link  502 at Wed Oct 28 15:31:47 2020, MaxMem=  2684354560 cpu:               1.4 elap:               0.2
 (Enter /udrive/faculty/rpeverati/g16/g16/l701.exe)
 ... and contract with generalized density number  0.
 Compute integral first derivatives.
 Leave Link  701 at Wed Oct 28 15:31:47 2020, MaxMem=  2684354560 cpu:               1.5 elap:               0.2
 (Enter /udrive/faculty/rpeverati/g16/g16/l702.exe)
 L702 exits ... SP integral derivatives will be done elsewhere.
 Leave Link  702 at Wed Oct 28 15:31:47 2020, MaxMem=  2684354560 cpu:               0.8 elap:               0.1
 (Enter /udrive/faculty/rpeverati/g16/g16/l703.exe)
 Integral derivatives from FoFJK, PRISM(SPDF).
 Compute integral first derivatives, UseDBF=F ICtDFT=           0.
 Calling FoFJK, ICntrl=      2127 FMM=F ISym2X=1 I1Cent= 0 IOpClX= 1 NMat=1 NMatS=1 NMatT=0.
 FoFJK:  IHMeth= 9 ICntrl=    2127 DoSepK=F KAlg= 0 I1Cent=           0 FoldK=F
 IRaf=         0 NMat=       1 IRICut=       1 DoRegI=T DoRafI=F ISym2E= 1 IDoP0=3 IntGTp=3.
 FoFCou: FMM=F IPFlag=           0 FMFlag=      100000 FMFlg1=         800
         NFxFlg=           0 DoJE=F BraDBF=F KetDBF=F FulRan=T
         wScrn=  0.000000 ICntrl=      2127 IOpCl=  1 I1Cent=           0 NGrid=           0
         NMat0=    1 NMatS0=      1 NMatT0=    0 NMatD0=    1 NMtDS0=    0 NMtDT0=    0
 Petite list used in FoFCou.
 Leave Link  703 at Wed Oct 28 15:31:47 2020, MaxMem=  2684354560 cpu:               0.9 elap:               0.1
 (Enter /udrive/faculty/rpeverati/g16/g16/l716.exe)
 Dipole        =-2.76942099D-01 1.34207811D-02 1.68416467D-16
 ***** Axes restored to original set *****
 -------------------------------------------------------------------
 Center     Atomic                   Forces (Hartrees/Bohr)
 Number     Number              X              Y              Z
 -------------------------------------------------------------------
      1       17           0.001656916   -0.014480928    0.000000000
      2        1           0.015695135    0.043539875   -0.000000000
      3        8          -0.017352051   -0.029058947    0.000000000
 -------------------------------------------------------------------
 Cartesian Forces:  Max     0.043539875 RMS     0.019720313
 Leave Link  716 at Wed Oct 28 15:31:47 2020, MaxMem=  2684354560 cpu:               0.8 elap:               0.1
 (Enter /udrive/faculty/rpeverati/g16/g16/l103.exe)

 GradGradGradGradGradGradGradGradGradGradGradGradGradGradGradGradGradGrad
 Berny optimization.
 Optmz: redundant internal coordinate code flag= 1
 Red2BG:  D1=  6.38D-01 OD1=  7.48D-04 B2RMS=  0.00D+00 IAprox=0
 FormGI is forming the generalized inverse of G from B-inverse, IUseBI=4.
 Internal  Forces:  Max     0.033609228 RMS     0.021705911
 Numerically estimating second derivatives.
 Iteration  1 RMS(Cart)=  0.00229440 RMS(Int)=  0.00000036
 Iteration  2 RMS(Cart)=  0.00000038 RMS(Int)=  0.00000000
 Largest change from initial coordinates is atom    2       0.001 Angstoms.
 GradGradGradGradGradGradGradGradGradGradGradGradGradGradGradGradGradGrad

 Leave Link  103 at Wed Oct 28 15:31:47 2020, MaxMem=  2684354560 cpu:               0.4 elap:               0.1
 (Enter /udrive/faculty/rpeverati/g16/g16/l202.exe)
                          Input orientation:                          
 ---------------------------------------------------------------------
 Center     Atomic      Atomic             Coordinates (Angstroms)
 Number     Number       Type             X           Y           Z
 ---------------------------------------------------------------------
      1         17           0        0.018826   -0.816543    0.000000
      2          1           0       -0.470102    0.570374    0.000000
      3          8           0        0.018428    1.663925    0.000000
 ---------------------------------------------------------------------
                    Distance matrix (angstroms):
                    1          2          3
     1  Cl   0.000000
     2  H    1.470575   0.000000
     3  O    2.480468   1.197712   0.000000
 Stoichiometry    ClHO(3)
 Framework group  CS[SG(ClHO)]
 Deg. of freedom     3
 Full point group                 CS      NOp   2
 RotChk:  IX=0 Diff= 4.21D-05
 Largest Abelian subgroup         CS      NOp   2
 Largest concise Abelian subgroup C1      NOp   1
                         Standard orientation:                         
 ---------------------------------------------------------------------
 Center     Atomic      Atomic             Coordinates (Angstroms)
 Number     Number       Type             X           Y           Z
 ---------------------------------------------------------------------
      1         17           0        0.018796   -0.816567    0.000000
      2          1           0       -0.469909    0.570429    0.000000
      3          8           0        0.018796    1.663901    0.000000
 ---------------------------------------------------------------------
 Rotational constants (GHZ):        2152.7712193           7.4437689           7.4181189
 Leave Link  202 at Wed Oct 28 15:31:47 2020, MaxMem=  2684354560 cpu:               0.2 elap:               0.1
 (Enter /udrive/faculty/rpeverati/g16/g16/l301.exe)
 Standard basis: VSTO-6G (5D, 7F)
 Ernie: Thresh=  0.10000D-02 Tol=  0.10000D-05 Strict=F.
  NNHCO=     0 NNPyr=     0 NCTC=     0               EPep=         0.000000000
    EC=        12.622957404  ECS=         0.177215047   EG=         0.032064550
   EHC=         0.000000000  EAt=       -22.696767356  AtH=         0.224141636
 EPDDG=         0.000000000  ECC=        12.832237001 EAtT=        22.920908991
 There are     7 symmetry adapted cartesian basis functions of A'  symmetry.
 There are     2 symmetry adapted cartesian basis functions of A"  symmetry.
 There are     7 symmetry adapted basis functions of A'  symmetry.
 There are     2 symmetry adapted basis functions of A"  symmetry.
     9 basis functions,    54 primitive gaussians,     9 cartesian basis functions
     8 alpha electrons        6 beta electrons
       nuclear repulsion energy        35.7531459923 Hartrees.
 IExCor=    0 DFT=F Ex=HF Corr=None ExCW=0 ScaHFX=  1.000000
 ScaDFX=  1.000000  1.000000  1.000000  1.000000 ScalE2=  1.000000  1.000000
 IRadAn=      5 IRanWt=     -1 IRanGd=            0 ICorTp=0 IEmpDi=  4
 Integral buffers will be    131072 words long.
 Regular integral format.
 Two-electron integral symmetry is turned off.
 Leave Link  301 at Wed Oct 28 15:31:48 2020, MaxMem=  2684354560 cpu:               1.5 elap:               0.2
 (Enter /udrive/faculty/rpeverati/g16/g16/l302.exe)
 Do NDO integrals.
 NPDir=0 NMtPBC=     1 NCelOv=     1 NCel=       1 NClECP=     1 NCelD=      1
         NCelK=      1 NCelE2=     1 NClLst=     1 CellRange=     0.0.
 One-electron integrals computed using PRISM.
 NBasis=     9 RedAO= T EigKep=  1.00D+00  NBF=     7     2
 NBsUse=     9 1.00D-06 EigRej= -1.00D+00 NBFU=     7     2
 Leave Link  302 at Wed Oct 28 15:31:48 2020, MaxMem=  2684354560 cpu:               1.9 elap:               0.2
 (Enter /udrive/faculty/rpeverati/g16/g16/l303.exe)
 DipDrv:  MaxL=1.
 Leave Link  303 at Wed Oct 28 15:31:48 2020, MaxMem=  2684354560 cpu:               0.8 elap:               0.1
 (Enter /udrive/faculty/rpeverati/g16/g16/l401.exe)
 Initial guess from the checkpoint file:  "MN_91_RKT17_BH76_PM3_SE.chk"
 SCF N**3 symmetry information disabled.
 B after Tr=    -0.000000   -0.000000    0.000000
         Rot=    1.000000    0.000000    0.000000    0.000002 Ang=   0.00 deg.
 Guess basis will be translated and rotated to current coordinates.
 JPrj=0 DoOrth=T DoCkMO=T.
 Initial guess orbital symmetries:
 Alpha Orbitals:
       Occupied  (A') (A') (A') (A") (A') (A') (A") (A')
       Virtual   (A')
 Beta  Orbitals:
       Occupied  (A') (A') (A') (A') (A") (A')
       Virtual   (A') (A") (A')
 The electronic state of the initial guess is 3-A".
 Initial guess <Sx>= 0.0000 <Sy>= 0.0000 <Sz>= 1.0000 <S**2>= 2.0232 S= 1.0077
 Leave Link  401 at Wed Oct 28 15:31:48 2020, MaxMem=  2684354560 cpu:               2.2 elap:               0.2
 (Enter /udrive/faculty/rpeverati/g16/g16/l502.exe)
 Keep J ints in memory in canonical form, NReq=859290.
 FoFCou: FMM=F IPFlag=           0 FMFlag=           0 FMFlg1=           0
         NFxFlg=           0 DoJE=F BraDBF=F KetDBF=F FulRan=T
         wScrn=  0.000000 ICntrl=       600 IOpCl=  2 I1Cent=           0 NGrid=           0
         NMat0=    1 NMatS0=     21 NMatT0=    0 NMatD0=    1 NMtDS0=    0 NMtDT0=    0
 Symmetry not used in FoFCou.
 Two-electron integral symmetry not used.
 UHF open shell SCF:
 Using DIIS extrapolation, IDIIS=  1040.
 Overlap will be assumed to be unity.
 NGot=  2684354560 LenX=  2684293973 LenY=  2684293091
 Requested convergence on RMS density matrix=1.00D-08 within 120 cycles.
 Requested convergence on MAX density matrix=1.00D-06.
 Requested convergence on             energy=1.00D-06.
 No special actions if energy rises.

 Cycle   1  Pass 1  IDiag  1:
 E= 0.711737658104212E-01
 DIIS: error= 2.11D-04 at cycle   1 NSaved=   1.
 NSaved= 1 IEnMin= 1 EnMin= 0.711737658104212E-01 IErMin= 1 ErrMin= 2.11D-04
 ErrMax= 2.11D-04  0.00D+00 EMaxC= 1.00D-01 BMatC= 1.86D-06 BMatP= 1.86D-06
 IDIUse=3 WtCom= 9.98D-01 WtEn= 2.11D-03
 Coeff-Com:  0.100D+01
 Coeff-En:   0.100D+01
 Coeff:      0.100D+01
 RMSDP=1.05D-04 MaxDP=3.82D-04              OVMax= 0.00D+00

 Cycle   2  Pass 1  IDiag  3:
 E= 0.711727332091243E-01 Delta-E=       -0.000001032601 Rises=F Damp=F
 DIIS: error= 6.34D-05 at cycle   2 NSaved=   2.
 NSaved= 2 IEnMin= 2 EnMin= 0.711727332091243E-01 IErMin= 2 ErrMin= 6.34D-05
 ErrMax= 6.34D-05  0.00D+00 EMaxC= 1.00D-01 BMatC= 1.44D-07 BMatP= 1.86D-06
 IDIUse=1 WtCom= 1.00D+00 WtEn= 0.00D+00
 Coeff-Com: -0.217D+00 0.122D+01
 Coeff:     -0.217D+00 0.122D+01
 Gap=     0.490 Goal=   None    Shift=    0.000
 Gap=     0.295 Goal=   None    Shift=    0.000
 RMSDP=5.50D-05 MaxDP=2.43D-04 DE=-1.03D-06 OVMax= 3.05D-04

 Cycle   3  Pass 1  IDiag  3:
 E= 0.711725611717853E-01 Delta-E=       -0.000000172037 Rises=F Damp=F
 DIIS: error= 3.27D-05 at cycle   3 NSaved=   3.
 NSaved= 3 IEnMin= 3 EnMin= 0.711725611717853E-01 IErMin= 3 ErrMin= 3.27D-05
 ErrMax= 3.27D-05  0.00D+00 EMaxC= 1.00D-01 BMatC= 2.47D-08 BMatP= 1.44D-07
 IDIUse=1 WtCom= 1.00D+00 WtEn= 0.00D+00
 Coeff-Com:  0.963D-01-0.733D+00 0.164D+01
 Coeff:      0.963D-01-0.733D+00 0.164D+01
 Gap=     0.490 Goal=   None    Shift=    0.000
 Gap=     0.295 Goal=   None    Shift=    0.000
 RMSDP=4.18D-05 MaxDP=1.58D-04 DE=-1.72D-07 OVMax= 1.98D-04

 Cycle   4  Pass 1  IDiag  3:
 E= 0.711725041151610E-01 Delta-E=       -0.000000057057 Rises=F Damp=F
 DIIS: error= 1.09D-05 at cycle   4 NSaved=   4.
 NSaved= 4 IEnMin= 4 EnMin= 0.711725041151610E-01 IErMin= 4 ErrMin= 1.09D-05
 ErrMax= 1.09D-05  0.00D+00 EMaxC= 1.00D-01 BMatC= 5.76D-09 BMatP= 2.47D-08
 IDIUse=1 WtCom= 1.00D+00 WtEn= 0.00D+00
 Coeff-Com: -0.583D-01 0.507D+00-0.152D+01 0.207D+01
 Coeff:     -0.583D-01 0.507D+00-0.152D+01 0.207D+01
 Gap=     0.490 Goal=   None    Shift=    0.000
 Gap=     0.295 Goal=   None    Shift=    0.000
 RMSDP=3.56D-05 MaxDP=1.52D-04 DE=-5.71D-08 OVMax= 2.24D-04

 Cycle   5  Pass 1  IDiag  3:
 E= 0.711724796736846E-01 Delta-E=       -0.000000024441 Rises=F Damp=F
 DIIS: error= 9.36D-06 at cycle   5 NSaved=   5.
 NSaved= 5 IEnMin= 5 EnMin= 0.711724796736846E-01 IErMin= 5 ErrMin= 9.36D-06
 ErrMax= 9.36D-06  0.00D+00 EMaxC= 1.00D-01 BMatC= 1.85D-09 BMatP= 5.76D-09
 IDIUse=1 WtCom= 1.00D+00 WtEn= 0.00D+00
 Coeff-Com:  0.956D-01-0.851D+00 0.265D+01-0.403D+01 0.314D+01
 Coeff:      0.956D-01-0.851D+00 0.265D+01-0.403D+01 0.314D+01
 Gap=     0.490 Goal=   None    Shift=    0.000
 Gap=     0.295 Goal=   None    Shift=    0.000
 RMSDP=3.60D-05 MaxDP=1.80D-04 DE=-2.44D-08 OVMax= 2.56D-04

 Cycle   6  Pass 1  IDiag  3:
 E= 0.711724656682904E-01 Delta-E=       -0.000000014005 Rises=F Damp=F
 DIIS: error= 5.06D-06 at cycle   6 NSaved=   6.
 NSaved= 6 IEnMin= 6 EnMin= 0.711724656682904E-01 IErMin= 6 ErrMin= 5.06D-06
 ErrMax= 5.06D-06  0.00D+00 EMaxC= 1.00D-01 BMatC= 5.53D-10 BMatP= 1.85D-09
 IDIUse=1 WtCom= 1.00D+00 WtEn= 0.00D+00
 Coeff-Com: -0.799D-01 0.733D+00-0.233D+01 0.367D+01-0.346D+01 0.247D+01
 Coeff:     -0.799D-01 0.733D+00-0.233D+01 0.367D+01-0.346D+01 0.247D+01
 Gap=     0.490 Goal=   None    Shift=    0.000
 Gap=     0.295 Goal=   None    Shift=    0.000
 RMSDP=2.51D-05 MaxDP=1.30D-04 DE=-1.40D-08 OVMax= 1.79D-04

 Cycle   7  Pass 1  IDiag  3:
 E= 0.711724608440889E-01 Delta-E=       -0.000000004824 Rises=F Damp=F
 DIIS: error= 2.13D-06 at cycle   7 NSaved=   7.
 NSaved= 7 IEnMin= 7 EnMin= 0.711724608440889E-01 IErMin= 7 ErrMin= 2.13D-06
 ErrMax= 2.13D-06  0.00D+00 EMaxC= 1.00D-01 BMatC= 1.45D-10 BMatP= 5.53D-10
 IDIUse=1 WtCom= 1.00D+00 WtEn= 0.00D+00
 Coeff-Com:  0.770D-01-0.710D+00 0.228D+01-0.366D+01 0.366D+01-0.332D+01
 Coeff-Com:  0.267D+01
 Coeff:      0.770D-01-0.710D+00 0.228D+01-0.366D+01 0.366D+01-0.332D+01
 Coeff:      0.267D+01
 Gap=     0.490 Goal=   None    Shift=    0.000
 Gap=     0.295 Goal=   None    Shift=    0.000
 RMSDP=1.46D-05 MaxDP=7.15D-05 DE=-4.82D-09 OVMax= 9.55D-05

 Cycle   8  Pass 1  IDiag  3:
 E= 0.711724596629395E-01 Delta-E=       -0.000000001181 Rises=F Damp=F
 DIIS: error= 8.09D-07 at cycle   8 NSaved=   8.
 NSaved= 8 IEnMin= 8 EnMin= 0.711724596629395E-01 IErMin= 8 ErrMin= 8.09D-07
 ErrMax= 8.09D-07  0.00D+00 EMaxC= 1.00D-01 BMatC= 2.07D-11 BMatP= 1.45D-10
 IDIUse=1 WtCom= 1.00D+00 WtEn= 0.00D+00
 Coeff-Com: -0.537D-01 0.491D+00-0.157D+01 0.253D+01-0.258D+01 0.247D+01
 Coeff-Com: -0.243D+01 0.214D+01
 Coeff:     -0.537D-01 0.491D+00-0.157D+01 0.253D+01-0.258D+01 0.247D+01
 Coeff:     -0.243D+01 0.214D+01
 Gap=     0.490 Goal=   None    Shift=    0.000
 Gap=     0.295 Goal=   None    Shift=    0.000
 RMSDP=4.54D-06 MaxDP=2.16D-05 DE=-1.18D-09 OVMax= 3.15D-05

 Cycle   9  Pass 1  IDiag  3:
 E= 0.711724595446768E-01 Delta-E=       -0.000000000118 Rises=F Damp=F
 DIIS: error= 3.98D-07 at cycle   9 NSaved=   9.
 NSaved= 9 IEnMin= 9 EnMin= 0.711724595446768E-01 IErMin= 9 ErrMin= 3.98D-07
 ErrMax= 3.98D-07  0.00D+00 EMaxC= 1.00D-01 BMatC= 3.96D-12 BMatP= 2.07D-11
 IDIUse=1 WtCom= 1.00D+00 WtEn= 0.00D+00
 Coeff-Com:  0.956D-01-0.875D+00 0.279D+01-0.451D+01 0.459D+01-0.442D+01
 Coeff-Com:  0.441D+01-0.411D+01 0.301D+01
 Coeff:      0.956D-01-0.875D+00 0.279D+01-0.451D+01 0.459D+01-0.442D+01
 Coeff:      0.441D+01-0.411D+01 0.301D+01
 Gap=     0.490 Goal=   None    Shift=    0.000
 Gap=     0.295 Goal=   None    Shift=    0.000
 RMSDP=1.45D-06 MaxDP=6.51D-06 DE=-1.18D-10 OVMax= 8.87D-06

 Cycle  10  Pass 1  IDiag  3:
 E= 0.711724595183512E-01 Delta-E=       -0.000000000026 Rises=F Damp=F
 DIIS: error= 2.25D-07 at cycle  10 NSaved=  10.
 NSaved=10 IEnMin=10 EnMin= 0.711724595183512E-01 IErMin=10 ErrMin= 2.25D-07
 ErrMax= 2.25D-07  0.00D+00 EMaxC= 1.00D-01 BMatC= 1.11D-12 BMatP= 3.96D-12
 IDIUse=1 WtCom= 1.00D+00 WtEn= 0.00D+00
 Coeff-Com: -0.115D+00 0.106D+01-0.338D+01 0.546D+01-0.556D+01 0.535D+01
 Coeff-Com: -0.536D+01 0.507D+01-0.437D+01 0.285D+01
 Coeff:     -0.115D+00 0.106D+01-0.338D+01 0.546D+01-0.556D+01 0.535D+01
 Coeff:     -0.536D+01 0.507D+01-0.437D+01 0.285D+01
 Gap=     0.490 Goal=   None    Shift=    0.000
 Gap=     0.295 Goal=   None    Shift=    0.000
 RMSDP=1.21D-06 MaxDP=6.55D-06 DE=-2.63D-11 OVMax= 8.05D-06

 Cycle  11  Pass 1  IDiag  3:
 E= 0.711724595089791E-01 Delta-E=       -0.000000000009 Rises=F Damp=F
 DIIS: error= 5.14D-08 at cycle  11 NSaved=  11.
 NSaved=11 IEnMin=11 EnMin= 0.711724595089791E-01 IErMin=11 ErrMin= 5.14D-08
 ErrMax= 5.14D-08  0.00D+00 EMaxC= 1.00D-01 BMatC= 9.22D-14 BMatP= 1.11D-12
 IDIUse=1 WtCom= 1.00D+00 WtEn= 0.00D+00
 Coeff-Com:  0.642D-01-0.588D+00 0.188D+01-0.303D+01 0.309D+01-0.297D+01
 Coeff-Com:  0.298D+01-0.282D+01 0.247D+01-0.190D+01 0.184D+01
 Coeff:      0.642D-01-0.588D+00 0.188D+01-0.303D+01 0.309D+01-0.297D+01
 Coeff:      0.298D+01-0.282D+01 0.247D+01-0.190D+01 0.184D+01
 Gap=     0.490 Goal=   None    Shift=    0.000
 Gap=     0.295 Goal=   None    Shift=    0.000
 RMSDP=3.35D-07 MaxDP=1.54D-06 DE=-9.37D-12 OVMax= 2.18D-06

 Cycle  12  Pass 1  IDiag  3:
 E= 0.711724595084320E-01 Delta-E=       -0.000000000001 Rises=F Damp=F
 DIIS: error= 9.25D-09 at cycle  12 NSaved=  12.
 NSaved=12 IEnMin=12 EnMin= 0.711724595084320E-01 IErMin=12 ErrMin= 9.25D-09
 ErrMax= 9.25D-09  0.00D+00 EMaxC= 1.00D-01 BMatC= 2.32D-15 BMatP= 9.22D-14
 IDIUse=1 WtCom= 1.00D+00 WtEn= 0.00D+00
 Coeff-Com: -0.280D-01 0.256D+00-0.819D+00 0.132D+01-0.135D+01 0.130D+01
 Coeff-Com: -0.130D+01 0.123D+01-0.108D+01 0.860D+00-0.972D+00 0.158D+01
 Coeff:     -0.280D-01 0.256D+00-0.819D+00 0.132D+01-0.135D+01 0.130D+01
 Coeff:     -0.130D+01 0.123D+01-0.108D+01 0.860D+00-0.972D+00 0.158D+01
 Gap=     0.490 Goal=   None    Shift=    0.000
 Gap=     0.295 Goal=   None    Shift=    0.000
 RMSDP=2.51D-08 MaxDP=1.14D-07 DE=-5.47D-13 OVMax= 1.68D-07

 Cycle  13  Pass 1  IDiag  3:
 E= 0.711724595084178E-01 Delta-E=       -0.000000000000 Rises=F Damp=F
 DIIS: error= 1.46D-09 at cycle  13 NSaved=  13.
 NSaved=13 IEnMin=13 EnMin= 0.711724595084178E-01 IErMin=13 ErrMin= 1.46D-09
 ErrMax= 1.46D-09  0.00D+00 EMaxC= 1.00D-01 BMatC= 3.89D-17 BMatP= 2.32D-15
 IDIUse=1 WtCom= 1.00D+00 WtEn= 0.00D+00
 Coeff-Com:  0.404D-02-0.370D-01 0.118D+00-0.191D+00 0.195D+00-0.188D+00
 Coeff-Com:  0.188D+00-0.177D+00 0.155D+00-0.124D+00 0.146D+00-0.302D+00
 Coeff-Com:  0.121D+01
 Coeff:      0.404D-02-0.370D-01 0.118D+00-0.191D+00 0.195D+00-0.188D+00
 Coeff:      0.188D+00-0.177D+00 0.155D+00-0.124D+00 0.146D+00-0.302D+00
 Coeff:      0.121D+01
 Gap=     0.490 Goal=   None    Shift=    0.000
 Gap=     0.295 Goal=   None    Shift=    0.000
 RMSDP=2.18D-09 MaxDP=1.23D-08 DE=-1.42D-14 OVMax= 1.24D-08

 Cycle  14  Pass 2  IDiag  1:
 SCF Done:  E(UPM3) =  0.711724595084E-01 A.U. after   14 cycles
            NFock= 13  Conv=0.22D-08     -V/T= 1.0020
 <Sx>= 0.0000 <Sy>= 0.0000 <Sz>= 1.0000 <S**2>= 2.0229 S= 1.0076
 <L.S>= 0.000000000000E+00
 KE=-3.549163874529D+01 PE=-2.455243061414D+01 EE= 2.436209582662D+01
 Annihilation of the first spin contaminant:
 S**2 before annihilation     2.0229,   after     2.0000
 Leave Link  502 at Wed Oct 28 15:31:48 2020, MaxMem=  2684354560 cpu:               1.5 elap:               0.2
 (Enter /udrive/faculty/rpeverati/g16/g16/l701.exe)
 ... and contract with generalized density number  0.
 Compute integral first derivatives.
 Leave Link  701 at Wed Oct 28 15:31:49 2020, MaxMem=  2684354560 cpu:               1.6 elap:               0.2
 (Enter /udrive/faculty/rpeverati/g16/g16/l702.exe)
 L702 exits ... SP integral derivatives will be done elsewhere.
 Leave Link  702 at Wed Oct 28 15:31:49 2020, MaxMem=  2684354560 cpu:               0.8 elap:               0.1
 (Enter /udrive/faculty/rpeverati/g16/g16/l703.exe)
 Integral derivatives from FoFJK, PRISM(SPDF).
 Compute integral first derivatives, UseDBF=F ICtDFT=           0.
 Calling FoFJK, ICntrl=      2127 FMM=F ISym2X=1 I1Cent= 0 IOpClX= 1 NMat=1 NMatS=1 NMatT=0.
 FoFJK:  IHMeth= 9 ICntrl=    2127 DoSepK=F KAlg= 0 I1Cent=           0 FoldK=F
 IRaf=         0 NMat=       1 IRICut=       1 DoRegI=T DoRafI=F ISym2E= 1 IDoP0=3 IntGTp=3.
 FoFCou: FMM=F IPFlag=           0 FMFlag=      100000 FMFlg1=         800
         NFxFlg=           0 DoJE=F BraDBF=F KetDBF=F FulRan=T
         wScrn=  0.000000 ICntrl=      2127 IOpCl=  1 I1Cent=           0 NGrid=           0
         NMat0=    1 NMatS0=      1 NMatT0=    0 NMatD0=    1 NMtDS0=    0 NMtDT0=    0
 Petite list used in FoFCou.
 Leave Link  703 at Wed Oct 28 15:31:49 2020, MaxMem=  2684354560 cpu:               0.8 elap:               0.1
 (Enter /udrive/faculty/rpeverati/g16/g16/l716.exe)
 Dipole        =-2.77602361D-01 1.43534896D-02 1.59310858D-16
 ***** Axes restored to original set *****
 -------------------------------------------------------------------
 Center     Atomic                   Forces (Hartrees/Bohr)
 Number     Number              X              Y              Z
 -------------------------------------------------------------------
      1       17           0.001952875   -0.015514102    0.000000000
      2        1           0.015366035    0.044299044   -0.000000000
      3        8          -0.017318910   -0.028784943    0.000000000
 -------------------------------------------------------------------
 Cartesian Forces:  Max     0.044299044 RMS     0.019920785
 Leave Link  716 at Wed Oct 28 15:31:49 2020, MaxMem=  2684354560 cpu:               0.8 elap:               0.1
 (Enter /udrive/faculty/rpeverati/g16/g16/l103.exe)

 GradGradGradGradGradGradGradGradGradGradGradGradGradGradGradGradGradGrad
 Berny optimization.
 Optmz: redundant internal coordinate code flag= 1
 Red2BG:  D1=  6.40D-01 OD1=  1.94D-03 B2RMS=  0.00D+00 IAprox=0
 FormGI is forming the generalized inverse of G from B-inverse, IUseBI=4.
 Internal  Forces:  Max     0.033345739 RMS     0.021835545
 Numerically estimating second derivatives.
 Iteration  1 RMS(Cart)=  0.00331537 RMS(Int)=  0.00000651
 Iteration  2 RMS(Cart)=  0.00000612 RMS(Int)=  0.00000000
 Iteration  3 RMS(Cart)=  0.00000000 RMS(Int)=  0.00000000
 Largest change from initial coordinates is atom    2       0.001 Angstoms.
 GradGradGradGradGradGradGradGradGradGradGradGradGradGradGradGradGradGrad

 Leave Link  103 at Wed Oct 28 15:31:49 2020, MaxMem=  2684354560 cpu:               0.3 elap:               0.1
 (Enter /udrive/faculty/rpeverati/g16/g16/l202.exe)
                          Input orientation:                          
 ---------------------------------------------------------------------
 Center     Atomic      Atomic             Coordinates (Angstroms)
 Number     Number       Type             X           Y           Z
 ---------------------------------------------------------------------
      1         17           0        0.017898   -0.818463    0.000000
      2          1           0       -0.468454    0.569359    0.000000
      3          8           0        0.017707    1.666859    0.000000
 ---------------------------------------------------------------------
                    Distance matrix (angstroms):
                    1          2          3
     1  Cl   0.000000
     2  H    1.470575   0.000000
     3  O    2.485322   1.200358   0.000000
 Stoichiometry    ClHO(3)
 Framework group  CS[SG(ClHO)]
 Deg. of freedom     3
 Full point group                 CS      NOp   2
 RotChk:  IX=0 Diff= 1.18D-04
 Largest Abelian subgroup         CS      NOp   2
 Largest concise Abelian subgroup C1      NOp   1
                         Standard orientation:                         
 ---------------------------------------------------------------------
 Center     Atomic      Atomic             Coordinates (Angstroms)
 Number     Number       Type             X           Y           Z
 ---------------------------------------------------------------------
      1         17           0        0.018702   -0.818094    0.000000
      2          1           0       -0.467544    0.569766    0.000000
      3          8           0        0.018702    1.667229    0.000000
 ---------------------------------------------------------------------
 Rotational constants (GHZ):        2174.5334440           7.4149616           7.3897632
 Leave Link  202 at Wed Oct 28 15:31:49 2020, MaxMem=  2684354560 cpu:               0.2 elap:               0.1
 (Enter /udrive/faculty/rpeverati/g16/g16/l301.exe)
 Standard basis: VSTO-6G (5D, 7F)
 Ernie: Thresh=  0.10000D-02 Tol=  0.10000D-05 Strict=F.
  NNHCO=     0 NNPyr=     0 NCTC=     0               EPep=         0.000000000
    EC=        12.605614568  ECS=         0.176154056   EG=         0.032125773
   EHC=         0.000000000  EAt=       -22.696767356  AtH=         0.224141636
 EPDDG=         0.000000000  ECC=        12.813894397 EAtT=        22.920908991
 There are     7 symmetry adapted cartesian basis functions of A'  symmetry.
 There are     2 symmetry adapted cartesian basis functions of A"  symmetry.
 There are     7 symmetry adapted basis functions of A'  symmetry.
 There are     2 symmetry adapted basis functions of A"  symmetry.
     9 basis functions,    54 primitive gaussians,     9 cartesian basis functions
     8 alpha electrons        6 beta electrons
       nuclear repulsion energy        35.7348033882 Hartrees.
 IExCor=    0 DFT=F Ex=HF Corr=None ExCW=0 ScaHFX=  1.000000
 ScaDFX=  1.000000  1.000000  1.000000  1.000000 ScalE2=  1.000000  1.000000
 IRadAn=      5 IRanWt=     -1 IRanGd=            0 ICorTp=0 IEmpDi=  4
 Integral buffers will be    131072 words long.
 Regular integral format.
 Two-electron integral symmetry is turned off.
 Leave Link  301 at Wed Oct 28 15:31:49 2020, MaxMem=  2684354560 cpu:               1.4 elap:               0.2
 (Enter /udrive/faculty/rpeverati/g16/g16/l302.exe)
 Do NDO integrals.
 NPDir=0 NMtPBC=     1 NCelOv=     1 NCel=       1 NClECP=     1 NCelD=      1
         NCelK=      1 NCelE2=     1 NClLst=     1 CellRange=     0.0.
 One-electron integrals computed using PRISM.
 NBasis=     9 RedAO= T EigKep=  1.00D+00  NBF=     7     2
 NBsUse=     9 1.00D-06 EigRej= -1.00D+00 NBFU=     7     2
 Leave Link  302 at Wed Oct 28 15:31:50 2020, MaxMem=  2684354560 cpu:               2.0 elap:               0.2
 (Enter /udrive/faculty/rpeverati/g16/g16/l303.exe)
 DipDrv:  MaxL=1.
 Leave Link  303 at Wed Oct 28 15:31:50 2020, MaxMem=  2684354560 cpu:               0.8 elap:               0.1
 (Enter /udrive/faculty/rpeverati/g16/g16/l401.exe)
 Initial guess from the checkpoint file:  "MN_91_RKT17_BH76_PM3_SE.chk"
 SCF N**3 symmetry information disabled.
 B after Tr=     0.000000    0.000000    0.000000
         Rot=    1.000000    0.000000    0.000000    0.000016 Ang=   0.00 deg.
 Guess basis will be translated and rotated to current coordinates.
 JPrj=0 DoOrth=T DoCkMO=T.
 Initial guess orbital symmetries:
 Alpha Orbitals:
       Occupied  (A') (A') (A') (A") (A') (A') (A") (A')
       Virtual   (A')
 Beta  Orbitals:
       Occupied  (A') (A') (A') (A') (A") (A')
       Virtual   (A') (A") (A')
 The electronic state of the initial guess is 3-A".
 Initial guess <Sx>= 0.0000 <Sy>= 0.0000 <Sz>= 1.0000 <S**2>= 2.0229 S= 1.0076
 Leave Link  401 at Wed Oct 28 15:31:50 2020, MaxMem=  2684354560 cpu:               2.2 elap:               0.2
 (Enter /udrive/faculty/rpeverati/g16/g16/l502.exe)
 Keep J ints in memory in canonical form, NReq=859290.
 FoFCou: FMM=F IPFlag=           0 FMFlag=           0 FMFlg1=           0
         NFxFlg=           0 DoJE=F BraDBF=F KetDBF=F FulRan=T
         wScrn=  0.000000 ICntrl=       600 IOpCl=  2 I1Cent=           0 NGrid=           0
         NMat0=    1 NMatS0=     21 NMatT0=    0 NMatD0=    1 NMtDS0=    0 NMtDT0=    0
 Symmetry not used in FoFCou.
 Two-electron integral symmetry not used.
 UHF open shell SCF:
 Using DIIS extrapolation, IDIIS=  1040.
 Overlap will be assumed to be unity.
 NGot=  2684354560 LenX=  2684293973 LenY=  2684293091
 Requested convergence on RMS density matrix=1.00D-08 within 120 cycles.
 Requested convergence on MAX density matrix=1.00D-06.
 Requested convergence on             energy=1.00D-06.
 No special actions if energy rises.

 Cycle   1  Pass 1  IDiag  1:
 E= 0.712971496542636E-01
 DIIS: error= 2.20D-04 at cycle   1 NSaved=   1.
 NSaved= 1 IEnMin= 1 EnMin= 0.712971496542636E-01 IErMin= 1 ErrMin= 2.20D-04
 ErrMax= 2.20D-04  0.00D+00 EMaxC= 1.00D-01 BMatC= 2.87D-06 BMatP= 2.87D-06
 IDIUse=3 WtCom= 9.98D-01 WtEn= 2.20D-03
 Coeff-Com:  0.100D+01
 Coeff-En:   0.100D+01
 Coeff:      0.100D+01
 RMSDP=1.92D-04 MaxDP=7.24D-04              OVMax= 0.00D+00

 Cycle   2  Pass 1  IDiag  3:
 E= 0.712942950832129E-01 Delta-E=       -0.000002854571 Rises=F Damp=F
 DIIS: error= 1.23D-04 at cycle   2 NSaved=   2.
 NSaved= 2 IEnMin= 2 EnMin= 0.712942950832129E-01 IErMin= 2 ErrMin= 1.23D-04
 ErrMax= 1.23D-04  0.00D+00 EMaxC= 1.00D-01 BMatC= 6.15D-07 BMatP= 2.87D-06
 IDIUse=3 WtCom= 9.99D-01 WtEn= 1.23D-03
 Coeff-Com: -0.605D+00 0.160D+01
 Coeff-En:   0.000D+00 0.100D+01
 Coeff:     -0.604D+00 0.160D+01
 Gap=     0.490 Goal=   None    Shift=    0.000
 Gap=     0.295 Goal=   None    Shift=    0.000
 RMSDP=1.70D-04 MaxDP=7.86D-04 DE=-2.85D-06 OVMax= 8.24D-04

 Cycle   3  Pass 1  IDiag  3:
[...]
                                                             X                                                                       
                                                             X                                                                       
 
 ***** Axes restored to original set *****
 -------------------------------------------------------------------
 Center     Atomic                   Forces (Hartrees/Bohr)
 Number     Number              X              Y              Z
 -------------------------------------------------------------------
      1       17          -0.000002547    0.000023064   -0.000000000
      2        1           0.000005229   -0.000034673    0.000000000
      3        8          -0.000002682    0.000011609   -0.000000000
 -------------------------------------------------------------------
 Cartesian Forces:  Max     0.000034673 RMS     0.000014568
 Force constants in Cartesian coordinates: 
                1             2             3             4             5 
      1  0.817143D-03
      2  0.833904D-04  0.120998D+00
      3  0.000000D+00  0.000000D+00  0.111731D-02
      4 -0.166995D-02  0.717859D-04  0.000000D+00  0.341933D-02
      5 -0.158274D-04 -0.302785D-01  0.000000D+00 -0.358180D-03 -0.175122D+00
      6  0.000000D+00  0.000000D+00 -0.228755D-02  0.000000D+00  0.000000D+00
      7  0.851890D-03 -0.152529D-03  0.000000D+00 -0.174808D-02  0.369920D-03
      8 -0.675483D-04 -0.907195D-01  0.000000D+00  0.286485D-03  0.205401D+00
      9  0.000000D+00  0.000000D+00  0.117019D-02  0.000000D+00  0.000000D+00
                6             7             8             9 
      6  0.468821D-02
      7  0.000000D+00  0.895803D-03
      8  0.000000D+00 -0.217497D-03 -0.114683D+00
      9 -0.240069D-02  0.000000D+00  0.000000D+00  0.123057D-02
 FormGI is forming the generalized inverse of G from B-inverse, IUseBI=4.
 Force constants in internal coordinates: 
                1             2             3 
      1  0.120998D+00
      2  0.907193D-01 -0.114683D+00
      3  0.253079D-04  0.214390D-04  0.559348D-02
 Leave Link  716 at Wed Oct 28 15:32:13 2020, MaxMem=  2684354560 cpu:               0.9 elap:               0.1
 (Enter /udrive/faculty/rpeverati/g16/g16/l103.exe)

 GradGradGradGradGradGradGradGradGradGradGradGradGradGradGradGradGradGrad
 Berny optimization.
 Optmz: redundant internal coordinate code flag= 1
 Red2BG:  D1=  9.16D-01 OD1=  3.10D-16 B2RMS=  0.00D+00 IAprox=1
 Red2BG is reusing G-inverse.
 Internal  Forces:  Max     0.000023062 RMS     0.000015405
 Search for a local minimum.
 Step number   1 out of a maximum of    2
 All quantities printed in internal units (Hartrees-Bohrs-Radians)
 Second derivative matrix not updated -- analytic derivatives used.
 The second derivative matrix:
                          R1        R2        A1
           R1           0.12100
           R2           0.09072  -0.11468
           A1           0.00003   0.00002   0.00559
 ITU=  0
 Eigenvectors of the second derivative matrix:
                           1         2         3
     Eigenvalues --    -0.14556   0.00559   0.15187
   1         R1         0.32219  -0.00023  -0.94668
   2         R2        -0.94668   0.00001  -0.32219
   3         A1         0.00008   1.00000  -0.00021
 Eigenvalue     1 is  -1.46D-01 should be greater than     0.000000 Eigenvector:
                          R2        R1        A1
   1                   -0.94668   0.32219   0.00008
 Angle between quadratic step and forces=  67.16 degrees.
 Linear search not attempted -- first point.
 Iteration  1 RMS(Cart)=  0.00072979 RMS(Int)=  0.00000138
 SLEqS3 Cycle:    47 Max:0.689936E-11 RMS:0.305006E-11 Conv:0.179824E-11
 Iteration  2 RMS(Cart)=  0.00000144 RMS(Int)=  0.00000132
 Iteration  3 RMS(Cart)=  0.00000138 RMS(Int)=  0.00000132
 Iteration  4 RMS(Cart)=  0.00000138 RMS(Int)=  0.00000132
 Iteration  5 RMS(Cart)=  0.00000138 RMS(Int)=  0.00000132
 Iteration  6 RMS(Cart)=  0.00000138 RMS(Int)=  0.00000132
 Iteration  7 RMS(Cart)=  0.00000138 RMS(Int)=  0.00000132
 Iteration  8 RMS(Cart)=  0.00000138 RMS(Int)=  0.00000132
 Iteration  9 RMS(Cart)=  0.00000138 RMS(Int)=  0.00000132
 SLEqS3 Cycle:    91 Max:0.180831E-11 RMS:0.760226E-12 Conv:0.178825E-11
 SLEqS3 Cycle:    91 Max:0.180831E-11 RMS:0.760226E-12 Conv:0.178825E-11
 Iteration 10 RMS(Cart)=  0.00000138 RMS(Int)=  0.00000132
 Iteration 11 RMS(Cart)=  0.00000138 RMS(Int)=  0.00000132
 Iteration 12 RMS(Cart)=  0.00000138 RMS(Int)=  0.00000132
 Iteration 13 RMS(Cart)=  0.00000138 RMS(Int)=  0.00000132
 Iteration 14 RMS(Cart)=  0.00000138 RMS(Int)=  0.00000132
 Iteration 15 RMS(Cart)=  0.00000138 RMS(Int)=  0.00000132
 Iteration 16 RMS(Cart)=  0.00000138 RMS(Int)=  0.00000132
 SLEqS3 Cycle:    91 Max:0.291319E-11 RMS:0.130968E-11 Conv:0.178762E-11
 Iteration 17 RMS(Cart)=  0.00000138 RMS(Int)=  0.00000132
 Iteration 18 RMS(Cart)=  0.00000138 RMS(Int)=  0.00000132
 Iteration 19 RMS(Cart)=  0.00000138 RMS(Int)=  0.00000132
 Iteration 20 RMS(Cart)=  0.00000138 RMS(Int)=  0.00000132
 Iteration 21 RMS(Cart)=  0.00000138 RMS(Int)=  0.00000132
 Iteration 22 RMS(Cart)=  0.00000138 RMS(Int)=  0.00000132
 SLEqS3 Cycle:    91 Max:0.281114E-11 RMS:0.127206E-11 Conv:0.178801E-11
 SLEqS3 Cycle:    91 Max:0.281114E-11 RMS:0.127206E-11 Conv:0.178801E-11
 Iteration 23 RMS(Cart)=  0.00000138 RMS(Int)=  0.00000132
 Iteration 24 RMS(Cart)=  0.00000138 RMS(Int)=  0.00000132
 Iteration 25 RMS(Cart)=  0.00000138 RMS(Int)=  0.00000132
 Iteration 26 RMS(Cart)=  0.00000138 RMS(Int)=  0.00000132
 Iteration 27 RMS(Cart)=  0.00000138 RMS(Int)=  0.00000132
 Iteration 28 RMS(Cart)=  0.00000138 RMS(Int)=  0.00000132
 SLEqS3 Cycle:    91 Max:0.184990E-11 RMS:0.784170E-12 Conv:0.178799E-11
 Iteration 29 RMS(Cart)=  0.00000138 RMS(Int)=  0.00000132
 Iteration 30 RMS(Cart)=  0.00000138 RMS(Int)=  0.00000132
 Iteration 31 RMS(Cart)=  0.00000138 RMS(Int)=  0.00000132
 Iteration 32 RMS(Cart)=  0.00000138 RMS(Int)=  0.00000132
 Iteration 33 RMS(Cart)=  0.00000138 RMS(Int)=  0.00000132
 SLEqS3 Cycle:    91 Max:0.188915E-11 RMS:0.807215E-12 Conv:0.178805E-11
 SLEqS3 Cycle:    91 Max:0.188915E-11 RMS:0.807215E-12 Conv:0.178805E-11
 Iteration 34 RMS(Cart)=  0.00000138 RMS(Int)=  0.00000132
 Iteration 35 RMS(Cart)=  0.00000138 RMS(Int)=  0.00000132
 Iteration 36 RMS(Cart)=  0.00000138 RMS(Int)=  0.00000132
 Iteration 37 RMS(Cart)=  0.00000138 RMS(Int)=  0.00000132
 Iteration 38 RMS(Cart)=  0.00000138 RMS(Int)=  0.00000132
 Iteration 39 RMS(Cart)=  0.00000138 RMS(Int)=  0.00000132
 Iteration 40 RMS(Cart)=  0.00000138 RMS(Int)=  0.00000132
 Iteration 41 RMS(Cart)=  0.00000138 RMS(Int)=  0.00000132
 Iteration 42 RMS(Cart)=  0.00000138 RMS(Int)=  0.00000132
 Iteration 43 RMS(Cart)=  0.00000138 RMS(Int)=  0.00000132
 SLEqS3 Cycle:    91 Max:0.264340E-11 RMS:0.121065E-11 Conv:0.178820E-11
 SLEqS3 Cycle:    91 Max:0.264340E-11 RMS:0.121065E-11 Conv:0.178820E-11
 Iteration 44 RMS(Cart)=  0.00000138 RMS(Int)=  0.00000132
 Iteration 45 RMS(Cart)=  0.00000138 RMS(Int)=  0.00000132
 Iteration 46 RMS(Cart)=  0.00000138 RMS(Int)=  0.00000132
 Iteration 47 RMS(Cart)=  0.00000138 RMS(Int)=  0.00000132
 Iteration 48 RMS(Cart)=  0.00000138 RMS(Int)=  0.00000132
 Iteration 49 RMS(Cart)=  0.00000138 RMS(Int)=  0.00000132
 Iteration 50 RMS(Cart)=  0.00000138 RMS(Int)=  0.00000132
 Iteration 51 RMS(Cart)=  0.00000138 RMS(Int)=  0.00000132
 Iteration 52 RMS(Cart)=  0.00000138 RMS(Int)=  0.00000132
 Iteration 53 RMS(Cart)=  0.00000138 RMS(Int)=  0.00000132
 Iteration 54 RMS(Cart)=  0.00000138 RMS(Int)=  0.00000132
 Iteration 55 RMS(Cart)=  0.00000138 RMS(Int)=  0.00000132
 Iteration 56 RMS(Cart)=  0.00000138 RMS(Int)=  0.00000132
 Iteration 57 RMS(Cart)=  0.00000138 RMS(Int)=  0.00000132
 Iteration 58 RMS(Cart)=  0.00000138 RMS(Int)=  0.00000132
 Iteration 59 RMS(Cart)=  0.00000138 RMS(Int)=  0.00000132
 Iteration 60 RMS(Cart)=  0.00000138 RMS(Int)=  0.00000132
 Iteration 61 RMS(Cart)=  0.00000138 RMS(Int)=  0.00000132
 Iteration 62 RMS(Cart)=  0.00000138 RMS(Int)=  0.00000132
 Iteration 63 RMS(Cart)=  0.00000138 RMS(Int)=  0.00000132
 Iteration 64 RMS(Cart)=  0.00000138 RMS(Int)=  0.00000132
 Iteration 65 RMS(Cart)=  0.00000138 RMS(Int)=  0.00000132
 Iteration 66 RMS(Cart)=  0.00000138 RMS(Int)=  0.00000132
 SLEqS3 Cycle:    91 Max:0.272080E-11 RMS:0.123892E-11 Conv:0.178788E-11
 SLEqS3 Cycle:    91 Max:0.272080E-11 RMS:0.123892E-11 Conv:0.178788E-11
 Iteration 67 RMS(Cart)=  0.00000138 RMS(Int)=  0.00000132
 Iteration 68 RMS(Cart)=  0.00000138 RMS(Int)=  0.00000132
 Iteration 69 RMS(Cart)=  0.00000138 RMS(Int)=  0.00000132
 Iteration 70 RMS(Cart)=  0.00000138 RMS(Int)=  0.00000132
 Iteration 71 RMS(Cart)=  0.00000138 RMS(Int)=  0.00000132
 Iteration 72 RMS(Cart)=  0.00000138 RMS(Int)=  0.00000132
 Iteration 73 RMS(Cart)=  0.00000138 RMS(Int)=  0.00000132
 Iteration 74 RMS(Cart)=  0.00000138 RMS(Int)=  0.00000132
 Iteration 75 RMS(Cart)=  0.00000138 RMS(Int)=  0.00000132
 Iteration 76 RMS(Cart)=  0.00000138 RMS(Int)=  0.00000132
 Iteration 77 RMS(Cart)=  0.00000138 RMS(Int)=  0.00000132
 Iteration 78 RMS(Cart)=  0.00000138 RMS(Int)=  0.00000132
 Iteration 79 RMS(Cart)=  0.00000138 RMS(Int)=  0.00000132
 SLEqS3 Cycle:    91 Max:0.181600E-11 RMS:0.765554E-12 Conv:0.178809E-11
 Iteration 80 RMS(Cart)=  0.00000138 RMS(Int)=  0.00000132
 Iteration 81 RMS(Cart)=  0.00000138 RMS(Int)=  0.00000132
 Iteration 82 RMS(Cart)=  0.00000138 RMS(Int)=  0.00000132
 Iteration 83 RMS(Cart)=  0.00000138 RMS(Int)=  0.00000132
 Iteration 84 RMS(Cart)=  0.00000138 RMS(Int)=  0.00000132
 Iteration 85 RMS(Cart)=  0.00000138 RMS(Int)=  0.00000132
 Iteration 86 RMS(Cart)=  0.00000138 RMS(Int)=  0.00000132
 SLEqS3 Cycle:    91 Max:0.267884E-11 RMS:0.122349E-11 Conv:0.178788E-11
 Iteration 87 RMS(Cart)=  0.00000138 RMS(Int)=  0.00000132
 Iteration 88 RMS(Cart)=  0.00000138 RMS(Int)=  0.00000132
 Iteration 89 RMS(Cart)=  0.00000138 RMS(Int)=  0.00000132
 SLEqS3 Cycle:    91 Max:0.282467E-11 RMS:0.127697E-11 Conv:0.178785E-11
 SLEqS3 Cycle:    91 Max:0.282467E-11 RMS:0.127697E-11 Conv:0.178785E-11
 Iteration 90 RMS(Cart)=  0.00000138 RMS(Int)=  0.00000132
 Iteration 91 RMS(Cart)=  0.00000138 RMS(Int)=  0.00000132
 Iteration 92 RMS(Cart)=  0.00000138 RMS(Int)=  0.00000132
 Iteration 93 RMS(Cart)=  0.00000138 RMS(Int)=  0.00000132
 Iteration 94 RMS(Cart)=  0.00000138 RMS(Int)=  0.00000132
 Iteration 95 RMS(Cart)=  0.00000138 RMS(Int)=  0.00000132
 Iteration 96 RMS(Cart)=  0.00000138 RMS(Int)=  0.00000132
 Iteration 97 RMS(Cart)=  0.00000138 RMS(Int)=  0.00000132
 Iteration 98 RMS(Cart)=  0.00000138 RMS(Int)=  0.00000132
 Iteration 99 RMS(Cart)=  0.00000138 RMS(Int)=  0.00000132
 Iteration100 RMS(Cart)=  0.00000138 RMS(Int)=  0.00000132
 New curvilinear step not converged.
 ITry= 1 IFail=1 DXMaxC= 1.03D-03 DCOld= 1.00D+10 DXMaxT= 3.00D-01 DXLimC= 3.00D+00 Rises=F
 Iteration  1 RMS(Cart)=  0.00065681 RMS(Int)=  0.00000031
 Iteration  2 RMS(Cart)=  0.00000031 RMS(Int)=  0.00000000
 ITry= 2 IFail=0 DXMaxC= 9.25D-04 DCOld= 1.00D+10 DXMaxT= 3.00D-01 DXLimC= 3.00D+00 Rises=F
 ClnCor:  largest displacement from symmetrization is 5.14D-22 for atom     3.
 Variable       Old X    -DE/DX   Delta X   Delta X   Delta X     New X
                                 (Linear)    (Quad)   (Total)
    R1        2.63080  -0.00002   0.00000  -0.00015  -0.00014   2.63066
    R2        2.49224   0.00001   0.00000   0.00008   0.00007   2.49231
    A1        3.14039   0.00001   0.00000   0.00121   0.00108   3.14147
         Item               Value     Threshold  Converged?
 Maximum Force            0.000023     0.000450     YES
 RMS     Force            0.000015     0.000300     YES
 Maximum Displacement     0.000925     0.001800     YES
 RMS     Displacement     0.000657     0.001200     YES
 Predicted change in Energy=-8.130040D-09
 Optimization completed.
    -- Stationary point found.
                           ----------------------------
                           !   Optimized Parameters   !
                           ! (Angstroms and Degrees)  !
 --------------------------                            --------------------------
 ! Name  Definition              Value          Derivative Info.                !
 --------------------------------------------------------------------------------
 ! R1    R(1,2)                  1.3922         -DE/DX =    0.0                 !
 ! R2    R(2,3)                  1.3188         -DE/DX =    0.0                 !
 ! A1    A(1,2,3)              179.931          -DE/DX =    0.0                 !
 --------------------------------------------------------------------------------
 GradGradGradGradGradGradGradGradGradGradGradGradGradGradGradGradGradGrad

 Leave Link  103 at Wed Oct 28 15:32:14 2020, MaxMem=  2684354560 cpu:               0.7 elap:               0.1
 (Enter /udrive/faculty/rpeverati/g16/g16/l9999.exe)

 ----------------------------------------------------------------------

 Electric dipole moment (input orientation):
 (Debye = 10**-18 statcoulomb cm , SI units = C m)
                  (au)            (Debye)         (10**-30 SI)
   Tot        0.123367D+00      0.313567D+00      0.104595D+01
   x         -0.242010D-03     -0.615127D-03     -0.205184D-02
   y          0.123366D+00      0.313566D+00      0.104594D+01
   z          0.000000D+00      0.000000D+00      0.000000D+00

 Dipole polarizability, Alpha (input orientation).
 (esu units = cm**3 , SI units = C**2 m**2 J**-1)
 Alpha(0;0):
               (au)            (10**-24 esu)      (10**-40 SI)
   iso        0.151651D+02      0.224724D+01      0.250039D+01
   aniso      0.440127D+02      0.652202D+01      0.725672D+01
   xx         0.250154D+00      0.370690D-01      0.412449D-01
   yx         0.477744D-01      0.707944D-02      0.787694D-02
   yy         0.445055D+02      0.659504D+01      0.733797D+01
   zx         0.000000D+00      0.000000D+00      0.000000D+00
   zy         0.000000D+00      0.000000D+00      0.000000D+00
   zz         0.739678D+00      0.109609D+00      0.121956D+00

 First dipole hyperpolarizability, Beta (input orientation).
 ||, _|_  parallel and perpendicular components, (z) with respect to z axis,
 vector components x,y,z.  Values do not include the 1/n! factor of 1/2.
 (esu units = statvolt**-1 cm**4 , SI units = C**3 m**3 J**-2)
 Beta(0;0,0):
               (au)            (10**-30 esu)      (10**-50 SI)
   || (z)     0.000000D+00      0.000000D+00      0.000000D+00
   _|_(z)     0.000000D+00      0.000000D+00      0.000000D+00
   x          0.123401D+01      0.106609D-01      0.395667D-02
   y          0.627425D+03      0.542047D+01      0.201175D+01
   z          0.000000D+00      0.000000D+00      0.000000D+00
   ||         0.125485D+03      0.108410D+01      0.402351D+00
   xxx       -0.297141D-02     -0.256706D-04     -0.952741D-05
   xxy       -0.915990D+00     -0.791344D-02     -0.293700D-02
   yxy        0.416125D+00      0.359500D-02      0.133425D-02
   yyy        0.211450D+03      0.182676D+01      0.677985D+00
   xxz        0.000000D+00      0.000000D+00      0.000000D+00
   yxz        0.000000D+00      0.000000D+00      0.000000D+00
   yyz        0.000000D+00      0.000000D+00      0.000000D+00
   zxz       -0.181799D-02     -0.157060D-04     -0.582914D-05
   zyz       -0.139213D+01     -0.120270D-01     -0.446368D-02
   zzz        0.000000D+00      0.000000D+00      0.000000D+00

 ----------------------------------------------------------------------

 Dipole orientation:
    17         -0.27856822         -0.00054647         -1.69101093
     1         -0.27178315         -0.00053316          0.93977936
     8         -0.26235433         -0.00051466          3.43200102

 Electric dipole moment (dipole orientation):
 (Debye = 10**-18 statcoulomb cm , SI units = C m)
                  (au)            (Debye)         (10**-30 SI)
   Tot        0.123367D+00      0.313567D+00      0.104595D+01
   x          0.000000D+00      0.000000D+00      0.000000D+00
   y          0.000000D+00      0.000000D+00      0.000000D+00
   z          0.123367D+00      0.313567D+00      0.104595D+01

 Dipole polarizability, Alpha (dipole orientation).
 (esu units = cm**3 , SI units = C**2 m**2 J**-1)
 Alpha(0;0):
               (au)            (10**-24 esu)      (10**-40 SI)
   iso        0.151651D+02      0.224724D+01      0.250039D+01
   aniso      0.440127D+02      0.652202D+01      0.725672D+01
   xx         0.250514D+00      0.371223D-01      0.413042D-01
   yx        -0.959592D-03     -0.142197D-03     -0.158215D-03
   yy         0.739676D+00      0.109609D+00      0.121956D+00
   zx         0.134590D+00      0.199442D-01      0.221909D-01
   zy         0.264024D-03      0.391243D-04      0.435317D-04
   zz         0.445052D+02      0.659499D+01      0.733791D+01

 First dipole hyperpolarizability, Beta (dipole orientation).
 ||, _|_  parallel and perpendicular components, (z) with respect to z axis,
 vector components x,y,z.  Values do not include the 1/n! factor of 1/2.
 (esu units = statvolt**-1 cm**4 , SI units = C**3 m**3 J**-2)
 Beta(0;0,0):
               (au)            (10**-30 esu)      (10**-50 SI)
   || (z)     0.125484D+03      0.108409D+01      0.402348D+00
   _|_(z)     0.418281D+02      0.361362D+00      0.134116D+00
   x          0.246483D+01      0.212942D-01      0.790313D-02
   y          0.483523D-02      0.417726D-04      0.155035D-04
   z          0.627422D+03      0.542043D+01      0.201174D+01
   ||         0.125485D+03      0.108410D+01      0.402351D+00
   xxx       -0.835570D-02     -0.721868D-04     -0.267914D-04
   xxy        0.000000D+00      0.000000D+00      0.000000D+00
   yxy       -0.454893D-02     -0.392992D-04     -0.145855D-04
   yyy       -0.267708D-04     -0.231279D-06     -0.858370D-07
   xxz       -0.913528D+00     -0.789217D-02     -0.292910D-02
   yxz        0.938867D-03      0.811108D-05      0.301035D-05
   yyz       -0.139213D+01     -0.120269D-01     -0.446366D-02
   zxz        0.834514D+00      0.720955D-02      0.267575D-02
   zyz        0.163706D-02      0.141429D-04      0.524900D-05
   zzz        0.211446D+03      0.182673D+01      0.677973D+00

 ----------------------------------------------------------------------

 Test job not archived.
 1\1\GINC-NODE26\Freq\UPM3\ZDO\Cl1H1O1(3)\RPEVERATI\28-Oct-2020\0\\#P F
 req PM3 5D 7F Integral=UltraFineGrid SCF=(NoSymm,MaxCyc=120) IOp(1/33=
 1) Geom=Check Guess=Read\\TS search on BH76.\\0,3\Cl,-0.1456565287,-0.
 8951319045,0.\H,-0.1447970256,0.4970267277,0.\O,-0.1423946714,1.815860
 8846,0.\\Version=ES64L-G16RevA.03\State=3-A"\HF=0.073574\S2=2.021497\S
 2-1=0.\S2A=2.\RMSD=4.410e-10\RMSF=1.457e-05\ZeroPoint=0.0019085\Therma
 l=0.0053572\Dipole=-0.000242,0.1233664,0.\DipoleDeriv=-0.147328,0.0003
 044,0.,0.0004099,0.2973128,0.,0.,0.,-0.146452,0.253345,-0.0014691,0.,-
 0.0013621,-0.8217025,0.,0.,0.,0.2515459,-0.1060201,0.0011671,0.,0.0009
 52,0.5243766,0.,0.,0.,-0.1050941\Polar=0.2501543,0.0477744,44.505543,0
 .,0.,0.7396783\HyperPolar=-0.0029714,-0.9159904,0.4161249,211.4499037,
 0.,0.,0.,-0.001818,-1.3921341,0.\PG=CS [SG(Cl1H1O1)]\NImag=1\\0.000817
 14,0.00008339,0.12099805,0.,0.,0.00111731,-0.00166995,0.00007179,0.,0.
 00341933,-0.00001583,-0.03027855,0.,-0.00035818,-0.17512193,0.,0.,-0.0
 0228755,0.,0.,0.00468821,0.00085189,-0.00015253,0.,-0.00174808,0.00036
 992,0.,0.00089580,-0.00006755,-0.09071949,0.,0.00028649,0.20540149,0.,
 -0.00021750,-0.11468303,0.,0.,0.00117019,0.,0.,-0.00240069,0.,0.,0.001
 23057\\0.00000255,-0.00002306,0.,-0.00000523,0.00003467,0.,0.00000268,
 -0.00001161,0.\\\@


 "A LITTLE BIT GOES A LONG WAY"
 R.S. MULLIKEN AS QUOTED BY K. RUEDENBERG
 Job cpu time:       0 days  0 hours  0 minutes 35.4 seconds.
 Elapsed time:       0 days  0 hours  0 minutes  3.9 seconds.
 File lengths (MBytes):  RWF=      5 Int=      0 D2E=      0 Chk=      2 Scr=      1
 Normal termination of Gaussian 16 at Wed Oct 28 15:32:14 2020.
