 Entering Gaussian System, Link 0=g16
 Input=MN_18_C5H8_BH76_BP86_631Gs.in
 Output=MN_18_C5H8_BH76_BP86_631Gs.log
 Initial command:
 /udrive/faculty/rpeverati/g16/g16/l1.exe "/udrive/scratch-directories/gaussian09/rpeverati/Gau-17763.inp" -scrdir="/udrive/scratch-directories/gaussian09/rpeverati/"
 Entering Link 1 = /udrive/faculty/rpeverati/g16/g16/l1.exe PID=     17784.
  
 Copyright (c) 1988,1990,1992,1993,1995,1998,2003,2009,2016,
            Gaussian, Inc.  All Rights Reserved.
  
 This is part of the Gaussian(R) 16 program.  It is based on
 the Gaussian(R) 09 system (copyright 2009, Gaussian, Inc.),
 the Gaussian(R) 03 system (copyright 2003, Gaussian, Inc.),
 the Gaussian(R) 98 system (copyright 1998, Gaussian, Inc.),
 the Gaussian(R) 94 system (copyright 1995, Gaussian, Inc.),
 the Gaussian 92(TM) system (copyright 1992, Gaussian, Inc.),
 the Gaussian 90(TM) system (copyright 1990, Gaussian, Inc.),
 the Gaussian 88(TM) system (copyright 1988, Gaussian, Inc.),
 the Gaussian 86(TM) system (copyright 1986, Carnegie Mellon
 University), and the Gaussian 82(TM) system (copyright 1983,
 Carnegie Mellon University). Gaussian is a federally registered
 trademark of Gaussian, Inc.
  
 This software contains proprietary and confidential information,
 including trade secrets, belonging to Gaussian, Inc.
  
 This software is provided under written license and may be
 used, copied, transmitted, or stored only in accord with that
 written license.
  
 The following legend is applicable only to US Government
 contracts under FAR:
  
                    RESTRICTED RIGHTS LEGEND
  
 Use, reproduction and disclosure by the US Government is
 subject to restrictions as set forth in subparagraphs (a)
 and (c) of the Commercial Computer Software - Restricted
 Rights clause in FAR 52.227-19.
  
 Gaussian, Inc.
 340 Quinnipiac St., Bldg. 40, Wallingford CT 06492
  
  
 ---------------------------------------------------------------
 Warning -- This program may not be used in any manner that
 competes with the business of Gaussian, Inc. or will provide
 assistance to any competitor of Gaussian, Inc.  The licensee
 of this program is prohibited from giving any competitor of
 Gaussian, Inc. access to this program.  By using this program,
 the user acknowledges that Gaussian, Inc. is engaged in the
 business of creating and licensing software in the field of
 computational chemistry and represents and warrants to the
 licensee that it is not a competitor of Gaussian, Inc. and that
 it will not use this program in any manner prohibited above.
 ---------------------------------------------------------------
  

 Cite this work as:
 Gaussian 16, Revision A.03,
 M. J. Frisch, G. W. Trucks, H. B. Schlegel, G. E. Scuseria, 
 M. A. Robb, J. R. Cheeseman, G. Scalmani, V. Barone, 
 G. A. Petersson, H. Nakatsuji, X. Li, M. Caricato, A. V. Marenich, 
 J. Bloino, B. G. Janesko, R. Gomperts, B. Mennucci, H. P. Hratchian, 
 J. V. Ortiz, A. F. Izmaylov, J. L. Sonnenberg, D. Williams-Young, 
 F. Ding, F. Lipparini, F. Egidi, J. Goings, B. Peng, A. Petrone, 
 T. Henderson, D. Ranasinghe, V. G. Zakrzewski, J. Gao, N. Rega, 
 G. Zheng, W. Liang, M. Hada, M. Ehara, K. Toyota, R. Fukuda, 
 J. Hasegawa, M. Ishida, T. Nakajima, Y. Honda, O. Kitao, H. Nakai, 
 T. Vreven, K. Throssell, J. A. Montgomery, Jr., J. E. Peralta, 
 F. Ogliaro, M. J. Bearpark, J. J. Heyd, E. N. Brothers, K. N. Kudin, 
 V. N. Staroverov, T. A. Keith, R. Kobayashi, J. Normand, 
 K. Raghavachari, A. P. Rendell, J. C. Burant, S. S. Iyengar, 
 J. Tomasi, M. Cossi, J. M. Millam, M. Klene, C. Adamo, R. Cammi, 
 J. W. Ochterski, R. L. Martin, K. Morokuma, O. Farkas, 
 J. B. Foresman, and D. J. Fox, Gaussian, Inc., Wallingford CT, 2016.
 
 ******************************************
 Gaussian 16:  ES64L-G16RevA.03 25-Dec-2016
                 7-Oct-2020 
 ******************************************
 %NoSave
 %nproc=12
 Will use up to   12 processors via shared memory.
 %mem=20GB
 %chk=MN_18_C5H8_BH76_BP86_631Gs
 ----------------------------------------------------------------------
 #P Opt(MaxCyc=100) BP86/6-31G* 5D 7F Integral=UltraFineGrid SCF=(NoSym
 m,XQC,MaxCyc=120) IOp(1/33=1)
 ----------------------------------------------------------------------
 1/6=100,18=20,19=15,26=4,33=1,38=1/1,3;
 2/9=110,12=2,17=6,18=5,40=1/2;
 3/5=1,6=6,7=1,8=11,11=2,25=1,30=1,71=1,74=404,75=-5/1,2,3;
 4/9=2/1;
 5/5=2,7=120,8=3,13=1,38=5/2,8;
 6/7=2,8=2,9=2,10=2,28=1/1;
 7//1,2,3,16;
 1/6=100,18=20,19=15,26=4,33=1/3(2);
 2/9=110/2;
 99//99;
 2/9=110/2;
 3/5=1,6=6,7=1,8=11,11=2,25=1,30=1,71=1,74=404,75=-5/1,2,3;
 4/5=5,9=2,16=3,69=1/1;
 5/5=2,7=120,8=3,13=1,38=5/2,8;
 7//1,2,3,16;
 1/6=100,18=20,19=15,26=4,33=1/3(-5);
 2/9=110/2;
 6/7=2,8=2,9=2,10=2,19=2,28=1/1;
 99/9=1/99;
 Leave Link    1 at Wed Oct  7 13:15:29 2020, MaxMem=  2684354560 cpu:               6.3 elap:               0.6
 (Enter /udrive/faculty/rpeverati/g16/g16/l101.exe)
 ONIOM data not found on unit 2.
 ------------------
 TS search on BH76.
 ------------------
 TstMul:  ICh=     0
 TstMul:  Mul=     1
 TstMul:  ICh=     0
 TstMul:  Mul=     1
 Symbolic Z-matrix:
 Charge =  0 Multiplicity = 1
 C                    -2.05564  -0.61227   0.00001 
 C                    -1.2311    0.64045   0.00005 
 C                     0.10563   0.73428   0.00003 
 C                     1.05756  -0.37441  -0.00004 
 C                     2.38358  -0.19894  -0.00004 
 H                    -2.70509  -0.6416    0.87713 
 H                    -2.70513  -0.64151  -0.87709 
 H                    -1.45133  -1.51608  -0.00006 
 H                    -1.79367   1.56759   0.0001 
 H                     0.54576   1.72564   0.00006 
 H                     0.66526  -1.38324  -0.0001 
 H                     3.06469  -1.03772  -0.00009 
 H                     2.81928   0.79228   0.00002 
 
 RdStrC is calling ZToCFu for IStruc=1 NZ=    13.
 PrtBox:  NBox=     2 Levels=  2 BoxLen=    8.00 SMaxX=       10.90
          Shift=            5.111950            2.864980            1.657460
 Box      1 Number                   0 centers from      1 to     10:
 Box      2 Number                   4 centers from     11 to     13:
 After GenITR:
 ITRead=  0  0  0  0  0  0  0  0  0  0  0  0  0
 MicOpt= -1 -1 -1 -1 -1 -1 -1 -1 -1 -1 -1 -1 -1
 ITRead=  0  0  0  0  0  0  0  0  0  0  0  0  0
 MicOpt= -1 -1 -1 -1 -1 -1 -1 -1 -1 -1 -1 -1 -1
 NAtoms=     13 NQM=       13 NQMF=       0 NMMI=      0 NMMIF=      0
                NMic=       0 NMicF=      0.
                    Isotopes and Nuclear Properties:
 (Nuclear quadrupole moments (NQMom) in fm**2, nuclear magnetic moments (NMagM)
  in nuclear magnetons)

  Atom         1           2           3           4           5           6           7           8           9          10
 IAtWgt=          12          12          12          12          12           1           1           1           1           1
 AtmWgt=  12.0000000  12.0000000  12.0000000  12.0000000  12.0000000   1.0078250   1.0078250   1.0078250   1.0078250   1.0078250
 NucSpn=           0           0           0           0           0           1           1           1           1           1
 AtZEff=   0.0000000   0.0000000   0.0000000   0.0000000   0.0000000   0.0000000   0.0000000   0.0000000   0.0000000   0.0000000
 NQMom=    0.0000000   0.0000000   0.0000000   0.0000000   0.0000000   0.0000000   0.0000000   0.0000000   0.0000000   0.0000000
 NMagM=    0.0000000   0.0000000   0.0000000   0.0000000   0.0000000   2.7928460   2.7928460   2.7928460   2.7928460   2.7928460
 AtZNuc=   6.0000000   6.0000000   6.0000000   6.0000000   6.0000000   1.0000000   1.0000000   1.0000000   1.0000000   1.0000000

  Atom        11          12          13
 IAtWgt=           1           1           1
 AtmWgt=   1.0078250   1.0078250   1.0078250
 NucSpn=           1           1           1
 AtZEff=   0.0000000   0.0000000   0.0000000
 NQMom=    0.0000000   0.0000000   0.0000000
 NMagM=    2.7928460   2.7928460   2.7928460
 AtZNuc=   1.0000000   1.0000000   1.0000000
 No MM parameters found.
 Leave Link  101 at Wed Oct  7 13:15:30 2020, MaxMem=  2684354560 cpu:              15.4 elap:               1.5
 (Enter /udrive/faculty/rpeverati/g16/g16/l103.exe)

 GradGradGradGradGradGradGradGradGradGradGradGradGradGradGradGradGradGrad
 Berny optimization.
 Optmz: redundant internal coordinate code flag= 1
 Initialization pass.
                           ----------------------------
                           !    Initial Parameters    !
                           ! (Angstroms and Degrees)  !
 --------------------------                            --------------------------
 ! Name  Definition              Value          Derivative Info.                !
 --------------------------------------------------------------------------------
 ! R1    R(1,2)                  1.4997         estimate D2E/DX2                !
 ! R2    R(1,6)                  1.0918         estimate D2E/DX2                !
 ! R3    R(1,7)                  1.0918         estimate D2E/DX2                !
 ! R4    R(1,8)                  1.0872         estimate D2E/DX2                !
 ! R5    R(2,3)                  1.34           estimate D2E/DX2                !
 ! R6    R(2,9)                  1.0845         estimate D2E/DX2                !
 ! R7    R(3,4)                  1.4613         estimate D2E/DX2                !
 ! R8    R(3,10)                 1.0847         estimate D2E/DX2                !
 ! R9    R(4,5)                  1.3376         estimate D2E/DX2                !
 ! R10   R(4,11)                 1.0824         estimate D2E/DX2                !
 ! R11   R(5,12)                 1.0805         estimate D2E/DX2                !
 ! R12   R(5,13)                 1.0827         estimate D2E/DX2                !
 ! A1    A(2,1,6)              110.454          estimate D2E/DX2                !
 ! A2    A(2,1,7)              110.4539         estimate D2E/DX2                !
 ! A3    A(2,1,8)              112.8797         estimate D2E/DX2                !
 ! A4    A(6,1,7)              106.9071         estimate D2E/DX2                !
 ! A5    A(6,1,8)              107.96           estimate D2E/DX2                !
 ! A6    A(7,1,8)              107.9599         estimate D2E/DX2                !
 ! A7    A(1,2,3)              127.3679         estimate D2E/DX2                !
 ! A8    A(1,2,9)              115.3987         estimate D2E/DX2                !
 ! A9    A(3,2,9)              117.2333         estimate D2E/DX2                !
 ! A10   A(2,3,4)              126.6344         estimate D2E/DX2                !
 ! A11   A(2,3,10)             117.9542         estimate D2E/DX2                !
 ! A12   A(4,3,10)             115.4113         estimate D2E/DX2                !
 ! A13   A(3,4,5)              123.1115         estimate D2E/DX2                !
 ! A14   A(3,4,11)             118.1014         estimate D2E/DX2                !
 ! A15   A(5,4,11)             118.7871         estimate D2E/DX2                !
 ! A16   A(4,5,12)             121.5392         estimate D2E/DX2                !
 ! A17   A(4,5,13)             121.266          estimate D2E/DX2                !
 ! A18   A(12,5,13)            117.1948         estimate D2E/DX2                !
 ! D1    D(6,1,2,3)            120.9702         estimate D2E/DX2                !
 ! D2    D(6,1,2,9)            -59.0299         estimate D2E/DX2                !
 ! D3    D(7,1,2,3)           -120.9708         estimate D2E/DX2                !
 ! D4    D(7,1,2,9)             59.0292         estimate D2E/DX2                !
 ! D5    D(8,1,2,3)             -0.0004         estimate D2E/DX2                !
 ! D6    D(8,1,2,9)            179.9995         estimate D2E/DX2                !
 ! D7    D(1,2,3,4)             -0.0001         estimate D2E/DX2                !
 ! D8    D(1,2,3,10)          -180.0            estimate D2E/DX2                !
 ! D9    D(9,2,3,4)            180.0            estimate D2E/DX2                !
 ! D10   D(9,2,3,10)             0.0001         estimate D2E/DX2                !
 ! D11   D(2,3,4,5)           -179.9986         estimate D2E/DX2                !
 ! D12   D(2,3,4,11)             0.0014         estimate D2E/DX2                !
 ! D13   D(10,3,4,5)             0.0013         estimate D2E/DX2                !
 ! D14   D(10,3,4,11)         -179.9987         estimate D2E/DX2                !
 ! D15   D(3,4,5,12)           179.9999         estimate D2E/DX2                !
 ! D16   D(3,4,5,13)            -0.0001         estimate D2E/DX2                !
 ! D17   D(11,4,5,12)           -0.0001         estimate D2E/DX2                !
 ! D18   D(11,4,5,13)          179.9999         estimate D2E/DX2                !
 --------------------------------------------------------------------------------
 Maximum allowed force set to 1.00D+20.
 Trust Radius=3.00D-01 FncErr=1.00D-07 GrdErr=1.00D-06 EigMax=2.50D+02 EigMin=1.00D-04
 Number of steps in this run=    100 maximum allowed number of steps=    100.
 GradGradGradGradGradGradGradGradGradGradGradGradGradGradGradGradGradGrad

 Leave Link  103 at Wed Oct  7 13:15:32 2020, MaxMem=  2684354560 cpu:               2.0 elap:               0.7
 (Enter /udrive/faculty/rpeverati/g16/g16/l202.exe)
                          Input orientation:                          
 ---------------------------------------------------------------------
 Center     Atomic      Atomic             Coordinates (Angstroms)
 Number     Number       Type             X           Y           Z
 ---------------------------------------------------------------------
      1          6           0       -2.055637   -0.612274    0.000007
      2          6           0       -1.231099    0.640447    0.000049
      3          6           0        0.105634    0.734276    0.000026
      4          6           0        1.057555   -0.374407   -0.000044
      5          6           0        2.383583   -0.198936   -0.000036
      6          1           0       -2.705085   -0.641596    0.877132
      7          1           0       -2.705127   -0.641506   -0.877090
      8          1           0       -1.451332   -1.516082   -0.000055
      9          1           0       -1.793667    1.567587    0.000103
     10          1           0        0.545756    1.725642    0.000064
     11          1           0        0.665260   -1.383243   -0.000105
     12          1           0        3.064693   -1.037722   -0.000088
     13          1           0        2.819276    0.792284    0.000023
 ---------------------------------------------------------------------
                    Distance matrix (angstroms):
                    1          2          3          4          5
     1  C    0.000000
     2  C    1.499724   0.000000
     3  C    2.546426   1.340022   0.000000
     4  C    3.122266   2.503571   1.461278   0.000000
     5  C    4.458421   3.710862   2.461694   1.337588   0.000000
     6  H    1.091784   2.141388   3.249997   3.872763   5.182656
     7  H    1.091784   2.141386   3.249998   3.872768   5.182670
     8  H    1.087223   2.167746   2.736467   2.756436   4.054806
     9  H    2.195546   1.084468   2.074067   3.449755   4.535419
    10  H    3.497584   2.082033   1.084672   2.161514   2.661129
    11  H    2.828016   2.773355   2.190221   1.082425   2.086915
    12  H    5.137974   4.611950   3.449059   2.113903   1.080496
    13  H    5.073220   4.053220   2.714262   2.113014   1.082749
                    6          7          8          9         10
     6  H    0.000000
     7  H    1.754222   0.000000
     8  H    1.762408   1.762407   0.000000
     9  H    2.545653   2.545647   3.102613   0.000000
    10  H    4.115948   4.115948   3.807510   2.344757   0.000000
    11  H    3.560732   3.560729   2.120757   3.841057   3.111180
    12  H    5.849510   5.849525   4.541289   5.512830   3.739147
    13  H    5.774418   5.774436   4.854549   4.677643   2.457651
                   11         12         13
    11  H    0.000000
    12  H    2.424182   0.000000
    13  H    3.061487   1.846389   0.000000
 Stoichiometry    C5H8
 Framework group  C1[X(C5H8)]
 Deg. of freedom    33
 Full point group                 C1      NOp   1
 Largest Abelian subgroup         C1      NOp   1
 Largest concise Abelian subgroup C1      NOp   1
                         Standard orientation:                         
 ---------------------------------------------------------------------
 Center     Atomic      Atomic             Coordinates (Angstroms)
 Number     Number       Type             X           Y           Z
 ---------------------------------------------------------------------
      1          6           0       -2.055636   -0.612274    0.000007
      2          6           0       -1.231099    0.640447    0.000049
      3          6           0        0.105634    0.734276    0.000026
      4          6           0        1.057556   -0.374407   -0.000044
      5          6           0        2.383584   -0.198936   -0.000036
      6          1           0       -2.705085   -0.641596    0.877132
      7          1           0       -2.705127   -0.641506   -0.877090
      8          1           0       -1.451332   -1.516082   -0.000055
      9          1           0       -1.793668    1.567587    0.000103
     10          1           0        0.545756    1.725642    0.000064
     11          1           0        0.665261   -1.383243   -0.000105
     12          1           0        3.064693   -1.037721   -0.000088
     13          1           0        2.819276    0.792285    0.000023
 ---------------------------------------------------------------------
 Rotational constants (GHZ):          15.8794823           2.6528461           2.3052563
 Leave Link  202 at Wed Oct  7 13:15:32 2020, MaxMem=  2684354560 cpu:               1.2 elap:               0.6
 (Enter /udrive/faculty/rpeverati/g16/g16/l301.exe)
 Standard basis: 6-31G(d) (5D, 7F)
 Ernie: Thresh=  0.10000D-02 Tol=  0.10000D-05 Strict=F.
 There are    91 symmetry adapted cartesian basis functions of A   symmetry.
 There are    86 symmetry adapted basis functions of A   symmetry.
    86 basis functions,   172 primitive gaussians,    91 cartesian basis functions
    19 alpha electrons       19 beta electrons
       nuclear repulsion energy       155.8151495793 Hartrees.
 IExCor=  404 DFT=T Ex=B Corr=P86 ExCW=0 ScaHFX=  0.000000
 ScaDFX=  1.000000  1.000000  1.000000  1.000000 ScalE2=  1.000000  1.000000
 IRadAn=      5 IRanWt=     -1 IRanGd=            0 ICorTp=0 IEmpDi=  4
 NAtoms=   13 NActive=   13 NUniq=   13 SFac= 1.00D+00 NAtFMM=   60 NAOKFM=F Big=F
 Integral buffers will be    131072 words long.
 Raffenetti 2 integral format.
 Two-electron integral symmetry is turned on.
 Leave Link  301 at Wed Oct  7 13:15:33 2020, MaxMem=  2684354560 cpu:               2.4 elap:               0.5
 (Enter /udrive/faculty/rpeverati/g16/g16/l302.exe)
 NPDir=0 NMtPBC=     1 NCelOv=     1 NCel=       1 NClECP=     1 NCelD=      1
         NCelK=      1 NCelE2=     1 NClLst=     1 CellRange=     0.0.
 One-electron integrals computed using PRISM.
 One-electron integral symmetry used in STVInt
 NBasis=    86 RedAO= T EigKep=  2.65D-03  NBF=    86
 NBsUse=    86 1.00D-06 EigRej= -1.00D+00 NBFU=    86
 Precomputing XC quadrature grid using
 IXCGrd= 4 IRadAn=           5 IRanWt=          -1 IRanGd=           0 AccXCQ= 0.00D+00.
 Generated NRdTot=       0 NPtTot=           0 NUsed=           0 NTot=          32
 NSgBfM=    91    91    91    91    91 MxSgAt=    13 MxSgA2=    13.
 Leave Link  302 at Wed Oct  7 13:15:34 2020, MaxMem=  2684354560 cpu:               5.9 elap:               0.8
 (Enter /udrive/faculty/rpeverati/g16/g16/l303.exe)
 DipDrv:  MaxL=1.
 Leave Link  303 at Wed Oct  7 13:15:35 2020, MaxMem=  2684354560 cpu:               1.7 elap:               0.4
 (Enter /udrive/faculty/rpeverati/g16/g16/l401.exe)
 SCF N**3 symmetry information disabled.
 ExpMin= 1.61D-01 ExpMax= 3.05D+03 ExpMxC= 4.57D+02 IAcc=3 IRadAn=         5 AccDes= 0.00D+00
 Harris functional with IExCor=  404 and IRadAn=       5 diagonalized for initial guess.
 HarFok:  IExCor=  404 AccDes= 0.00D+00 IRadAn=         5 IDoV= 1 UseB2=F ITyADJ=14
 ICtDFT=  3500011 ScaDFX=  1.000000  1.000000  1.000000  1.000000
 FoFCou: FMM=F IPFlag=           0 FMFlag=      100000 FMFlg1=           0
         NFxFlg=           0 DoJE=T BraDBF=F KetDBF=T FulRan=T
         wScrn=  0.000000 ICntrl=       500 IOpCl=  0 I1Cent=   200000004 NGrid=           0
         NMat0=    1 NMatS0=      1 NMatT0=    0 NMatD0=    1 NMtDS0=    0 NMtDT0=    0
 Petite list used in FoFCou.
 Harris En= -195.440418381513    
 JPrj=0 DoOrth=F DoCkMO=F.
 Leave Link  401 at Wed Oct  7 13:15:36 2020, MaxMem=  2684354560 cpu:              11.8 elap:               1.4
 (Enter /udrive/faculty/rpeverati/g16/g16/l502.exe)
 Integral symmetry usage will be decided dynamically.
 Closed shell SCF:
 Using DIIS extrapolation, IDIIS=  1040.
 NGot=  2684354560 LenX=  2684335663 LenY=  2684326941
 Requested convergence on RMS density matrix=1.00D-08 within 120 cycles.
 Requested convergence on MAX density matrix=1.00D-06.
 Requested convergence on             energy=1.00D-06.
 No special actions if energy rises.
 Fock matrices will be formed incrementally for  20 cycles.
 Integral accuracy reduced to 1.0D-05 until final iterations.

 Cycle   1  Pass 0  IDiag  1:
 FoFJK:  IHMeth= 1 ICntrl=     500 DoSepK=F KAlg= 0 I1Cent=           0 FoldK=F
 IRaf= 980000000 NMat=       1 IRICut=       1 DoRegI=T DoRafI=F ISym2E= 0 IDoP0=0 IntGTp=1.
 FoFCou: FMM=F IPFlag=           0 FMFlag=      100000 FMFlg1=           0
         NFxFlg=           0 DoJE=T BraDBF=F KetDBF=F FulRan=T
         wScrn=  0.000000 ICntrl=       500 IOpCl=  0 I1Cent=           0 NGrid=           0
         NMat0=    1 NMatS0=      1 NMatT0=    0 NMatD0=    1 NMtDS0=    0 NMtDT0=    0
 Symmetry not used in FoFCou.
 E= -195.129059240545    
 DIIS: error= 4.62D-02 at cycle   1 NSaved=   1.
 NSaved= 1 IEnMin= 1 EnMin= -195.129059240545     IErMin= 1 ErrMin= 4.62D-02
 ErrMax= 4.62D-02  0.00D+00 EMaxC= 1.00D-01 BMatC= 1.36D-01 BMatP= 1.36D-01
 IDIUse=3 WtCom= 5.38D-01 WtEn= 4.62D-01
 Coeff-Com:  0.100D+01
 Coeff-En:   0.100D+01
 Coeff:      0.100D+01
 Gap=     0.142 Goal=   None    Shift=    0.000
 GapD=    0.142 DampG=1.000 DampE=0.500 DampFc=0.5000 IDamp=-1.
 Damping current iteration by 5.00D-01
 RMSDP=1.12D-02 MaxDP=1.45D-01              OVMax= 1.79D-01

 Cycle   2  Pass 0  IDiag  1:
 RMSU=  5.54D-03    CP:  9.73D-01
 E= -195.195052374675     Delta-E=       -0.065993134130 Rises=F Damp=T
 DIIS: error= 4.45D-03 at cycle   2 NSaved=   2.
 NSaved= 2 IEnMin= 2 EnMin= -195.195052374675     IErMin= 2 ErrMin= 4.45D-03
 ErrMax= 4.45D-03  0.00D+00 EMaxC= 1.00D-01 BMatC= 5.03D-03 BMatP= 1.36D-01
 IDIUse=3 WtCom= 9.56D-01 WtEn= 4.45D-02
 Coeff-Com:  0.122D+00 0.878D+00
 Coeff-En:   0.207D+00 0.793D+00
 Coeff:      0.126D+00 0.874D+00
 Gap=     0.146 Goal=   None    Shift=    0.000
 RMSDP=1.99D-03 MaxDP=2.59D-02 DE=-6.60D-02 OVMax= 1.06D-01

 Cycle   3  Pass 0  IDiag  1:
 RMSU=  1.61D-03    CP:  9.75D-01  7.91D-01
 E= -195.288732592996     Delta-E=       -0.093680218321 Rises=F Damp=F
 DIIS: error= 4.51D-03 at cycle   3 NSaved=   3.
 NSaved= 3 IEnMin= 3 EnMin= -195.288732592996     IErMin= 2 ErrMin= 4.45D-03
 ErrMax= 4.51D-03  0.00D+00 EMaxC= 1.00D-01 BMatC= 1.80D-03 BMatP= 5.03D-03
 IDIUse=3 WtCom= 9.55D-01 WtEn= 4.51D-02
 Coeff-Com:  0.452D-01 0.403D+00 0.552D+00
 Coeff-En:   0.000D+00 0.000D+00 0.100D+01
 Coeff:      0.431D-01 0.385D+00 0.572D+00
 Gap=     0.147 Goal=   None    Shift=    0.000
 RMSDP=8.76D-04 MaxDP=1.89D-02 DE=-9.37D-02 OVMax= 3.44D-02

 Cycle   4  Pass 0  IDiag  1:
 RMSU=  6.60D-04    CP:  9.76D-01  8.22D-01  6.60D-01
 E= -195.289259510847     Delta-E=       -0.000526917851 Rises=F Damp=F
 DIIS: error= 4.02D-03 at cycle   4 NSaved=   4.
 NSaved= 4 IEnMin= 4 EnMin= -195.289259510847     IErMin= 4 ErrMin= 4.02D-03
 ErrMax= 4.02D-03  0.00D+00 EMaxC= 1.00D-01 BMatC= 1.35D-03 BMatP= 1.80D-03
 IDIUse=3 WtCom= 9.60D-01 WtEn= 4.02D-02
 Coeff-Com:  0.140D-01 0.158D+00 0.435D+00 0.393D+00
 Coeff-En:   0.000D+00 0.000D+00 0.440D+00 0.560D+00
 Coeff:      0.134D-01 0.152D+00 0.435D+00 0.399D+00
 Gap=     0.147 Goal=   None    Shift=    0.000
 RMSDP=4.14D-04 MaxDP=1.02D-02 DE=-5.27D-04 OVMax= 1.89D-02

 Cycle   5  Pass 0  IDiag  1:
 RMSU=  1.98D-04    CP:  9.75D-01  8.16D-01  7.41D-01  4.89D-01
 E= -195.290690451048     Delta-E=       -0.001430940201 Rises=F Damp=F
 DIIS: error= 6.43D-04 at cycle   5 NSaved=   5.
 NSaved= 5 IEnMin= 5 EnMin= -195.290690451048     IErMin= 5 ErrMin= 6.43D-04
 ErrMax= 6.43D-04  0.00D+00 EMaxC= 1.00D-01 BMatC= 3.62D-05 BMatP= 1.35D-03
 IDIUse=3 WtCom= 9.94D-01 WtEn= 6.43D-03
 Coeff-Com:  0.247D-02 0.355D-01 0.163D+00 0.204D+00 0.595D+00
 Coeff-En:   0.000D+00 0.000D+00 0.000D+00 0.000D+00 0.100D+01
 Coeff:      0.245D-02 0.353D-01 0.162D+00 0.203D+00 0.598D+00
 Gap=     0.147 Goal=   None    Shift=    0.000
 RMSDP=1.02D-04 MaxDP=1.86D-03 DE=-1.43D-03 OVMax= 5.05D-03

 Cycle   6  Pass 0  IDiag  1:
 RMSU=  6.59D-05    CP:  9.75D-01  8.18D-01  7.42D-01  5.39D-01  6.49D-01
 E= -195.290713491337     Delta-E=       -0.000023040289 Rises=F Damp=F
 DIIS: error= 4.21D-04 at cycle   6 NSaved=   6.
 NSaved= 6 IEnMin= 6 EnMin= -195.290713491337     IErMin= 6 ErrMin= 4.21D-04
 ErrMax= 4.21D-04  0.00D+00 EMaxC= 1.00D-01 BMatC= 1.33D-05 BMatP= 3.62D-05
 IDIUse=3 WtCom= 9.96D-01 WtEn= 4.21D-03
 Coeff-Com:  0.572D-03 0.109D-01 0.761D-01 0.108D+00 0.432D+00 0.371D+00
 Coeff-En:   0.000D+00 0.000D+00 0.000D+00 0.000D+00 0.308D+00 0.692D+00
 Coeff:      0.569D-03 0.109D-01 0.758D-01 0.108D+00 0.432D+00 0.373D+00
 Gap=     0.147 Goal=   None    Shift=    0.000
 RMSDP=5.27D-05 MaxDP=1.38D-03 DE=-2.30D-05 OVMax= 3.49D-03

 Cycle   7  Pass 0  IDiag  1:
 RMSU=  2.67D-05    CP:  9.75D-01  8.18D-01  7.44D-01  5.23D-01  6.97D-01
                    CP:  3.48D-01
 E= -195.290728077941     Delta-E=       -0.000014586604 Rises=F Damp=F
 DIIS: error= 1.29D-04 at cycle   7 NSaved=   7.
 NSaved= 7 IEnMin= 7 EnMin= -195.290728077941     IErMin= 7 ErrMin= 1.29D-04
 ErrMax= 1.29D-04  0.00D+00 EMaxC= 1.00D-01 BMatC= 1.49D-06 BMatP= 1.33D-05
 IDIUse=3 WtCom= 9.99D-01 WtEn= 1.29D-03
 Coeff-Com:  0.150D-03 0.376D-02 0.348D-01 0.520D-01 0.235D+00 0.274D+00
 Coeff-Com:  0.401D+00
 Coeff-En:   0.000D+00 0.000D+00 0.000D+00 0.000D+00 0.000D+00 0.111D+00
 Coeff-En:   0.889D+00
 Coeff:      0.150D-03 0.375D-02 0.348D-01 0.519D-01 0.235D+00 0.274D+00
 Coeff:      0.401D+00
 Gap=     0.147 Goal=   None    Shift=    0.000
 RMSDP=1.65D-05 MaxDP=3.44D-04 DE=-1.46D-05 OVMax= 9.00D-04

 Cycle   8  Pass 0  IDiag  1:
 RMSU=  6.27D-06    CP:  9.75D-01  8.17D-01  7.46D-01  5.25D-01  6.96D-01
                    CP:  4.30D-01  4.94D-01
 E= -195.290729800387     Delta-E=       -0.000001722446 Rises=F Damp=F
 DIIS: error= 1.27D-05 at cycle   8 NSaved=   8.
 NSaved= 8 IEnMin= 8 EnMin= -195.290729800387     IErMin= 8 ErrMin= 1.27D-05
 ErrMax= 1.27D-05  0.00D+00 EMaxC= 1.00D-01 BMatC= 3.23D-08 BMatP= 1.49D-06
 IDIUse=1 WtCom= 1.00D+00 WtEn= 0.00D+00
 Coeff-Com: -0.551D-05-0.315D-04 0.582D-02 0.971D-02 0.532D-01 0.820D-01
 Coeff-Com:  0.182D+00 0.668D+00
 Coeff:     -0.551D-05-0.315D-04 0.582D-02 0.971D-02 0.532D-01 0.820D-01
 Coeff:      0.182D+00 0.668D+00
 Gap=     0.147 Goal=   None    Shift=    0.000
 RMSDP=2.34D-06 MaxDP=3.52D-05 DE=-1.72D-06 OVMax= 4.01D-05

 Initial convergence to 1.0D-05 achieved.  Increase integral accuracy.
 Cycle   9  Pass 1  IDiag  1:
 E= -195.290726596869     Delta-E=        0.000003203518 Rises=F Damp=F
 DIIS: error= 3.62D-06 at cycle   1 NSaved=   1.
 NSaved= 1 IEnMin= 1 EnMin= -195.290726596869     IErMin= 1 ErrMin= 3.62D-06
 ErrMax= 3.62D-06  0.00D+00 EMaxC= 1.00D-01 BMatC= 2.17D-09 BMatP= 2.17D-09
 IDIUse=1 WtCom= 1.00D+00 WtEn= 0.00D+00
 Coeff-Com:  0.100D+01
 Coeff:      0.100D+01
 Gap=     0.147 Goal=   None    Shift=    0.000
 RMSDP=2.34D-06 MaxDP=3.52D-05 DE= 3.20D-06 OVMax= 3.84D-05

 Cycle  10  Pass 1  IDiag  1:
 RMSU=  1.74D-06    CP:  1.00D+00
 E= -195.290726634517     Delta-E=       -0.000000037647 Rises=F Damp=F
 DIIS: error= 5.09D-06 at cycle   2 NSaved=   2.
 NSaved= 2 IEnMin= 2 EnMin= -195.290726634517     IErMin= 1 ErrMin= 3.62D-06
 ErrMax= 5.09D-06  0.00D+00 EMaxC= 1.00D-01 BMatC= 3.81D-09 BMatP= 2.17D-09
 IDIUse=1 WtCom= 1.00D+00 WtEn= 0.00D+00
 Coeff-Com:  0.579D+00 0.421D+00
 Coeff:      0.579D+00 0.421D+00
 Gap=     0.147 Goal=   None    Shift=    0.000
 RMSDP=7.86D-07 MaxDP=1.78D-05 DE=-3.76D-08 OVMax= 3.81D-05

 Cycle  11  Pass 1  IDiag  1:
 RMSU=  6.62D-07    CP:  1.00D+00  7.56D-01
 E= -195.290726598755     Delta-E=        0.000000035761 Rises=F Damp=F
 DIIS: error= 2.36D-06 at cycle   3 NSaved=   3.
 NSaved= 3 IEnMin= 2 EnMin= -195.290726634517     IErMin= 3 ErrMin= 2.36D-06
 ErrMax= 2.36D-06  0.00D+00 EMaxC= 1.00D-01 BMatC= 4.83D-10 BMatP= 2.17D-09
 IDIUse=1 WtCom= 1.00D+00 WtEn= 0.00D+00
 Coeff-Com:  0.254D+00 0.270D+00 0.476D+00
 Coeff:      0.254D+00 0.270D+00 0.476D+00
 Gap=     0.147 Goal=   None    Shift=    0.000
 RMSDP=3.90D-07 MaxDP=9.41D-06 DE= 3.58D-08 OVMax= 2.57D-05

 Cycle  12  Pass 1  IDiag  1:
 RMSU=  3.12D-07    CP:  1.00D+00  7.90D-01  6.58D-01
 E= -195.290726599069     Delta-E=       -0.000000000314 Rises=F Damp=F
 DIIS: error= 2.05D-06 at cycle   4 NSaved=   4.
 NSaved= 4 IEnMin= 2 EnMin= -195.290726634517     IErMin= 4 ErrMin= 2.05D-06
 ErrMax= 2.05D-06  0.00D+00 EMaxC= 1.00D-01 BMatC= 1.90D-10 BMatP= 4.83D-10
 IDIUse=1 WtCom= 1.00D+00 WtEn= 0.00D+00
 Coeff-Com:  0.330D-01 0.962D-01 0.399D+00 0.472D+00
 Coeff:      0.330D-01 0.962D-01 0.399D+00 0.472D+00
 Gap=     0.147 Goal=   None    Shift=    0.000
 RMSDP=2.05D-07 MaxDP=4.08D-06 DE=-3.14D-10 OVMax= 1.25D-05

 Cycle  13  Pass 1  IDiag  1:
 RMSU=  7.39D-08    CP:  1.00D+00  7.85D-01  7.67D-01  4.32D-01
 E= -195.290726599307     Delta-E=       -0.000000000238 Rises=F Damp=F
 DIIS: error= 2.74D-07 at cycle   5 NSaved=   5.
 NSaved= 5 IEnMin= 2 EnMin= -195.290726634517     IErMin= 5 ErrMin= 2.74D-07
 ErrMax= 2.74D-07  0.00D+00 EMaxC= 1.00D-01 BMatC= 4.37D-12 BMatP= 1.90D-10
 IDIUse=1 WtCom= 1.00D+00 WtEn= 0.00D+00
 Coeff-Com:  0.127D-02 0.304D-01 0.153D+00 0.244D+00 0.571D+00
 Coeff:      0.127D-02 0.304D-01 0.153D+00 0.244D+00 0.571D+00
 Gap=     0.147 Goal=   None    Shift=    0.000
 RMSDP=3.70D-08 MaxDP=6.00D-07 DE=-2.38D-10 OVMax= 1.56D-06

 Cycle  14  Pass 1  IDiag  1:
 RMSU=  1.19D-08    CP:  1.00D+00  7.89D-01  7.59D-01  4.79D-01  5.86D-01
 E= -195.290726599313     Delta-E=       -0.000000000007 Rises=F Damp=F
 DIIS: error= 5.27D-08 at cycle   6 NSaved=   6.
 NSaved= 6 IEnMin= 2 EnMin= -195.290726634517     IErMin= 6 ErrMin= 5.27D-08
 ErrMax= 5.27D-08  0.00D+00 EMaxC= 1.00D-01 BMatC= 3.43D-13 BMatP= 4.37D-12
 IDIUse=1 WtCom= 1.00D+00 WtEn= 0.00D+00
 Coeff-Com: -0.523D-03 0.161D-01 0.828D-01 0.141D+00 0.355D+00 0.406D+00
 Coeff:     -0.523D-03 0.161D-01 0.828D-01 0.141D+00 0.355D+00 0.406D+00
 Gap=     0.147 Goal=   None    Shift=    0.000
 RMSDP=7.42D-09 MaxDP=1.41D-07 DE=-6.71D-12 OVMax= 3.19D-07

 SCF Done:  E(RB-P86) =  -195.290726599     A.U. after   14 cycles
            NFock= 14  Conv=0.74D-08     -V/T= 2.0067
 KE= 1.939988922067D+02 PE=-7.635672875364D+02 EE= 2.184625191511D+02
 Leave Link  502 at Wed Oct  7 13:15:48 2020, MaxMem=  2684354560 cpu:             132.3 elap:              11.4
 (Enter /udrive/faculty/rpeverati/g16/g16/l508.exe)
 QCSCF skips out because SCF is already converged.
 Leave Link  508 at Wed Oct  7 13:15:49 2020, MaxMem=  2684354560 cpu:               0.5 elap:               0.4
 (Enter /udrive/faculty/rpeverati/g16/g16/l601.exe)
 Copying SCF densities to generalized density rwf, IOpCl= 0 IROHF=0.

 **********************************************************************

            Population analysis using the SCF density.

 **********************************************************************

 Orbital symmetries:
       Occupied  (A) (A) (A) (A) (A) (A) (A) (A) (A) (A) (A) (A)
                 (A) (A) (A) (A) (A) (A) (A)
       Virtual   (A) (A) (A) (A) (A) (A) (A) (A) (A) (A) (A) (A)
                 (A) (A) (A) (A) (A) (A) (A) (A) (A) (A) (A) (A)
                 (A) (A) (A) (A) (A) (A) (A) (A) (A) (A) (A) (A)
                 (A) (A) (A) (A) (A) (A) (A) (A) (A) (A) (A) (A)
                 (A) (A) (A) (A) (A) (A) (A) (A) (A) (A) (A) (A)
                 (A) (A) (A) (A) (A) (A) (A)
 The electronic state is 1-A.
 Alpha  occ. eigenvalues --   -9.90789  -9.90705  -9.90208  -9.90008  -9.89577
 Alpha  occ. eigenvalues --   -0.73228  -0.68267  -0.61690  -0.53130  -0.47657
 Alpha  occ. eigenvalues --   -0.42595  -0.39826  -0.36950  -0.35508  -0.33570
 Alpha  occ. eigenvalues --   -0.32348  -0.28908  -0.27524  -0.19337
 Alpha virt. eigenvalues --   -0.04637   0.05223   0.08003   0.08702   0.11066
 Alpha virt. eigenvalues --    0.13801   0.14641   0.14906   0.16863   0.19852
 Alpha virt. eigenvalues --    0.22259   0.29934   0.34416   0.39961   0.43686
 Alpha virt. eigenvalues --    0.47753   0.47968   0.53324   0.54275   0.57782
 Alpha virt. eigenvalues --    0.58428   0.58839   0.63499   0.63499   0.64531
 Alpha virt. eigenvalues --    0.67503   0.73041   0.80636   0.81951   0.82984
 Alpha virt. eigenvalues --    0.84522   0.85476   0.88412   0.90342   0.92677
 Alpha virt. eigenvalues --    0.94865   1.03795   1.06979   1.10943   1.23232
 Alpha virt. eigenvalues --    1.26591   1.29135   1.35706   1.44055   1.46873
 Alpha virt. eigenvalues --    1.47971   1.64833   1.68822   1.76298   1.80420
 Alpha virt. eigenvalues --    1.89479   1.91916   1.95664   1.98516   2.02332
 Alpha virt. eigenvalues --    2.10867   2.17691   2.22482   2.24851   2.33834
 Alpha virt. eigenvalues --    2.40170   2.42986   2.44717   2.58044   2.69065
 Alpha virt. eigenvalues --    2.88507   2.99369
          Condensed to atoms (all electrons):
               1          2          3          4          5          6
     1  C    5.154742   0.383547  -0.039967  -0.018126   0.000746   0.367583
     2  C    0.383547   4.891439   0.652584  -0.026197   0.004558  -0.029880
     3  C   -0.039967   0.652584   4.804981   0.456725  -0.020012   0.000165
     4  C   -0.018126  -0.026197   0.456725   4.763841   0.624471   0.000362
     5  C    0.000746   0.004558  -0.020012   0.624471   5.100535  -0.000003
     6  H    0.367583  -0.029880   0.000165   0.000362  -0.000003   0.551545
     7  H    0.367583  -0.029880   0.000165   0.000362  -0.000003  -0.034239
     8  H    0.368555  -0.028702  -0.009742   0.004693  -0.000102  -0.028743
     9  H   -0.063436   0.357745  -0.027766   0.006249  -0.000241  -0.001374
    10  H    0.007045  -0.044957   0.359344  -0.058716  -0.007687  -0.000160
    11  H    0.003188  -0.009134  -0.049738   0.361827  -0.053888  -0.000113
    12  H    0.000002  -0.000253   0.004063  -0.019811   0.361196  -0.000000
    13  H   -0.000001   0.000369  -0.012149  -0.036572   0.367877   0.000000
               7          8          9         10         11         12
     1  C    0.367583   0.368555  -0.063436   0.007045   0.003188   0.000002
     2  C   -0.029880  -0.028702   0.357745  -0.044957  -0.009134  -0.000253
     3  C    0.000165  -0.009742  -0.027766   0.359344  -0.049738   0.004063
     4  C    0.000362   0.004693   0.006249  -0.058716   0.361827  -0.019811
     5  C   -0.000003  -0.000102  -0.000241  -0.007687  -0.053888   0.361196
     6  H   -0.034239  -0.028743  -0.001374  -0.000160  -0.000113  -0.000000
     7  H    0.551545  -0.028743  -0.001374  -0.000160  -0.000113  -0.000000
     8  H   -0.028743   0.541042   0.004964  -0.000006   0.007154   0.000010
     9  H   -0.001374   0.004964   0.602001  -0.011466  -0.000036   0.000003
    10  H   -0.000160  -0.000006  -0.011466   0.617965   0.005796   0.000026
    11  H   -0.000113   0.007154  -0.000036   0.005796   0.606492  -0.007785
    12  H   -0.000000   0.000010   0.000003   0.000026  -0.007785   0.556490
    13  H    0.000000   0.000004  -0.000015   0.006788   0.006189  -0.043227
              13
     1  C   -0.000001
     2  C    0.000369
     3  C   -0.012149
     4  C   -0.036572
     5  C    0.367877
     6  H    0.000000
     7  H    0.000000
     8  H    0.000004
     9  H   -0.000015
    10  H    0.006788
    11  H    0.006189
    12  H   -0.043227
    13  H    0.562536
 Mulliken charges:
               1
     1  C   -0.531462
     2  C   -0.121242
     3  C   -0.118653
     4  C   -0.059109
     5  C   -0.377447
     6  H    0.174857
     7  H    0.174857
     8  H    0.169616
     9  H    0.134745
    10  H    0.126190
    11  H    0.130162
    12  H    0.149285
    13  H    0.148200
 Sum of Mulliken charges =  -0.00000
 Mulliken charges with hydrogens summed into heavy atoms:
               1
     1  C   -0.012131
     2  C    0.013503
     3  C    0.007537
     4  C    0.071053
     5  C   -0.079962
 Electronic spatial extent (au):  <R**2>=            554.4850
 Charge=             -0.0000 electrons
 Dipole moment (field-independent basis, Debye):
    X=             -0.5454    Y=             -0.1435    Z=              0.0000  Tot=              0.5640
 Quadrupole moment (field-independent basis, Debye-Ang):
   XX=            -28.7801   YY=            -29.2823   ZZ=            -34.0663
   XY=              0.0737   XZ=             -0.0001   YZ=              0.0003
 Traceless Quadrupole moment (field-independent basis, Debye-Ang):
   XX=              1.9295   YY=              1.4273   ZZ=             -3.3567
   XY=              0.0737   XZ=             -0.0001   YZ=              0.0003
 Octapole moment (field-independent basis, Debye-Ang**2):
  XXX=             -0.8151  YYY=              0.8365  ZZZ=              0.0001  XYY=              1.6813
  XXY=              0.2896  XXZ=              0.0001  XZZ=             -3.5687  YZZ=             -0.7510
  YYZ=              0.0000  XYZ=              0.0003
 Hexadecapole moment (field-independent basis, Debye-Ang**3):
 XXXX=           -562.0983 YYYY=           -124.7210 ZZZZ=            -41.5878 XXXY=             -3.8701
 XXXZ=              0.0037 YYYX=             -2.7815 YYYZ=             -0.0014 ZZZX=              0.0044
 ZZZY=             -0.0025 XXYY=           -113.0912 XXZZ=           -108.2980 YYZZ=            -30.7256
 XXYZ=             -0.0000 YYXZ=              0.0009 ZZXY=              1.9615
 N-N= 1.558151495793D+02 E-N=-7.635672841445D+02  KE= 1.939988922067D+02
 No NMR shielding tensors so no spin-rotation constants.
 Leave Link  601 at Wed Oct  7 13:15:50 2020, MaxMem=  2684354560 cpu:               4.5 elap:               0.9
 (Enter /udrive/faculty/rpeverati/g16/g16/l701.exe)
 ... and contract with generalized density number  0.
 Compute integral first derivatives.
 Leave Link  701 at Wed Oct  7 13:15:51 2020, MaxMem=  2684354560 cpu:               4.6 elap:               0.7
 (Enter /udrive/faculty/rpeverati/g16/g16/l702.exe)
 L702 exits ... SP integral derivatives will be done elsewhere.
 Leave Link  702 at Wed Oct  7 13:15:52 2020, MaxMem=  2684354560 cpu:               1.3 elap:               0.5
 (Enter /udrive/faculty/rpeverati/g16/g16/l703.exe)
 Integral derivatives from FoFJK, PRISM(SPDF).
 Compute integral first derivatives, UseDBF=F ICtDFT=           0.
 Calling FoFJK, ICntrl=      2527 FMM=F ISym2X=0 I1Cent= 0 IOpClX= 0 NMat=1 NMatS=1 NMatT=0.
 FoFJK:  IHMeth= 1 ICntrl=    2527 DoSepK=F KAlg= 0 I1Cent=           0 FoldK=F
 IRaf=         0 NMat=       1 IRICut=       1 DoRegI=T DoRafI=F ISym2E= 0 IDoP0=0 IntGTp=1.
 FoFCou: FMM=F IPFlag=           0 FMFlag=      100000 FMFlg1=         800
         NFxFlg=           0 DoJE=F BraDBF=F KetDBF=F FulRan=T
         wScrn=  0.000000 ICntrl=      2527 IOpCl=  0 I1Cent=           0 NGrid=           0
         NMat0=    1 NMatS0=      1 NMatT0=    0 NMatD0=    1 NMtDS0=    0 NMtDT0=    0
 Symmetry not used in FoFCou.
 Leave Link  703 at Wed Oct  7 13:15:55 2020, MaxMem=  2684354560 cpu:              29.4 elap:               2.8
 (Enter /udrive/faculty/rpeverati/g16/g16/l716.exe)
 Dipole        =-2.14580003D-01-5.64556118D-02 8.40044503D-07
 ***** Axes restored to original set *****
 -------------------------------------------------------------------
 Center     Atomic                   Forces (Hartrees/Bohr)
 Number     Number              X              Y              Z
 -------------------------------------------------------------------
      1        6           0.004488294    0.006545545   -0.000000092
      2        6          -0.011317317   -0.006227883   -0.000000191
      3        6           0.013804132   -0.009254397   -0.000000714
      4        6          -0.011673469    0.009693849    0.000000603
      5        6           0.006682389   -0.000142103   -0.000000196
      6        1          -0.006587162   -0.000764486    0.007554208
      7        1          -0.006587676   -0.000763757   -0.007553907
      8        1           0.005009757   -0.008174479   -0.000000404
      9        1          -0.005906807    0.008201450    0.000000565
     10        1           0.004712141    0.008846229    0.000000458
     11        1          -0.004439708   -0.009451997   -0.000000400
     12        1           0.007102557   -0.007129327   -0.000000452
     13        1           0.004712871    0.008621356    0.000000522
 -------------------------------------------------------------------
 Cartesian Forces:  Max     0.013804132 RMS     0.006373928
 Leave Link  716 at Wed Oct  7 13:15:55 2020, MaxMem=  2684354560 cpu:               1.9 elap:               0.6
 (Enter /udrive/faculty/rpeverati/g16/g16/l103.exe)

 GradGradGradGradGradGradGradGradGradGradGradGradGradGradGradGradGradGrad
 Berny optimization.
 Optmz: redundant internal coordinate code flag= 1
 FormGI is forming the generalized inverse of G from B-inverse, IUseBI=4.
 Internal  Forces:  Max     0.020932481 RMS     0.005824523
 Search for a local minimum.
 Step number   1 out of a maximum of  100
 All quantities printed in internal units (Hartrees-Bohrs-Radians)
 RMS Force = .58245D-02 SwitMx=.10000D-02 MixMth= 1
 Mixed Optimization -- RFO/linear search
 Second derivative matrix not updated -- first step.
 The second derivative matrix:
                          R1        R2        R3        R4        R5
           R1           0.32406
           R2           0.00000   0.34607
           R3           0.00000   0.00000   0.34607
           R4           0.00000   0.00000   0.00000   0.35136
           R5           0.00000   0.00000   0.00000   0.00000   0.57200
           R6           0.00000   0.00000   0.00000   0.00000   0.00000
           R7           0.00000   0.00000   0.00000   0.00000   0.00000
           R8           0.00000   0.00000   0.00000   0.00000   0.00000
           R9           0.00000   0.00000   0.00000   0.00000   0.00000
           R10          0.00000   0.00000   0.00000   0.00000   0.00000
           R11          0.00000   0.00000   0.00000   0.00000   0.00000
           R12          0.00000   0.00000   0.00000   0.00000   0.00000
           A1           0.00000   0.00000   0.00000   0.00000   0.00000
           A2           0.00000   0.00000   0.00000   0.00000   0.00000
           A3           0.00000   0.00000   0.00000   0.00000   0.00000
           A4           0.00000   0.00000   0.00000   0.00000   0.00000
           A5           0.00000   0.00000   0.00000   0.00000   0.00000
           A6           0.00000   0.00000   0.00000   0.00000   0.00000
           A7           0.00000   0.00000   0.00000   0.00000   0.00000
           A8           0.00000   0.00000   0.00000   0.00000   0.00000
           A9           0.00000   0.00000   0.00000   0.00000   0.00000
           A10          0.00000   0.00000   0.00000   0.00000   0.00000
           A11          0.00000   0.00000   0.00000   0.00000   0.00000
           A12          0.00000   0.00000   0.00000   0.00000   0.00000
           A13          0.00000   0.00000   0.00000   0.00000   0.00000
           A14          0.00000   0.00000   0.00000   0.00000   0.00000
           A15          0.00000   0.00000   0.00000   0.00000   0.00000
           A16          0.00000   0.00000   0.00000   0.00000   0.00000
           A17          0.00000   0.00000   0.00000   0.00000   0.00000
           A18          0.00000   0.00000   0.00000   0.00000   0.00000
           D1           0.00000   0.00000   0.00000   0.00000   0.00000
           D2           0.00000   0.00000   0.00000   0.00000   0.00000
           D3           0.00000   0.00000   0.00000   0.00000   0.00000
           D4           0.00000   0.00000   0.00000   0.00000   0.00000
           D5           0.00000   0.00000   0.00000   0.00000   0.00000
           D6           0.00000   0.00000   0.00000   0.00000   0.00000
           D7           0.00000   0.00000   0.00000   0.00000   0.00000
           D8           0.00000   0.00000   0.00000   0.00000   0.00000
           D9           0.00000   0.00000   0.00000   0.00000   0.00000
           D10          0.00000   0.00000   0.00000   0.00000   0.00000
           D11          0.00000   0.00000   0.00000   0.00000   0.00000
           D12          0.00000   0.00000   0.00000   0.00000   0.00000
           D13          0.00000   0.00000   0.00000   0.00000   0.00000
           D14          0.00000   0.00000   0.00000   0.00000   0.00000
           D15          0.00000   0.00000   0.00000   0.00000   0.00000
           D16          0.00000   0.00000   0.00000   0.00000   0.00000
           D17          0.00000   0.00000   0.00000   0.00000   0.00000
           D18          0.00000   0.00000   0.00000   0.00000   0.00000
                          R6        R7        R8        R9        R10
           R6           0.35460
           R7           0.00000   0.36805
           R8           0.00000   0.00000   0.35436
           R9           0.00000   0.00000   0.00000   0.57749
           R10          0.00000   0.00000   0.00000   0.00000   0.35703
           R11          0.00000   0.00000   0.00000   0.00000   0.00000
           R12          0.00000   0.00000   0.00000   0.00000   0.00000
           A1           0.00000   0.00000   0.00000   0.00000   0.00000
           A2           0.00000   0.00000   0.00000   0.00000   0.00000
           A3           0.00000   0.00000   0.00000   0.00000   0.00000
           A4           0.00000   0.00000   0.00000   0.00000   0.00000
           A5           0.00000   0.00000   0.00000   0.00000   0.00000
           A6           0.00000   0.00000   0.00000   0.00000   0.00000
           A7           0.00000   0.00000   0.00000   0.00000   0.00000
           A8           0.00000   0.00000   0.00000   0.00000   0.00000
           A9           0.00000   0.00000   0.00000   0.00000   0.00000
           A10          0.00000   0.00000   0.00000   0.00000   0.00000
           A11          0.00000   0.00000   0.00000   0.00000   0.00000
           A12          0.00000   0.00000   0.00000   0.00000   0.00000
           A13          0.00000   0.00000   0.00000   0.00000   0.00000
           A14          0.00000   0.00000   0.00000   0.00000   0.00000
           A15          0.00000   0.00000   0.00000   0.00000   0.00000
           A16          0.00000   0.00000   0.00000   0.00000   0.00000
           A17          0.00000   0.00000   0.00000   0.00000   0.00000
           A18          0.00000   0.00000   0.00000   0.00000   0.00000
           D1           0.00000   0.00000   0.00000   0.00000   0.00000
           D2           0.00000   0.00000   0.00000   0.00000   0.00000
           D3           0.00000   0.00000   0.00000   0.00000   0.00000
           D4           0.00000   0.00000   0.00000   0.00000   0.00000
           D5           0.00000   0.00000   0.00000   0.00000   0.00000
           D6           0.00000   0.00000   0.00000   0.00000   0.00000
           D7           0.00000   0.00000   0.00000   0.00000   0.00000
           D8           0.00000   0.00000   0.00000   0.00000   0.00000
           D9           0.00000   0.00000   0.00000   0.00000   0.00000
           D10          0.00000   0.00000   0.00000   0.00000   0.00000
           D11          0.00000   0.00000   0.00000   0.00000   0.00000
           D12          0.00000   0.00000   0.00000   0.00000   0.00000
           D13          0.00000   0.00000   0.00000   0.00000   0.00000
           D14          0.00000   0.00000   0.00000   0.00000   0.00000
           D15          0.00000   0.00000   0.00000   0.00000   0.00000
           D16          0.00000   0.00000   0.00000   0.00000   0.00000
           D17          0.00000   0.00000   0.00000   0.00000   0.00000
           D18          0.00000   0.00000   0.00000   0.00000   0.00000
                          R11       R12       A1        A2        A3
           R11          0.35934
           R12          0.00000   0.35664
           A1           0.00000   0.00000   0.16000
           A2           0.00000   0.00000   0.00000   0.16000
           A3           0.00000   0.00000   0.00000   0.00000   0.16000
           A4           0.00000   0.00000   0.00000   0.00000   0.00000
           A5           0.00000   0.00000   0.00000   0.00000   0.00000
           A6           0.00000   0.00000   0.00000   0.00000   0.00000
           A7           0.00000   0.00000   0.00000   0.00000   0.00000
           A8           0.00000   0.00000   0.00000   0.00000   0.00000
           A9           0.00000   0.00000   0.00000   0.00000   0.00000
           A10          0.00000   0.00000   0.00000   0.00000   0.00000
           A11          0.00000   0.00000   0.00000   0.00000   0.00000
           A12          0.00000   0.00000   0.00000   0.00000   0.00000
           A13          0.00000   0.00000   0.00000   0.00000   0.00000
           A14          0.00000   0.00000   0.00000   0.00000   0.00000
           A15          0.00000   0.00000   0.00000   0.00000   0.00000
           A16          0.00000   0.00000   0.00000   0.00000   0.00000
           A17          0.00000   0.00000   0.00000   0.00000   0.00000
           A18          0.00000   0.00000   0.00000   0.00000   0.00000
           D1           0.00000   0.00000   0.00000   0.00000   0.00000
           D2           0.00000   0.00000   0.00000   0.00000   0.00000
           D3           0.00000   0.00000   0.00000   0.00000   0.00000
           D4           0.00000   0.00000   0.00000   0.00000   0.00000
           D5           0.00000   0.00000   0.00000   0.00000   0.00000
           D6           0.00000   0.00000   0.00000   0.00000   0.00000
           D7           0.00000   0.00000   0.00000   0.00000   0.00000
           D8           0.00000   0.00000   0.00000   0.00000   0.00000
           D9           0.00000   0.00000   0.00000   0.00000   0.00000
           D10          0.00000   0.00000   0.00000   0.00000   0.00000
           D11          0.00000   0.00000   0.00000   0.00000   0.00000
           D12          0.00000   0.00000   0.00000   0.00000   0.00000
           D13          0.00000   0.00000   0.00000   0.00000   0.00000
           D14          0.00000   0.00000   0.00000   0.00000   0.00000
           D15          0.00000   0.00000   0.00000   0.00000   0.00000
           D16          0.00000   0.00000   0.00000   0.00000   0.00000
           D17          0.00000   0.00000   0.00000   0.00000   0.00000
           D18          0.00000   0.00000   0.00000   0.00000   0.00000
                          A4        A5        A6        A7        A8
           A4           0.16000
           A5           0.00000   0.16000
           A6           0.00000   0.00000   0.16000
           A7           0.00000   0.00000   0.00000   0.25000
           A8           0.00000   0.00000   0.00000   0.00000   0.16000
           A9           0.00000   0.00000   0.00000   0.00000   0.00000
           A10          0.00000   0.00000   0.00000   0.00000   0.00000
           A11          0.00000   0.00000   0.00000   0.00000   0.00000
           A12          0.00000   0.00000   0.00000   0.00000   0.00000
           A13          0.00000   0.00000   0.00000   0.00000   0.00000
           A14          0.00000   0.00000   0.00000   0.00000   0.00000
           A15          0.00000   0.00000   0.00000   0.00000   0.00000
           A16          0.00000   0.00000   0.00000   0.00000   0.00000
           A17          0.00000   0.00000   0.00000   0.00000   0.00000
           A18          0.00000   0.00000   0.00000   0.00000   0.00000
           D1           0.00000   0.00000   0.00000   0.00000   0.00000
           D2           0.00000   0.00000   0.00000   0.00000   0.00000
           D3           0.00000   0.00000   0.00000   0.00000   0.00000
           D4           0.00000   0.00000   0.00000   0.00000   0.00000
           D5           0.00000   0.00000   0.00000   0.00000   0.00000
           D6           0.00000   0.00000   0.00000   0.00000   0.00000
           D7           0.00000   0.00000   0.00000   0.00000   0.00000
           D8           0.00000   0.00000   0.00000   0.00000   0.00000
           D9           0.00000   0.00000   0.00000   0.00000   0.00000
           D10          0.00000   0.00000   0.00000   0.00000   0.00000
           D11          0.00000   0.00000   0.00000   0.00000   0.00000
           D12          0.00000   0.00000   0.00000   0.00000   0.00000
           D13          0.00000   0.00000   0.00000   0.00000   0.00000
           D14          0.00000   0.00000   0.00000   0.00000   0.00000
           D15          0.00000   0.00000   0.00000   0.00000   0.00000
           D16          0.00000   0.00000   0.00000   0.00000   0.00000
           D17          0.00000   0.00000   0.00000   0.00000   0.00000
           D18          0.00000   0.00000   0.00000   0.00000   0.00000
                          A9        A10       A11       A12       A13
           A9           0.16000
           A10          0.00000   0.25000
           A11          0.00000   0.00000   0.16000
           A12          0.00000   0.00000   0.00000   0.16000
           A13          0.00000   0.00000   0.00000   0.00000   0.25000
           A14          0.00000   0.00000   0.00000   0.00000   0.00000
           A15          0.00000   0.00000   0.00000   0.00000   0.00000
           A16          0.00000   0.00000   0.00000   0.00000   0.00000
           A17          0.00000   0.00000   0.00000   0.00000   0.00000
           A18          0.00000   0.00000   0.00000   0.00000   0.00000
           D1           0.00000   0.00000   0.00000   0.00000   0.00000
           D2           0.00000   0.00000   0.00000   0.00000   0.00000
           D3           0.00000   0.00000   0.00000   0.00000   0.00000
           D4           0.00000   0.00000   0.00000   0.00000   0.00000
           D5           0.00000   0.00000   0.00000   0.00000   0.00000
           D6           0.00000   0.00000   0.00000   0.00000   0.00000
           D7           0.00000   0.00000   0.00000   0.00000   0.00000
           D8           0.00000   0.00000   0.00000   0.00000   0.00000
           D9           0.00000   0.00000   0.00000   0.00000   0.00000
           D10          0.00000   0.00000   0.00000   0.00000   0.00000
           D11          0.00000   0.00000   0.00000   0.00000   0.00000
           D12          0.00000   0.00000   0.00000   0.00000   0.00000
           D13          0.00000   0.00000   0.00000   0.00000   0.00000
           D14          0.00000   0.00000   0.00000   0.00000   0.00000
           D15          0.00000   0.00000   0.00000   0.00000   0.00000
           D16          0.00000   0.00000   0.00000   0.00000   0.00000
           D17          0.00000   0.00000   0.00000   0.00000   0.00000
           D18          0.00000   0.00000   0.00000   0.00000   0.00000
                          A14       A15       A16       A17       A18
           A14          0.16000
           A15          0.00000   0.16000
           A16          0.00000   0.00000   0.16000
           A17          0.00000   0.00000   0.00000   0.16000
           A18          0.00000   0.00000   0.00000   0.00000   0.16000
           D1           0.00000   0.00000   0.00000   0.00000   0.00000
           D2           0.00000   0.00000   0.00000   0.00000   0.00000
           D3           0.00000   0.00000   0.00000   0.00000   0.00000
           D4           0.00000   0.00000   0.00000   0.00000   0.00000
           D5           0.00000   0.00000   0.00000   0.00000   0.00000
           D6           0.00000   0.00000   0.00000   0.00000   0.00000
           D7           0.00000   0.00000   0.00000   0.00000   0.00000
           D8           0.00000   0.00000   0.00000   0.00000   0.00000
           D9           0.00000   0.00000   0.00000   0.00000   0.00000
           D10          0.00000   0.00000   0.00000   0.00000   0.00000
           D11          0.00000   0.00000   0.00000   0.00000   0.00000
           D12          0.00000   0.00000   0.00000   0.00000   0.00000
           D13          0.00000   0.00000   0.00000   0.00000   0.00000
           D14          0.00000   0.00000   0.00000   0.00000   0.00000
           D15          0.00000   0.00000   0.00000   0.00000   0.00000
           D16          0.00000   0.00000   0.00000   0.00000   0.00000
           D17          0.00000   0.00000   0.00000   0.00000   0.00000
           D18          0.00000   0.00000   0.00000   0.00000   0.00000
                          D1        D2        D3        D4        D5
           D1           0.00770
           D2           0.00000   0.00770
           D3           0.00000   0.00000   0.00770
           D4           0.00000   0.00000   0.00000   0.00770
           D5           0.00000   0.00000   0.00000   0.00000   0.00770
           D6           0.00000   0.00000   0.00000   0.00000   0.00000
           D7           0.00000   0.00000   0.00000   0.00000   0.00000
           D8           0.00000   0.00000   0.00000   0.00000   0.00000
           D9           0.00000   0.00000   0.00000   0.00000   0.00000
           D10          0.00000   0.00000   0.00000   0.00000   0.00000
           D11          0.00000   0.00000   0.00000   0.00000   0.00000
           D12          0.00000   0.00000   0.00000   0.00000   0.00000
           D13          0.00000   0.00000   0.00000   0.00000   0.00000
           D14          0.00000   0.00000   0.00000   0.00000   0.00000
           D15          0.00000   0.00000   0.00000   0.00000   0.00000
           D16          0.00000   0.00000   0.00000   0.00000   0.00000
           D17          0.00000   0.00000   0.00000   0.00000   0.00000
           D18          0.00000   0.00000   0.00000   0.00000   0.00000
                          D6        D7        D8        D9        D10
           D6           0.00770
           D7           0.00000   0.02882
           D8           0.00000   0.00000   0.02882
           D9           0.00000   0.00000   0.00000   0.02882
           D10          0.00000   0.00000   0.00000   0.00000   0.02882
           D11          0.00000   0.00000   0.00000   0.00000   0.00000
           D12          0.00000   0.00000   0.00000   0.00000   0.00000
           D13          0.00000   0.00000   0.00000   0.00000   0.00000
           D14          0.00000   0.00000   0.00000   0.00000   0.00000
           D15          0.00000   0.00000   0.00000   0.00000   0.00000
           D16          0.00000   0.00000   0.00000   0.00000   0.00000
           D17          0.00000   0.00000   0.00000   0.00000   0.00000
           D18          0.00000   0.00000   0.00000   0.00000   0.00000
                          D11       D12       D13       D14       D15
           D11          0.01278
           D12          0.00000   0.01278
           D13          0.00000   0.00000   0.01278
           D14          0.00000   0.00000   0.00000   0.01278
           D15          0.00000   0.00000   0.00000   0.00000   0.02914
           D16          0.00000   0.00000   0.00000   0.00000   0.00000
           D17          0.00000   0.00000   0.00000   0.00000   0.00000
           D18          0.00000   0.00000   0.00000   0.00000   0.00000
                          D16       D17       D18
           D16          0.02914
           D17          0.00000   0.02914
           D18          0.00000   0.00000   0.02914
 ITU=  0
 Eigenvectors of the second derivative matrix:
                           1         2         3         4         5
     Eigenvalues --     0.00770   0.01278   0.01631   0.02098   0.02102
   1         R1         0.00000   0.00000  -0.00000   0.00000  -0.00000
   2         R2         0.00000   0.00000   0.00000   0.00000  -0.00000
   3         R3         0.00000  -0.00000   0.00000   0.00000   0.00000
   4         R4         0.00000   0.00000  -0.00000   0.00000   0.00000
   5         R5         0.00000   0.00000   0.00000   0.00000   0.00000
   6         R6         0.00000  -0.00000  -0.00000  -0.00000  -0.00000
   7         R7         0.00000   0.00000  -0.00000   0.00000  -0.00000
   8         R8        -0.00000   0.00000   0.00000   0.00000  -0.00000
   9         R9        -0.00000   0.00000  -0.00000  -0.00000  -0.00000
  10         R10        0.00000  -0.00000   0.00000   0.00000   0.00000
  11         R11        0.00000   0.00000   0.00000  -0.00000  -0.00000
  12         R12       -0.00000  -0.00000   0.00000  -0.00000   0.00000
  13         A1         0.00000   0.00000  -0.00000  -0.00000  -0.00000
  14         A2        -0.00000  -0.00000   0.00000   0.00000   0.00000
  15         A3         0.00000  -0.00000   0.00000   0.00000  -0.00000
  16         A4         0.00000   0.00000  -0.00000  -0.00000  -0.00000
  17         A5         0.00000  -0.00000   0.00000  -0.00000  -0.00000
  18         A6        -0.00000   0.00000  -0.00000   0.00000   0.00000
  19         A7        -0.00000   0.00000   0.00000  -0.00000   0.00000
  20         A8        -0.00000  -0.00000   0.00000  -0.00000  -0.00000
  21         A9         0.00000  -0.00000   0.00000   0.00000   0.00000
  22         A10        0.00000  -0.00000  -0.00000   0.00000  -0.00000
  23         A11        0.00000   0.00000  -0.00000   0.00000   0.00000
  24         A12       -0.00000   0.00000   0.00000   0.00000  -0.00000
  25         A13       -0.00000   0.00000   0.00000  -0.00000  -0.00000
  26         A14        0.00000   0.00000  -0.00000   0.00000  -0.00000
  27         A15       -0.00000  -0.00000   0.00000  -0.00000  -0.00000
  28         A16       -0.00000   0.00000  -0.00000   0.00000   0.00000
  29         A17       -0.00000  -0.00000  -0.00000   0.00000  -0.00000
  30         A18        0.00000  -0.00000   0.00000  -0.00000   0.00000
  31         D1         0.40825   0.00000  -0.31421   0.00000   0.00000
  32         D2         0.40825   0.00000   0.31421  -0.00000  -0.00000
  33         D3         0.40825   0.00000  -0.31421   0.00000   0.00000
  34         D4         0.40825   0.00000   0.31421  -0.00000  -0.00000
  35         D5         0.40825   0.00000  -0.31421   0.00000   0.00000
  36         D6         0.40825   0.00000   0.31421  -0.00000  -0.00000
  37         D7         0.00000   0.00000   0.31923   0.35747   0.00000
  38         D8        -0.00000   0.00000   0.31923  -0.35747  -0.00000
  39         D9        -0.00000   0.00000  -0.31923   0.35747   0.00000
  40         D10       -0.00000   0.00000  -0.31923  -0.35747  -0.00000
  41         D11        0.00000  -0.50000  -0.00000  -0.34959   0.35241
  42         D12        0.00000  -0.50000  -0.00000  -0.34959  -0.35241
  43         D13        0.00000  -0.50000   0.00000   0.34959   0.35241
  44         D14        0.00000  -0.50000  -0.00000   0.34959  -0.35241
  45         D15        0.00000  -0.00000  -0.00000   0.00000  -0.35470
  46         D16        0.00000  -0.00000  -0.00000   0.00000  -0.35470
  47         D17        0.00000  -0.00000   0.00000  -0.00000   0.35470
  48         D18        0.00000   0.00000   0.00000  -0.00000   0.35470
                           6         7         8         9        10
     Eigenvalues --     0.02882   0.02914   0.02914   0.07004   0.07359
   1         R1        -0.00000  -0.00000  -0.00000   0.00000   0.00000
   2         R2        -0.00000   0.00000  -0.00000   0.00000  -0.00000
   3         R3        -0.00000  -0.00000  -0.00000  -0.00000  -0.00000
   4         R4         0.00000   0.00000   0.00000  -0.00000   0.00000
   5         R5         0.00000  -0.00000   0.00000   0.00000  -0.00000
   6         R6         0.00000  -0.00000   0.00000  -0.00000   0.00000
   7         R7         0.00000  -0.00000   0.00000  -0.00000   0.00000
   8         R8        -0.00000  -0.00000  -0.00000  -0.00000  -0.00000
   9         R9        -0.00000   0.00000   0.00000  -0.00000  -0.00000
  10         R10        0.00000  -0.00000   0.00000   0.00000   0.00000
  11         R11       -0.00000  -0.00000  -0.00000  -0.00000   0.00000
  12         R12        0.00000  -0.00000  -0.00000  -0.00000  -0.00000
  13         A1        -0.00000   0.00000   0.00000  -0.22017  -0.11924
  14         A2        -0.00000   0.00000  -0.00000   0.22018  -0.11923
  15         A3        -0.00000  -0.00000   0.00000  -0.00001   0.24467
  16         A4         0.00000  -0.00000  -0.00000   0.00001  -0.48989
  17         A5         0.00000  -0.00000   0.00000  -0.39522   0.22843
  18         A6         0.00000   0.00000  -0.00000   0.39521   0.22845
  19         A7        -0.00000  -0.00000   0.00000  -0.00000   0.00000
  20         A8         0.00000   0.00000  -0.00000  -0.00000  -0.00000
  21         A9        -0.00000  -0.00000   0.00000   0.00000   0.00000
  22         A10        0.00000   0.00000  -0.00000  -0.00000  -0.00000
  23         A11        0.00000   0.00000  -0.00000  -0.00000   0.00000
  24         A12       -0.00000  -0.00000   0.00000   0.00000  -0.00000
  25         A13        0.00000  -0.00000   0.00000  -0.00000  -0.00000
  26         A14       -0.00000  -0.00000  -0.00000  -0.00000   0.00000
  27         A15        0.00000  -0.00000  -0.00000   0.00000   0.00000
  28         A16       -0.00000   0.00000  -0.00000  -0.00000   0.00000
  29         A17        0.00000   0.00000  -0.00000  -0.00000  -0.00000
  30         A18       -0.00000   0.00000  -0.00000   0.00000  -0.00000
  31         D1        -0.00000   0.00000   0.00000  -0.22187   0.37661
  32         D2        -0.00000   0.00000   0.00000  -0.22187   0.37661
  33         D3        -0.00000   0.00000   0.00000  -0.22185  -0.37662
  34         D4        -0.00000   0.00000   0.00000  -0.22185  -0.37662
  35         D5        -0.00000   0.00000   0.00000   0.44372   0.00001
  36         D6        -0.00000   0.00000   0.00000   0.44372   0.00001
  37         D7        -0.50000  -0.00000   0.00000  -0.00000  -0.00000
  38         D8        -0.50000  -0.00000   0.00000   0.00000  -0.00000
  39         D9        -0.50000  -0.00000   0.00000  -0.00000   0.00000
  40         D10       -0.50000  -0.00000   0.00000   0.00000   0.00000
  41         D11       -0.00000   0.00000   0.00000   0.00000  -0.00000
  42         D12       -0.00000   0.00000   0.00000   0.00000  -0.00000
  43         D13       -0.00000   0.00000  -0.00000  -0.00000  -0.00000
  44         D14       -0.00000   0.00000  -0.00000  -0.00000  -0.00000
  45         D15        0.00000  -0.68954  -0.15666   0.00000   0.00000
  46         D16       -0.00000   0.15666  -0.68954  -0.00000  -0.00000
  47         D17        0.00000  -0.68954  -0.15666   0.00000   0.00000
  48         D18       -0.00000   0.15666  -0.68954  -0.00000  -0.00000
                          11        12        13        14        15
     Eigenvalues --     0.16000   0.16000   0.16000   0.16000   0.16000
   1         R1        -0.00000  -0.00000  -0.00000  -0.00000  -0.00000
   2         R2         0.00000   0.00000   0.00000  -0.00000  -0.00000
   3         R3         0.00000   0.00000  -0.00000  -0.00000  -0.00000
   4         R4        -0.00000  -0.00000   0.00000   0.00000   0.00000
   5         R5        -0.00000   0.00000   0.00000  -0.00000   0.00000
   6         R6        -0.00000   0.00000   0.00000  -0.00000   0.00000
   7         R7        -0.00000   0.00000   0.00000   0.00000   0.00000
   8         R8        -0.00000   0.00000   0.00000  -0.00000  -0.00000
   9         R9        -0.00000   0.00000  -0.00000   0.00000  -0.00000
  10         R10       -0.00000   0.00000  -0.00000  -0.00000   0.00000
  11         R11        0.00000  -0.00000   0.00000   0.00000  -0.00000
  12         R12        0.00000   0.00000   0.00000  -0.00000   0.00000
  13         A1        -0.00052  -0.00249   0.63647  -0.11152  -0.15991
  14         A2        -0.00125  -0.00260   0.29715  -0.12512  -0.14249
  15         A3         0.00078  -0.00411  -0.03508   0.00618   0.51476
  16         A4         0.00089   0.00256  -0.46978   0.11907   0.15216
  17         A5        -0.00013   0.00359  -0.33580   0.05882  -0.18657
  18         A6         0.00028   0.00365  -0.14676   0.06640  -0.19628
  19         A7         0.00000  -0.00000  -0.00000   0.00000  -0.00000
  20         A8        -0.00186  -0.70706  -0.00140   0.00486  -0.00040
  21         A9         0.00186   0.70706   0.00140  -0.00486   0.00040
  22         A10       -0.00000   0.00000  -0.00000  -0.00000   0.00000
  23         A11        0.70710  -0.00186   0.00064   0.00032  -0.00099
  24         A12       -0.70710   0.00186  -0.00064  -0.00032   0.00099
  25         A13       -0.00000  -0.00000  -0.00000  -0.00000  -0.00000
  26         A14        0.00075  -0.00261  -0.05471  -0.59228   0.29835
  27         A15       -0.00075   0.00261   0.05471   0.59228  -0.29835
  28         A16        0.00004   0.00295   0.16015   0.39805   0.50893
  29         A17       -0.00069  -0.00621  -0.31021  -0.27157  -0.36874
  30         A18        0.00065   0.00326   0.15007  -0.12648  -0.14019
  31         D1        -0.00000  -0.00000  -0.00000   0.00000  -0.00000
  32         D2         0.00000   0.00000   0.00000  -0.00000   0.00000
  33         D3        -0.00000  -0.00000  -0.00000   0.00000  -0.00000
  34         D4         0.00000   0.00000   0.00000  -0.00000   0.00000
  35         D5        -0.00000  -0.00000  -0.00000   0.00000  -0.00000
  36         D6         0.00000   0.00000   0.00000  -0.00000   0.00000
  37         D7        -0.00000  -0.00000  -0.00000   0.00000   0.00000
  38         D8         0.00000  -0.00000  -0.00000   0.00000  -0.00000
  39         D9        -0.00000   0.00000   0.00000  -0.00000   0.00000
  40         D10        0.00000   0.00000   0.00000  -0.00000  -0.00000
  41         D11       -0.00000   0.00000  -0.00000  -0.00000   0.00000
  42         D12       -0.00000   0.00000   0.00000   0.00000  -0.00000
  43         D13        0.00000  -0.00000  -0.00000  -0.00000   0.00000
  44         D14        0.00000  -0.00000   0.00000   0.00000  -0.00000
  45         D15        0.00000  -0.00000  -0.00000  -0.00000   0.00000
  46         D16        0.00000  -0.00000  -0.00000  -0.00000   0.00000
  47         D17       -0.00000   0.00000   0.00000   0.00000  -0.00000
  48         D18       -0.00000   0.00000   0.00000   0.00000  -0.00000
                          16        17        18        19        20
     Eigenvalues --     0.16000   0.16000   0.16000   0.22000   0.22000
   1         R1         0.00000  -0.00000  -0.00000  -0.00000   0.00000
   2         R2        -0.00000  -0.00000  -0.00000   0.00000  -0.00000
   3         R3         0.00000  -0.00000   0.00000   0.00000   0.00000
   4         R4         0.00000   0.00000   0.00000   0.00000  -0.00000
   5         R5         0.00000  -0.00000   0.00000  -0.00000   0.00000
   6         R6        -0.00000   0.00000  -0.00000   0.00000  -0.00000
   7         R7        -0.00000   0.00000   0.00000  -0.00000   0.00000
   8         R8        -0.00000  -0.00000   0.00000   0.00000   0.00000
   9         R9        -0.00000   0.00000   0.00000  -0.00000   0.00000
  10         R10       -0.00000  -0.00000   0.00000   0.00000   0.00000
  11         R11        0.00000   0.00000  -0.00000  -0.00000  -0.00000
  12         R12       -0.00000   0.00000  -0.00000   0.00000  -0.00000
  13         A1         0.38833   0.28476   0.00850  -0.00000   0.00000
  14         A2        -0.39840  -0.56715   0.26535  -0.00000   0.00000
  15         A3        -0.34335   0.43774   0.31929  -0.00000   0.00000
  16         A4         0.00507   0.14210  -0.13780   0.00000  -0.00000
  17         A5        -0.03247  -0.39306  -0.17572   0.00000  -0.00000
  18         A6         0.40582   0.08155  -0.31881   0.00000  -0.00000
  19         A7         0.00000  -0.00000  -0.00000  -0.00668   0.81647
  20         A8         0.00029  -0.00158  -0.00622   0.00334  -0.40823
  21         A9        -0.00029   0.00158   0.00622   0.00334  -0.40823
  22         A10       -0.00000   0.00000   0.00000  -0.00357  -0.00239
  23         A11        0.00003  -0.00066   0.00085   0.00179   0.00119
  24         A12       -0.00003   0.00066  -0.00085   0.00179   0.00119
  25         A13        0.00000   0.00000   0.00000  -0.81646  -0.00667
  26         A14        0.14559  -0.13675  -0.13153   0.40823   0.00333
  27         A15       -0.14559   0.13675   0.13153   0.40823   0.00333
  28         A16        0.31778  -0.34992   0.01088  -0.00000  -0.00000
  29         A17        0.16742   0.13482   0.56078   0.00000   0.00000
  30         A18       -0.48520   0.21510  -0.57166  -0.00000  -0.00000
  31         D1         0.00000  -0.00000  -0.00000   0.00000  -0.00000
  32         D2        -0.00000   0.00000   0.00000  -0.00000   0.00000
  33         D3         0.00000  -0.00000  -0.00000   0.00000  -0.00000
  34         D4        -0.00000   0.00000   0.00000  -0.00000   0.00000
  35         D5         0.00000  -0.00000  -0.00000   0.00000  -0.00000
  36         D6        -0.00000   0.00000   0.00000  -0.00000   0.00000
  37         D7         0.00000  -0.00000  -0.00000  -0.00000   0.00000
  38         D8         0.00000  -0.00000  -0.00000   0.00000   0.00000
  39         D9        -0.00000   0.00000   0.00000  -0.00000  -0.00000
  40         D10       -0.00000   0.00000   0.00000   0.00000  -0.00000
  41         D11        0.00000  -0.00000  -0.00000   0.00000   0.00000
  42         D12       -0.00000   0.00000   0.00000  -0.00000   0.00000
  43         D13        0.00000  -0.00000  -0.00000   0.00000  -0.00000
  44         D14       -0.00000   0.00000   0.00000  -0.00000  -0.00000
  45         D15        0.00000  -0.00000  -0.00000  -0.00000  -0.00000
  46         D16        0.00000  -0.00000  -0.00000  -0.00000  -0.00000
  47         D17       -0.00000   0.00000   0.00000   0.00000   0.00000
  48         D18       -0.00000   0.00000   0.00000   0.00000   0.00000
                          21        22        23        24        25
     Eigenvalues --     0.22000   0.32406   0.34607   0.34607   0.35136
   1         R1         0.00000   1.00000   0.00000  -0.00000   0.00000
   2         R2         0.00000  -0.00000   0.00000  -1.00000  -0.00000
   3         R3        -0.00000  -0.00000   1.00000   0.00000  -0.00000
   4         R4         0.00000   0.00000  -0.00000   0.00000  -1.00000
   5         R5         0.00000   0.00000   0.00000   0.00000  -0.00000
   6         R6         0.00000   0.00000   0.00000   0.00000  -0.00000
   7         R7        -0.00000   0.00000   0.00000  -0.00000   0.00000
   8         R8        -0.00000  -0.00000  -0.00000  -0.00000  -0.00000
   9         R9         0.00000  -0.00000   0.00000  -0.00000  -0.00000
  10         R10       -0.00000  -0.00000   0.00000  -0.00000  -0.00000
  11         R11        0.00000  -0.00000   0.00000   0.00000  -0.00000
  12         R12        0.00000   0.00000   0.00000   0.00000  -0.00000
  13         A1        -0.00000   0.00000   0.00000  -0.00000   0.00000
  14         A2         0.00000  -0.00000  -0.00000   0.00000  -0.00000
  15         A3        -0.00000   0.00000  -0.00000  -0.00000   0.00000
  16         A4         0.00000   0.00000  -0.00000  -0.00000  -0.00000
  17         A5         0.00000  -0.00000  -0.00000   0.00000  -0.00000
  18         A6         0.00000  -0.00000   0.00000  -0.00000  -0.00000
  19         A7         0.00236  -0.00000  -0.00000   0.00000  -0.00000
  20         A8        -0.00118  -0.00000   0.00000  -0.00000   0.00000
  21         A9        -0.00118   0.00000  -0.00000   0.00000   0.00000
  22         A10        0.81649  -0.00000   0.00000   0.00000   0.00000
  23         A11       -0.40824   0.00000  -0.00000   0.00000   0.00000
  24         A12       -0.40824  -0.00000   0.00000  -0.00000   0.00000
  25         A13       -0.00359  -0.00000   0.00000  -0.00000  -0.00000
  26         A14        0.00180  -0.00000  -0.00000   0.00000   0.00000
  27         A15        0.00180   0.00000  -0.00000   0.00000   0.00000
  28         A16        0.00000   0.00000   0.00000  -0.00000   0.00000
  29         A17       -0.00000  -0.00000  -0.00000  -0.00000  -0.00000
  30         A18        0.00000   0.00000   0.00000   0.00000  -0.00000
  31         D1        -0.00000  -0.00000   0.00000  -0.00000   0.00000
  32         D2         0.00000  -0.00000  -0.00000  -0.00000   0.00000
  33         D3        -0.00000   0.00000  -0.00000   0.00000   0.00000
  34         D4         0.00000   0.00000  -0.00000   0.00000  -0.00000
  35         D5        -0.00000  -0.00000  -0.00000  -0.00000  -0.00000
  36         D6         0.00000  -0.00000  -0.00000  -0.00000  -0.00000
  37         D7         0.00000  -0.00000  -0.00000   0.00000  -0.00000
  38         D8        -0.00000   0.00000  -0.00000  -0.00000   0.00000
  39         D9         0.00000  -0.00000  -0.00000  -0.00000   0.00000
  40         D10       -0.00000  -0.00000  -0.00000   0.00000  -0.00000
  41         D11       -0.00000   0.00000   0.00000   0.00000  -0.00000
  42         D12       -0.00000   0.00000  -0.00000   0.00000  -0.00000
  43         D13        0.00000  -0.00000  -0.00000  -0.00000  -0.00000
  44         D14        0.00000  -0.00000  -0.00000   0.00000  -0.00000
  45         D15       -0.00000  -0.00000  -0.00000  -0.00000  -0.00000
  46         D16       -0.00000  -0.00000  -0.00000   0.00000   0.00000
  47         D17        0.00000  -0.00000  -0.00000  -0.00000  -0.00000
  48         D18        0.00000   0.00000  -0.00000   0.00000   0.00000
                          26        27        28        29        30
     Eigenvalues --     0.35436   0.35460   0.35664   0.35703   0.35934
   1         R1        -0.00000  -0.00000   0.00000  -0.00000  -0.00000
   2         R2         0.00000   0.00000  -0.00000  -0.00000  -0.00000
   3         R3        -0.00000  -0.00000   0.00000  -0.00000   0.00000
   4         R4         0.00000  -0.00000   0.00000  -0.00000   0.00000
   5         R5        -0.00000  -0.00000  -0.00000  -0.00000   0.00000
   6         R6         0.00000   1.00000  -0.00000   0.00000  -0.00000
   7         R7        -0.00000  -0.00000   0.00000   0.00000   0.00000
   8         R8        -1.00000   0.00000  -0.00000  -0.00000   0.00000
   9         R9        -0.00000  -0.00000  -0.00000   0.00000  -0.00000
  10         R10       -0.00000  -0.00000  -0.00000   1.00000   0.00000
  11         R11       -0.00000  -0.00000   0.00000   0.00000  -1.00000
  12         R12        0.00000  -0.00000  -1.00000  -0.00000  -0.00000
  13         A1        -0.00000  -0.00000   0.00000   0.00000   0.00000
  14         A2         0.00000   0.00000  -0.00000  -0.00000  -0.00000
  15         A3         0.00000  -0.00000   0.00000  -0.00000  -0.00000
  16         A4        -0.00000  -0.00000   0.00000  -0.00000   0.00000
  17         A5        -0.00000   0.00000  -0.00000   0.00000   0.00000
  18         A6        -0.00000   0.00000  -0.00000   0.00000   0.00000
  19         A7         0.00000   0.00000  -0.00000  -0.00000  -0.00000
  20         A8        -0.00000  -0.00000  -0.00000   0.00000   0.00000
  21         A9        -0.00000  -0.00000   0.00000  -0.00000  -0.00000
  22         A10       -0.00000  -0.00000   0.00000   0.00000   0.00000
[...]
   A14        2.05320  -0.00003   0.00006  -0.00018  -0.00011   2.05309
   A15        2.06930  -0.00005  -0.00036   0.00002  -0.00034   2.06896
   A16        2.12666  -0.00002   0.00006  -0.00018  -0.00012   2.12654
   A17        2.11937   0.00003   0.00001   0.00020   0.00021   2.11959
   A18        2.03715  -0.00001  -0.00007  -0.00002  -0.00009   2.03706
    D1        2.11462   0.00000   0.00007  -0.00003   0.00003   2.11465
    D2       -1.02698   0.00000   0.00007  -0.00003   0.00003  -1.02694
    D3       -2.11462  -0.00000  -0.00006   0.00003  -0.00003  -2.11466
    D4        1.02697  -0.00000  -0.00006   0.00003  -0.00003   1.02694
    D5       -0.00000  -0.00000   0.00000   0.00000   0.00000  -0.00000
    D6        3.14159  -0.00000   0.00000   0.00000   0.00000   3.14159
    D7        0.00000  -0.00000   0.00000  -0.00000  -0.00000  -0.00000
    D8       -3.14159  -0.00000  -0.00000  -0.00000  -0.00000   3.14159
    D9        3.14159   0.00000   0.00000   0.00000   0.00000   3.14159
   D10       -0.00000  -0.00000  -0.00000  -0.00000  -0.00000  -0.00000
   D11       -3.14159  -0.00000  -0.00000  -0.00000  -0.00000  -3.14159
   D12        0.00000  -0.00000  -0.00000  -0.00000  -0.00000   0.00000
   D13        0.00000  -0.00000  -0.00000  -0.00000  -0.00000   0.00000
   D14       -3.14159  -0.00000  -0.00000  -0.00000  -0.00000  -3.14159
   D15        3.14159   0.00000   0.00000  -0.00000   0.00000   3.14159
   D16       -0.00000   0.00000   0.00000   0.00000   0.00000   0.00000
   D17       -0.00000   0.00000   0.00000   0.00000   0.00000   0.00000
   D18        3.14159   0.00000   0.00000   0.00000   0.00000  -3.14159
         Item               Value     Threshold  Converged?
 Maximum Force            0.000119     0.000450     YES
 RMS     Force            0.000031     0.000300     YES
 Maximum Displacement     0.001426     0.001800     YES
 RMS     Displacement     0.000361     0.001200     YES
 Predicted change in Energy=-9.544457D-08
 Optimization completed.
    -- Stationary point found.
                           ----------------------------
                           !   Optimized Parameters   !
                           ! (Angstroms and Degrees)  !
 --------------------------                            --------------------------
 ! Name  Definition              Value          Derivative Info.                !
 --------------------------------------------------------------------------------
 ! R1    R(1,2)                  1.5043         -DE/DX =    0.0                 !
 ! R2    R(1,6)                  1.1078         -DE/DX =    0.0                 !
 ! R3    R(1,7)                  1.1078         -DE/DX =    0.0                 !
 ! R4    R(1,8)                  1.1022         -DE/DX =    0.0                 !
 ! R5    R(2,3)                  1.3584         -DE/DX =    0.0001              !
 ! R6    R(2,9)                  1.0993         -DE/DX =    0.0                 !
 ! R7    R(3,4)                  1.4571         -DE/DX =    0.0                 !
 ! R8    R(3,10)                 1.0998         -DE/DX =    0.0                 !
 ! R9    R(4,5)                  1.3534         -DE/DX =    0.0001              !
 ! R10   R(4,11)                 1.0984         -DE/DX =    0.0                 !
 ! R11   R(5,12)                 1.0948         -DE/DX =    0.0                 !
 ! R12   R(5,13)                 1.0972         -DE/DX =    0.0                 !
 ! A1    A(2,1,6)              110.8021         -DE/DX =    0.0                 !
 ! A2    A(2,1,7)              110.8021         -DE/DX =    0.0                 !
 ! A3    A(2,1,8)              113.1311         -DE/DX =    0.0                 !
 ! A4    A(6,1,7)              106.2513         -DE/DX =    0.0                 !
 ! A5    A(6,1,8)              107.7754         -DE/DX =    0.0                 !
 ! A6    A(7,1,8)              107.7754         -DE/DX =    0.0                 !
 ! A7    A(1,2,3)              127.6595         -DE/DX =    0.0                 !
 ! A8    A(1,2,9)              115.1027         -DE/DX =    0.0                 !
 ! A9    A(3,2,9)              117.2378         -DE/DX =    0.0                 !
 ! A10   A(2,3,4)              127.0439         -DE/DX =    0.0                 !
 ! A11   A(2,3,10)             117.7052         -DE/DX =    0.0                 !
 ! A12   A(4,3,10)             115.2509         -DE/DX =    0.0                 !
 ! A13   A(3,4,5)              123.7978         -DE/DX =    0.0001              !
 ! A14   A(3,4,11)             117.6399         -DE/DX =    0.0                 !
 ! A15   A(5,4,11)             118.5623         -DE/DX =    0.0                 !
 ! A16   A(4,5,12)             121.8485         -DE/DX =    0.0                 !
 ! A17   A(4,5,13)             121.4312         -DE/DX =    0.0                 !
 ! A18   A(12,5,13)            116.7203         -DE/DX =    0.0                 !
 ! D1    D(6,1,2,3)            121.1585         -DE/DX =    0.0                 !
 ! D2    D(6,1,2,9)            -58.8414         -DE/DX =    0.0                 !
 ! D3    D(7,1,2,3)           -121.159          -DE/DX =    0.0                 !
 ! D4    D(7,1,2,9)             58.841          -DE/DX =    0.0                 !
 ! D5    D(8,1,2,3)             -0.0002         -DE/DX =    0.0                 !
 ! D6    D(8,1,2,9)            179.9998         -DE/DX =    0.0                 !
 ! D7    D(1,2,3,4)              0.0            -DE/DX =    0.0                 !
 ! D8    D(1,2,3,10)           180.0            -DE/DX =    0.0                 !
 ! D9    D(9,2,3,4)            180.0            -DE/DX =    0.0                 !
 ! D10   D(9,2,3,10)             0.0            -DE/DX =    0.0                 !
 ! D11   D(2,3,4,5)           -179.9999         -DE/DX =    0.0                 !
 ! D12   D(2,3,4,11)             0.0001         -DE/DX =    0.0                 !
 ! D13   D(10,3,4,5)             0.0001         -DE/DX =    0.0                 !
 ! D14   D(10,3,4,11)         -179.9999         -DE/DX =    0.0                 !
 ! D15   D(3,4,5,12)           180.0            -DE/DX =    0.0                 !
 ! D16   D(3,4,5,13)             0.0            -DE/DX =    0.0                 !
 ! D17   D(11,4,5,12)            0.0            -DE/DX =    0.0                 !
 ! D18   D(11,4,5,13)         -180.0            -DE/DX =    0.0                 !
 --------------------------------------------------------------------------------
 Lowest energy point so far.  Saving SCF results.
 Largest change from initial coordinates is atom   13       0.043 Angstoms.
 GradGradGradGradGradGradGradGradGradGradGradGradGradGradGradGradGradGrad

 Leave Link  103 at Wed Oct  7 13:17:12 2020, MaxMem=  2684354560 cpu:               7.0 elap:               1.2
 (Enter /udrive/faculty/rpeverati/g16/g16/l202.exe)
                          Input orientation:                          
 ---------------------------------------------------------------------
 Center     Atomic      Atomic             Coordinates (Angstroms)
 Number     Number       Type             X           Y           Z
 ---------------------------------------------------------------------
      1          6           0       -2.076269   -0.613820    0.000002
      2          6           0       -1.242197    0.638024    0.000051
      3          6           0        0.112940    0.732427    0.000035
      4          6           0        1.069465   -0.366810   -0.000034
      5          6           0        2.412070   -0.196460   -0.000044
      6          1           0       -2.740285   -0.644173    0.886168
      7          1           0       -2.740318   -0.644082   -0.886143
      8          1           0       -1.472859   -1.536125   -0.000056
      9          1           0       -1.812045    1.578112    0.000106
     10          1           0        0.555369    1.739342    0.000078
     11          1           0        0.669916   -1.389948   -0.000080
     12          1           0        3.102204   -1.046289   -0.000096
     13          1           0        2.861820    0.804273    0.000001
 ---------------------------------------------------------------------
                    Distance matrix (angstroms):
                    1          2          3          4          5
     1  C    0.000000
     2  C    1.504258   0.000000
     3  C    2.570023   1.358421   0.000000
     4  C    3.155417   2.520609   1.457141   0.000000
     5  C    4.507702   3.748337   2.479683   1.353369   0.000000
     6  H    1.107758   2.161828   3.289552   3.921285   5.247150
     7  H    1.107758   2.161828   3.289555   3.921289   5.247155
     8  H    1.102157   2.186351   2.767868   2.798341   4.109426
     9  H    2.207800   1.099314   2.102558   3.476466   4.581730
    10  H    3.530282   2.108114   1.099828   2.167988   2.682288
    11  H    2.853753   2.787265   2.194242   1.098386   2.111756
    12  H    5.196500   4.659478   3.478438   2.143297   1.094758
    13  H    5.137676   4.107383   2.749819   2.141022   1.097152
                    6          7          8          9         10
     6  H    0.000000
     7  H    1.772310   0.000000
     8  H    1.785312   1.785312   0.000000
     9  H    2.566181   2.566179   3.132654   0.000000
    10  H    4.162648   4.162649   3.852584   2.372898   0.000000
    11  H    3.601539   3.601544   2.147756   3.869045   3.131386
    12  H    5.922992   5.922998   4.601211   5.571115   3.774402
    13  H    5.853791   5.853796   4.926146   4.737493   2.488790
                   11         12         13
    11  H    0.000000
    12  H    2.456446   0.000000
    13  H    3.101459   1.866109   0.000000
 Stoichiometry    C5H8
 Framework group  C1[X(C5H8)]
 Deg. of freedom    33
 Full point group                 C1      NOp   1
 RotChk:  IX=0 Diff= 7.05D-16
 Largest Abelian subgroup         C1      NOp   1
 Largest concise Abelian subgroup C1      NOp   1
                         Standard orientation:                         
 ---------------------------------------------------------------------
 Center     Atomic      Atomic             Coordinates (Angstroms)
 Number     Number       Type             X           Y           Z
 ---------------------------------------------------------------------
      1          6           0       -2.079757   -0.609669    0.000001
      2          6           0       -1.242851    0.640282    0.000050
      3          6           0        0.112497    0.731614    0.000034
      4          6           0        1.066528   -0.369787   -0.000035
      5          6           0        2.409516   -0.202480   -0.000045
      6          1           0       -2.743840   -0.638517    0.886167
      7          1           0       -2.743873   -0.638427   -0.886144
      8          1           0       -1.478439   -1.533339   -0.000057
      9          1           0       -1.810567    1.581658    0.000105
     10          1           0        0.557206    1.737525    0.000077
     11          1           0        0.664662   -1.392017   -0.000081
     12          1           0        3.097723   -1.053871   -0.000097
     13          1           0        2.861533    0.797231   -0.000000
 ---------------------------------------------------------------------
 Rotational constants (GHZ):          15.8209202           2.5937455           2.2599567
 Leave Link  202 at Wed Oct  7 13:17:13 2020, MaxMem=  2684354560 cpu:               2.1 elap:               0.6
 (Enter /udrive/faculty/rpeverati/g16/g16/l601.exe)
 Copying SCF densities to generalized density rwf, IOpCl= 0 IROHF=0.

 **********************************************************************

            Population analysis using the SCF density.

 **********************************************************************

 Orbital symmetries:
       Occupied  (A) (A) (A) (A) (A) (A) (A) (A) (A) (A) (A) (A)
                 (A) (A) (A) (A) (A) (A) (A)
       Virtual   (A) (A) (A) (A) (A) (A) (A) (A) (A) (A) (A) (A)
                 (A) (A) (A) (A) (A) (A) (A) (A) (A) (A) (A) (A)
                 (A) (A) (A) (A) (A) (A) (A) (A) (A) (A) (A) (A)
                 (A) (A) (A) (A) (A) (A) (A) (A) (A) (A) (A) (A)
                 (A) (A) (A) (A) (A) (A) (A) (A) (A) (A) (A) (A)
                 (A) (A) (A) (A) (A) (A) (A)
 The electronic state is 1-A.
 Alpha  occ. eigenvalues --   -9.91354  -9.91164  -9.90717  -9.90623  -9.90152
 Alpha  occ. eigenvalues --   -0.72898  -0.67940  -0.61376  -0.53033  -0.47368
 Alpha  occ. eigenvalues --   -0.42355  -0.39536  -0.36635  -0.35492  -0.33404
 Alpha  occ. eigenvalues --   -0.32253  -0.28961  -0.27410  -0.19183
 Alpha virt. eigenvalues --   -0.05106   0.04919   0.07534   0.08243   0.10622
 Alpha virt. eigenvalues --    0.13293   0.14130   0.14413   0.16203   0.19351
 Alpha virt. eigenvalues --    0.21855   0.29383   0.34099   0.39237   0.43695
 Alpha virt. eigenvalues --    0.47727   0.48162   0.53280   0.53847   0.57305
 Alpha virt. eigenvalues --    0.58606   0.58749   0.62906   0.63082   0.64461
 Alpha virt. eigenvalues --    0.67568   0.72077   0.79647   0.81113   0.81868
 Alpha virt. eigenvalues --    0.83500   0.84519   0.87327   0.89080   0.91893
 Alpha virt. eigenvalues --    0.93871   1.02685   1.06659   1.10228   1.22561
 Alpha virt. eigenvalues --    1.26379   1.28126   1.35354   1.43258   1.46960
 Alpha virt. eigenvalues --    1.48251   1.64794   1.68483   1.75697   1.79020
 Alpha virt. eigenvalues --    1.87486   1.90323   1.94683   1.96832   2.01366
 Alpha virt. eigenvalues --    2.08562   2.15647   2.20586   2.22982   2.32121
 Alpha virt. eigenvalues --    2.38550   2.40465   2.43693   2.56443   2.67725
 Alpha virt. eigenvalues --    2.86834   2.97169
          Condensed to atoms (all electrons):
               1          2          3          4          5          6
     1  C    5.157923   0.380899  -0.039336  -0.016504   0.000598   0.364937
     2  C    0.380899   4.901103   0.641612  -0.026779   0.004263  -0.029701
     3  C   -0.039336   0.641612   4.814348   0.458988  -0.020823   0.000188
     4  C   -0.016504  -0.026779   0.458988   4.771666   0.616274   0.000322
     5  C    0.000598   0.004263  -0.020823   0.616274   5.110062  -0.000001
     6  H    0.364937  -0.029701   0.000188   0.000322  -0.000001   0.555900
     7  H    0.364937  -0.029701   0.000188   0.000322  -0.000001  -0.034542
     8  H    0.366720  -0.028672  -0.008951   0.004236  -0.000092  -0.028318
     9  H   -0.061706   0.357004  -0.027282   0.005708  -0.000210  -0.001347
    10  H    0.006448  -0.043037   0.357599  -0.057788  -0.007410  -0.000143
    11  H    0.003285  -0.008866  -0.049215   0.359772  -0.051832  -0.000113
    12  H    0.000002  -0.000218   0.003674  -0.019719   0.360278  -0.000000
    13  H   -0.000000   0.000288  -0.010842  -0.036019   0.365898   0.000000
               7          8          9         10         11         12
     1  C    0.364937   0.366720  -0.061706   0.006448   0.003285   0.000002
     2  C   -0.029701  -0.028672   0.357004  -0.043037  -0.008866  -0.000218
     3  C    0.000188  -0.008951  -0.027282   0.357599  -0.049215   0.003674
     4  C    0.000322   0.004236   0.005708  -0.057788   0.359772  -0.019719
     5  C   -0.000001  -0.000092  -0.000210  -0.007410  -0.051832   0.360278
     6  H   -0.034542  -0.028318  -0.001347  -0.000143  -0.000113  -0.000000
     7  H    0.555900  -0.028318  -0.001348  -0.000143  -0.000113  -0.000000
     8  H   -0.028318   0.543785   0.004664  -0.000000   0.006951   0.000007
     9  H   -0.001348   0.004664   0.599404  -0.010421  -0.000027   0.000003
    10  H   -0.000143  -0.000000  -0.010421   0.615733   0.005622   0.000018
    11  H   -0.000113   0.006951  -0.000027   0.005622   0.605975  -0.007060
    12  H   -0.000000   0.000007   0.000003   0.000018  -0.007060   0.555012
    13  H    0.000000   0.000003  -0.000011   0.006565   0.005658  -0.042027
              13
     1  C   -0.000000
     2  C    0.000288
     3  C   -0.010842
     4  C   -0.036019
     5  C    0.365898
     6  H    0.000000
     7  H    0.000000
     8  H    0.000003
     9  H   -0.000011
    10  H    0.006565
    11  H    0.005658
    12  H   -0.042027
    13  H    0.562600
 Mulliken charges:
               1
     1  C   -0.528203
     2  C   -0.118195
     3  C   -0.120148
     4  C   -0.060479
     5  C   -0.377005
     6  H    0.172819
     7  H    0.172819
     8  H    0.167984
     9  H    0.135569
    10  H    0.126956
    11  H    0.129964
    12  H    0.150030
    13  H    0.147889
 Sum of Mulliken charges =  -0.00000
 Mulliken charges with hydrogens summed into heavy atoms:
               1
     1  C   -0.014581
     2  C    0.017374
     3  C    0.006809
     4  C    0.069485
     5  C   -0.079086
 Electronic spatial extent (au):  <R**2>=            564.7559
 Charge=             -0.0000 electrons
 Dipole moment (field-independent basis, Debye):
    X=             -0.5572    Y=             -0.1431    Z=              0.0000  Tot=              0.5753
 Quadrupole moment (field-independent basis, Debye-Ang):
   XX=            -28.6951   YY=            -29.3616   ZZ=            -34.2825
   XY=              0.0915   XZ=             -0.0001   YZ=              0.0002
 Traceless Quadrupole moment (field-independent basis, Debye-Ang):
   XX=              2.0847   YY=              1.4181   ZZ=             -3.5028
   XY=              0.0915   XZ=             -0.0001   YZ=              0.0002
 Octapole moment (field-independent basis, Debye-Ang**2):
  XXX=             -0.6853  YYY=              0.8606  ZZZ=              0.0001  XYY=              1.7008
  XXY=              0.2321  XXZ=             -0.0001  XZZ=             -3.6533  YZZ=             -0.7478
  YYZ=              0.0001  XYZ=              0.0003
 Hexadecapole moment (field-independent basis, Debye-Ang**3):
 XXXX=           -574.4563 YYYY=           -125.8156 ZZZZ=            -42.1835 XXXY=             -3.9502
 XXXZ=              0.0034 YYYX=             -2.8389 YYYZ=             -0.0015 ZZZX=              0.0045
 ZZZY=             -0.0026 XXYY=           -115.3937 XXZZ=           -111.2610 YYZZ=            -31.1470
 XXYZ=             -0.0001 YYXZ=              0.0009 ZZXY=              2.0090
 N-N= 1.543843098217D+02 E-N=-7.604902794584D+02  KE= 1.937356565665D+02
 No NMR shielding tensors so no spin-rotation constants.
 Leave Link  601 at Wed Oct  7 13:17:14 2020, MaxMem=  2684354560 cpu:               4.8 elap:               0.9
 (Enter /udrive/faculty/rpeverati/g16/g16/l9999.exe)

 Test job not archived.
 1\1\GINC-NODE40\FOpt\RBP86\6-31G(d)\C5H8\RPEVERATI\07-Oct-2020\0\\#P O
 pt(MaxCyc=100) BP86/6-31G* 5D 7F Integral=UltraFineGrid SCF=(NoSymm,XQ
 C,MaxCyc=120) IOp(1/33=1)\\TS search on BH76.\\0,1\C,-2.076269097,-0.6
 138201802,0.0000017412\C,-1.242196884,0.6380241874,0.0000505662\C,0.11
 29402965,0.7324269916,0.0000347059\C,1.0694645384,-0.3668096968,-0.000
 0337223\C,2.4120699071,-0.1964601249,-0.000043597\H,-2.7402851257,-0.6
 441730098,0.8861676087\H,-2.7403176866,-0.644082182,-0.8861427594\H,-1
 .4728594325,-1.5361254408,-0.0000564273\H,-1.8120448034,1.5781117684,0
 .000105576\H,0.5553690324,1.7393424847,0.0000776143\H,0.669915874,-1.3
 899479961,-0.0000797614\H,3.1022040595,-1.046289174,-0.0000957467\H,2.
 8618203853,0.8042727655,0.0000005364\\Version=ES64L-G16RevA.03\State=1
 -A\HF=-195.2925787\RMSD=8.820e-09\RMSF=4.453e-05\Dipole=-0.2191082,-0.
 0568034,0.0000008\Quadrupole=1.5495778,1.0546665,-2.6042444,0.0691379,
 -0.0000576,0.0001811\PG=C01 [X(C5H8)]\\@


 WORK FAITHFULLY FOR EIGHT HOURS A DAY AND DON'T WORRY.
 IN TIME YOU MAY BECOME BOSS AND WORK TWELVE HOURS A DAY
 AND HAVE ALL THE WORRY.
 Job cpu time:       0 days  0 hours 13 minutes 41.4 seconds.
 Elapsed time:       0 days  0 hours  1 minutes 33.0 seconds.
 File lengths (MBytes):  RWF=      9 Int=      0 D2E=      0 Chk=      2 Scr=      1
 Normal termination of Gaussian 16 at Wed Oct  7 13:17:16 2020.
