 Entering Gaussian System, Link 0=g16
 Input=MN_36_fch3clcomp2_BH76_BP86_631Gs.in
 Output=MN_36_fch3clcomp2_BH76_BP86_631Gs.log
 Initial command:
 /udrive/faculty/rpeverati/g16/g16/l1.exe "/udrive/scratch-directories/gaussian09/rpeverati/Gau-8387.inp" -scrdir="/udrive/scratch-directories/gaussian09/rpeverati/"
 Entering Link 1 = /udrive/faculty/rpeverati/g16/g16/l1.exe PID=      8401.
  
 Copyright (c) 1988,1990,1992,1993,1995,1998,2003,2009,2016,
            Gaussian, Inc.  All Rights Reserved.
  
 This is part of the Gaussian(R) 16 program.  It is based on
 the Gaussian(R) 09 system (copyright 2009, Gaussian, Inc.),
 the Gaussian(R) 03 system (copyright 2003, Gaussian, Inc.),
 the Gaussian(R) 98 system (copyright 1998, Gaussian, Inc.),
 the Gaussian(R) 94 system (copyright 1995, Gaussian, Inc.),
 the Gaussian 92(TM) system (copyright 1992, Gaussian, Inc.),
 the Gaussian 90(TM) system (copyright 1990, Gaussian, Inc.),
 the Gaussian 88(TM) system (copyright 1988, Gaussian, Inc.),
 the Gaussian 86(TM) system (copyright 1986, Carnegie Mellon
 University), and the Gaussian 82(TM) system (copyright 1983,
 Carnegie Mellon University). Gaussian is a federally registered
 trademark of Gaussian, Inc.
  
 This software contains proprietary and confidential information,
 including trade secrets, belonging to Gaussian, Inc.
  
 This software is provided under written license and may be
 used, copied, transmitted, or stored only in accord with that
 written license.
  
 The following legend is applicable only to US Government
 contracts under FAR:
  
                    RESTRICTED RIGHTS LEGEND
  
 Use, reproduction and disclosure by the US Government is
 subject to restrictions as set forth in subparagraphs (a)
 and (c) of the Commercial Computer Software - Restricted
 Rights clause in FAR 52.227-19.
  
 Gaussian, Inc.
 340 Quinnipiac St., Bldg. 40, Wallingford CT 06492
  
  
 ---------------------------------------------------------------
 Warning -- This program may not be used in any manner that
 competes with the business of Gaussian, Inc. or will provide
 assistance to any competitor of Gaussian, Inc.  The licensee
 of this program is prohibited from giving any competitor of
 Gaussian, Inc. access to this program.  By using this program,
 the user acknowledges that Gaussian, Inc. is engaged in the
 business of creating and licensing software in the field of
 computational chemistry and represents and warrants to the
 licensee that it is not a competitor of Gaussian, Inc. and that
 it will not use this program in any manner prohibited above.
 ---------------------------------------------------------------
  

 Cite this work as:
 Gaussian 16, Revision A.03,
 M. J. Frisch, G. W. Trucks, H. B. Schlegel, G. E. Scuseria, 
 M. A. Robb, J. R. Cheeseman, G. Scalmani, V. Barone, 
 G. A. Petersson, H. Nakatsuji, X. Li, M. Caricato, A. V. Marenich, 
 J. Bloino, B. G. Janesko, R. Gomperts, B. Mennucci, H. P. Hratchian, 
 J. V. Ortiz, A. F. Izmaylov, J. L. Sonnenberg, D. Williams-Young, 
 F. Ding, F. Lipparini, F. Egidi, J. Goings, B. Peng, A. Petrone, 
 T. Henderson, D. Ranasinghe, V. G. Zakrzewski, J. Gao, N. Rega, 
 G. Zheng, W. Liang, M. Hada, M. Ehara, K. Toyota, R. Fukuda, 
 J. Hasegawa, M. Ishida, T. Nakajima, Y. Honda, O. Kitao, H. Nakai, 
 T. Vreven, K. Throssell, J. A. Montgomery, Jr., J. E. Peralta, 
 F. Ogliaro, M. J. Bearpark, J. J. Heyd, E. N. Brothers, K. N. Kudin, 
 V. N. Staroverov, T. A. Keith, R. Kobayashi, J. Normand, 
 K. Raghavachari, A. P. Rendell, J. C. Burant, S. S. Iyengar, 
 J. Tomasi, M. Cossi, J. M. Millam, M. Klene, C. Adamo, R. Cammi, 
 J. W. Ochterski, R. L. Martin, K. Morokuma, O. Farkas, 
 J. B. Foresman, and D. J. Fox, Gaussian, Inc., Wallingford CT, 2016.
 
 ******************************************
 Gaussian 16:  ES64L-G16RevA.03 25-Dec-2016
                 7-Oct-2020 
 ******************************************
 %NoSave
 %nproc=12
 Will use up to   12 processors via shared memory.
 %mem=20GB
 %chk=MN_36_fch3clcomp2_BH76_BP86_631Gs
 ----------------------------------------------------------------------
 #P Opt(MaxCyc=100) BP86/6-31G* 5D 7F Integral=UltraFineGrid SCF=(NoSym
 m,XQC,MaxCyc=120) IOp(1/33=1)
 ----------------------------------------------------------------------
 1/6=100,18=20,19=15,26=4,33=1,38=1/1,3;
 2/9=110,12=2,17=6,18=5,40=1/2;
 3/5=1,6=6,7=1,8=11,11=2,25=1,30=1,71=1,74=404,75=-5/1,2,3;
 4/9=2/1;
 5/5=2,7=120,8=3,13=1,38=5/2,8;
 6/7=2,8=2,9=2,10=2,28=1/1;
 7//1,2,3,16;
 1/6=100,18=20,19=15,26=4,33=1/3(2);
 2/9=110/2;
 99//99;
 2/9=110/2;
 3/5=1,6=6,7=1,8=11,11=2,25=1,30=1,71=1,74=404,75=-5/1,2,3;
 4/5=5,9=2,16=3,69=1/1;
 5/5=2,7=120,8=3,13=1,38=5/2,8;
 7//1,2,3,16;
 1/6=100,18=20,19=15,26=4,33=1/3(-5);
 2/9=110/2;
 6/7=2,8=2,9=2,10=2,19=2,28=1/1;
 99/9=1/99;
 Leave Link    1 at Wed Oct  7 13:16:33 2020, MaxMem=  2684354560 cpu:               5.3 elap:               0.5
 (Enter /udrive/faculty/rpeverati/g16/g16/l101.exe)
 ONIOM data not found on unit 2.
 ------------------
 TS search on BH76.
 ------------------
 TstMul:  ICh=    -1
 TstMul:  Mul=     1
 TstMul:  ICh=    -1
 TstMul:  Mul=     1
 Symbolic Z-matrix:
 Charge = -1 Multiplicity = 1
 F                     0.        0.       -1.88994 
 C                     0.        0.       -0.48156 
 H                    -0.51236   0.88743  -0.1278 
 H                    -0.51236  -0.88743  -0.1278 
 H                     1.02472   0.       -0.1278 
 Cl                    0.        0.        2.75491 
 
 RdStrC is calling ZToCFu for IStruc=1 NZ=     6.
 PrtBox:  NBox=     2 Levels=  1 BoxLen=    8.00 SMaxX=        8.78
          Shift=            0.968220            1.677006            3.571462
 Box      1 Number                   0 centers from      1 to      5:
 Box      2 Number                   1 centers from      6 to      6:
 After GenITR:
 ITRead=  0  0  0  0  0  0
 MicOpt= -1 -1 -1 -1 -1 -1
 Add virtual bond connecting atoms Cl6        and H3         Dist= 5.78D+00.
 Add virtual bond connecting atoms Cl6        and H4         Dist= 5.78D+00.
 Add virtual bond connecting atoms Cl6        and H5         Dist= 5.78D+00.
 ITRead=  0  0  0  0  0  0
 MicOpt= -1 -1 -1 -1 -1 -1
 NAtoms=      6 NQM=        6 NQMF=       0 NMMI=      0 NMMIF=      0
                NMic=       0 NMicF=      0.
                    Isotopes and Nuclear Properties:
 (Nuclear quadrupole moments (NQMom) in fm**2, nuclear magnetic moments (NMagM)
  in nuclear magnetons)

  Atom         1           2           3           4           5           6
 IAtWgt=          19          12           1           1           1          35
 AtmWgt=  18.9984033  12.0000000   1.0078250   1.0078250   1.0078250  34.9688527
 NucSpn=           1           0           1           1           1           3
 AtZEff=   0.0000000   0.0000000   0.0000000   0.0000000   0.0000000   0.0000000
 NQMom=    0.0000000   0.0000000   0.0000000   0.0000000   0.0000000  -8.1650000
 NMagM=    2.6288670   0.0000000   2.7928460   2.7928460   2.7928460   0.8218740
 AtZNuc=   9.0000000   6.0000000   1.0000000   1.0000000   1.0000000  17.0000000
 No MM parameters found.
 Leave Link  101 at Wed Oct  7 13:16:34 2020, MaxMem=  2684354560 cpu:               4.3 elap:               0.5
 (Enter /udrive/faculty/rpeverati/g16/g16/l103.exe)

 GradGradGradGradGradGradGradGradGradGradGradGradGradGradGradGradGradGrad
 Berny optimization.
 Optmz: redundant internal coordinate code flag= 1
 Initialization pass.
                           ----------------------------
                           !    Initial Parameters    !
                           ! (Angstroms and Degrees)  !
 --------------------------                            --------------------------
 ! Name  Definition              Value          Derivative Info.                !
 --------------------------------------------------------------------------------
 ! R1    R(1,2)                  1.4084         estimate D2E/DX2                !
 ! R2    R(2,3)                  1.0841         estimate D2E/DX2                !
 ! R3    R(2,4)                  1.0841         estimate D2E/DX2                !
 ! R4    R(2,5)                  1.0841         estimate D2E/DX2                !
 ! R5    R(3,6)                  3.0594         estimate D2E/DX2                !
 ! R6    R(4,6)                  3.0594         estimate D2E/DX2                !
 ! R7    R(5,6)                  3.0594         estimate D2E/DX2                !
 ! A1    A(1,2,3)              109.046          estimate D2E/DX2                !
 ! A2    A(1,2,4)              109.046          estimate D2E/DX2                !
 ! A3    A(1,2,5)              109.046          estimate D2E/DX2                !
 ! A4    A(3,2,4)              109.8931         estimate D2E/DX2                !
 ! A5    A(3,2,5)              109.8931         estimate D2E/DX2                !
 ! A6    A(4,2,5)              109.8931         estimate D2E/DX2                !
 ! A7    A(2,3,6)               89.4772         estimate D2E/DX2                !
 ! A8    A(2,4,6)               89.4772         estimate D2E/DX2                !
 ! A9    A(2,5,6)               89.4772         estimate D2E/DX2                !
 ! A10   A(3,6,4)               33.7238         estimate D2E/DX2                !
 ! A11   A(3,6,5)               33.7238         estimate D2E/DX2                !
 ! A12   A(4,6,5)               33.7238         estimate D2E/DX2                !
 ! D1    D(1,2,3,6)            180.0            estimate D2E/DX2                !
 ! D2    D(4,2,3,6)             60.5242         estimate D2E/DX2                !
 ! D3    D(5,2,3,6)            -60.5242         estimate D2E/DX2                !
 ! D4    D(1,2,4,6)            180.0            estimate D2E/DX2                !
 ! D5    D(3,2,4,6)            -60.5242         estimate D2E/DX2                !
 ! D6    D(5,2,4,6)             60.5242         estimate D2E/DX2                !
 ! D7    D(1,2,5,6)            180.0            estimate D2E/DX2                !
 ! D8    D(3,2,5,6)             60.5242         estimate D2E/DX2                !
 ! D9    D(4,2,5,6)            -60.5242         estimate D2E/DX2                !
 ! D10   D(2,3,6,4)            -31.4976         estimate D2E/DX2                !
 ! D11   D(2,3,6,5)             31.4976         estimate D2E/DX2                !
 ! D12   D(2,4,6,3)             31.4976         estimate D2E/DX2                !
 ! D13   D(2,4,6,5)            -31.4976         estimate D2E/DX2                !
 ! D14   D(2,5,6,3)            -31.4976         estimate D2E/DX2                !
 ! D15   D(2,5,6,4)             31.4976         estimate D2E/DX2                !
 --------------------------------------------------------------------------------
 Maximum allowed force set to 1.00D+20.
 Trust Radius=3.00D-01 FncErr=1.00D-07 GrdErr=1.00D-06 EigMax=2.50D+02 EigMin=1.00D-04
 Number of steps in this run=    100 maximum allowed number of steps=    100.
 GradGradGradGradGradGradGradGradGradGradGradGradGradGradGradGradGradGrad

 Leave Link  103 at Wed Oct  7 13:16:35 2020, MaxMem=  2684354560 cpu:               0.8 elap:               0.4
 (Enter /udrive/faculty/rpeverati/g16/g16/l202.exe)
                          Input orientation:                          
 ---------------------------------------------------------------------
 Center     Atomic      Atomic             Coordinates (Angstroms)
 Number     Number       Type             X           Y           Z
 ---------------------------------------------------------------------
      1          9           0        0.000000    0.000000   -1.889936
      2          6           0        0.000000    0.000000   -0.481563
      3          1           0       -0.512360    0.887433   -0.127802
      4          1           0       -0.512360   -0.887433   -0.127802
      5          1           0        1.024720    0.000000   -0.127802
      6         17           0        0.000000    0.000000    2.754906
 ---------------------------------------------------------------------
                    Distance matrix (angstroms):
                    1          2          3          4          5
     1  F    0.000000
     2  C    1.408373   0.000000
     3  H    2.038422   1.084065   0.000000
     4  H    2.038422   1.084065   1.774867   0.000000
     5  H    2.038422   1.084065   1.774867   1.774867   0.000000
     6  Cl   4.644842   3.236469   3.059422   3.059422   3.059422
                    6
     6  Cl   0.000000
 Stoichiometry    CH3ClF(1-)
 Framework group  C3V[C3(FCCl),3SGV(H)]
 Deg. of freedom     4
 Full point group                 C3V     NOp   6
 Largest Abelian subgroup         CS      NOp   2
 Largest concise Abelian subgroup CS      NOp   2
                         Standard orientation:                         
 ---------------------------------------------------------------------
 Center     Atomic      Atomic             Coordinates (Angstroms)
 Number     Number       Type             X           Y           Z
 ---------------------------------------------------------------------
      1          9           0        0.000000    0.000000   -2.648542
      2          6           0        0.000000    0.000000   -1.240168
      3          1           0       -0.000000    1.024720   -0.886408
      4          1           0       -0.887433   -0.512360   -0.886408
      5          1           0        0.887433   -0.512360   -0.886408
      6         17           0        0.000000    0.000000    1.996301
 ---------------------------------------------------------------------
 Rotational constants (GHZ):         159.1843784           1.7131884           1.7131884
 Leave Link  202 at Wed Oct  7 13:16:35 2020, MaxMem=  2684354560 cpu:               1.2 elap:               0.5
 (Enter /udrive/faculty/rpeverati/g16/g16/l301.exe)
 Standard basis: 6-31G(d) (5D, 7F)
 Ernie: Thresh=  0.10000D-02 Tol=  0.10000D-05 Strict=F.
 There are    40 symmetry adapted cartesian basis functions of A'  symmetry.
 There are    15 symmetry adapted cartesian basis functions of A"  symmetry.
 There are    37 symmetry adapted basis functions of A'  symmetry.
 There are    15 symmetry adapted basis functions of A"  symmetry.
    52 basis functions,   120 primitive gaussians,    55 cartesian basis functions
    18 alpha electrons       18 beta electrons
       nuclear repulsion energy        79.9097195431 Hartrees.
 IExCor=  404 DFT=T Ex=B Corr=P86 ExCW=0 ScaHFX=  0.000000
 ScaDFX=  1.000000  1.000000  1.000000  1.000000 ScalE2=  1.000000  1.000000
 IRadAn=      5 IRanWt=     -1 IRanGd=            0 ICorTp=0 IEmpDi=  4
 NAtoms=    6 NActive=    6 NUniq=    4 SFac= 2.25D+00 NAtFMM=   60 NAOKFM=F Big=F
 Integral buffers will be    131072 words long.
 Raffenetti 2 integral format.
 Two-electron integral symmetry is turned on.
 Leave Link  301 at Wed Oct  7 13:16:36 2020, MaxMem=  2684354560 cpu:               1.8 elap:               0.4
 (Enter /udrive/faculty/rpeverati/g16/g16/l302.exe)
 NPDir=0 NMtPBC=     1 NCelOv=     1 NCel=       1 NClECP=     1 NCelD=      1
         NCelK=      1 NCelE2=     1 NClLst=     1 CellRange=     0.0.
 One-electron integrals computed using PRISM.
 One-electron integral symmetry used in STVInt
 NBasis=    52 RedAO= T EigKep=  1.85D-02  NBF=    37    15
 NBsUse=    52 1.00D-06 EigRej= -1.00D+00 NBFU=    37    15
 Precomputing XC quadrature grid using
 IXCGrd= 4 IRadAn=           5 IRanWt=          -1 IRanGd=           0 AccXCQ= 0.00D+00.
 Generated NRdTot=       0 NPtTot=           0 NUsed=           0 NTot=          32
 NSgBfM=    55    55    55    55    55 MxSgAt=     6 MxSgA2=     6.
 Leave Link  302 at Wed Oct  7 13:16:37 2020, MaxMem=  2684354560 cpu:               3.3 elap:               0.5
 (Enter /udrive/faculty/rpeverati/g16/g16/l303.exe)
 DipDrv:  MaxL=1.
 Leave Link  303 at Wed Oct  7 13:16:37 2020, MaxMem=  2684354560 cpu:               1.2 elap:               0.4
 (Enter /udrive/faculty/rpeverati/g16/g16/l401.exe)
 SCF N**3 symmetry information disabled.
 ExpMin= 1.43D-01 ExpMax= 2.52D+04 ExpMxC= 3.78D+03 IAcc=3 IRadAn=         5 AccDes= 0.00D+00
 Harris functional with IExCor=  404 and IRadAn=       5 diagonalized for initial guess.
 HarFok:  IExCor=  404 AccDes= 0.00D+00 IRadAn=         5 IDoV= 1 UseB2=F ITyADJ=14
 ICtDFT=  3500011 ScaDFX=  1.000000  1.000000  1.000000  1.000000
 FoFCou: FMM=F IPFlag=           0 FMFlag=      100000 FMFlg1=           0
         NFxFlg=           0 DoJE=T BraDBF=F KetDBF=T FulRan=T
         wScrn=  0.000000 ICntrl=       500 IOpCl=  0 I1Cent=   200000004 NGrid=           0
         NMat0=    1 NMatS0=      1 NMatT0=    0 NMatD0=    1 NMtDS0=    0 NMtDT0=    0
 Petite list used in FoFCou.
 Harris En= -600.116373624678    
 JPrj=0 DoOrth=F DoCkMO=F.
 Initial guess orbital symmetries:
       Occupied  (A1) (A1) (A1) (A1) (A1) (E) (E) (A1) (A1) (A1)
                 (A1) (E) (E) (E) (E) (A1) (E) (E)
       Virtual   (A1) (A1) (E) (E) (A1) (A1) (E) (E) (E) (E) (A1)
                 (E) (E) (A1) (E) (E) (E) (E) (A1) (A1) (E) (E)
                 (A1) (E) (E) (E) (E) (A1) (A1) (E) (E) (E) (E)
                 (A1)
 The electronic state of the initial guess is 1-A1.
 Leave Link  401 at Wed Oct  7 13:16:38 2020, MaxMem=  2684354560 cpu:               5.6 elap:               0.8
 (Enter /udrive/faculty/rpeverati/g16/g16/l502.exe)
 Keep J ints in memory in symmetry-blocked form, NReq=11461362.
 FoFCou: FMM=F IPFlag=           0 FMFlag=           0 FMFlg1=           0
         NFxFlg=           0 DoJE=F BraDBF=F KetDBF=F FulRan=T
         wScrn=  0.000000 ICntrl=       600 IOpCl=  0 I1Cent=           0 NGrid=           0
         NMat0=    1 NMatS0=   1378 NMatT0=    0 NMatD0=    1 NMtDS0=    0 NMtDT0=    0
 Petite list used in FoFCou.
 Closed shell SCF:
 Using DIIS extrapolation, IDIIS=  1040.
 NGot=  2684354560 LenX=  2683850115 LenY=  2683846649
 Requested convergence on RMS density matrix=1.00D-08 within 120 cycles.
 Requested convergence on MAX density matrix=1.00D-06.
 Requested convergence on             energy=1.00D-06.
 No special actions if energy rises.
 Integral accuracy reduced to 1.0D-05 until final iterations.

 Cycle   1  Pass 0  IDiag  1:
 E= -599.960570725878    
 DIIS: error= 3.59D-02 at cycle   1 NSaved=   1.
 NSaved= 1 IEnMin= 1 EnMin= -599.960570725878     IErMin= 1 ErrMin= 3.59D-02
 ErrMax= 3.59D-02  0.00D+00 EMaxC= 1.00D-01 BMatC= 4.86D-02 BMatP= 4.86D-02
 IDIUse=3 WtCom= 6.41D-01 WtEn= 3.59D-01
 Coeff-Com:  0.100D+01
 Coeff-En:   0.100D+01
 Coeff:      0.100D+01
 Gap=     0.202 Goal=   None    Shift=    0.000
 GapD=    0.202 DampG=1.000 DampE=0.500 DampFc=0.5000 IDamp=-1.
 Damping current iteration by 5.00D-01
 RMSDP=1.10D-02 MaxDP=1.66D-01              OVMax= 1.13D-01

 Cycle   2  Pass 0  IDiag  1:
 E= -599.985459400264     Delta-E=       -0.024888674386 Rises=F Damp=T
 DIIS: error= 6.92D-03 at cycle   2 NSaved=   2.
 NSaved= 2 IEnMin= 2 EnMin= -599.985459400264     IErMin= 2 ErrMin= 6.92D-03
 ErrMax= 6.92D-03  0.00D+00 EMaxC= 1.00D-01 BMatC= 1.90D-03 BMatP= 4.86D-02
 IDIUse=3 WtCom= 9.31D-01 WtEn= 6.92D-02
 Coeff-Com:  0.716D-01 0.928D+00
 Coeff-En:   0.996D-01 0.900D+00
 Coeff:      0.735D-01 0.926D+00
 Gap=     0.210 Goal=   None    Shift=    0.000
 RMSDP=1.12D-03 MaxDP=1.58D-02 DE=-2.49D-02 OVMax= 5.68D-02

 Cycle   3  Pass 0  IDiag  1:
 E= -600.014951482887     Delta-E=       -0.029492082623 Rises=F Damp=F
 DIIS: error= 2.43D-03 at cycle   3 NSaved=   3.
 NSaved= 3 IEnMin= 3 EnMin= -600.014951482887     IErMin= 3 ErrMin= 2.43D-03
 ErrMax= 2.43D-03  0.00D+00 EMaxC= 1.00D-01 BMatC= 2.59D-04 BMatP= 1.90D-03
 IDIUse=3 WtCom= 9.76D-01 WtEn= 2.43D-02
 Coeff-Com:  0.671D-02 0.245D+00 0.748D+00
 Coeff-En:   0.000D+00 0.000D+00 0.100D+01
 Coeff:      0.655D-02 0.239D+00 0.754D+00
 Gap=     0.207 Goal=   None    Shift=    0.000
 RMSDP=3.83D-04 MaxDP=2.93D-03 DE=-2.95D-02 OVMax= 6.95D-03

 Cycle   4  Pass 0  IDiag  1:
 E= -600.015163303433     Delta-E=       -0.000211820546 Rises=F Damp=F
 DIIS: error= 1.05D-03 at cycle   4 NSaved=   4.
 NSaved= 4 IEnMin= 4 EnMin= -600.015163303433     IErMin= 4 ErrMin= 1.05D-03
 ErrMax= 1.05D-03  0.00D+00 EMaxC= 1.00D-01 BMatC= 5.66D-05 BMatP= 2.59D-04
 IDIUse=3 WtCom= 9.89D-01 WtEn= 1.05D-02
 Coeff-Com:  0.632D-02 0.781D-01 0.351D+00 0.565D+00
 Coeff-En:   0.000D+00 0.000D+00 0.000D+00 0.100D+01
 Coeff:      0.626D-02 0.772D-01 0.347D+00 0.569D+00
 Gap=     0.205 Goal=   None    Shift=    0.000
 RMSDP=1.52D-04 MaxDP=2.11D-03 DE=-2.12D-04 OVMax= 2.87D-03

 Cycle   5  Pass 0  IDiag  1:
 E= -600.015192987200     Delta-E=       -0.000029683767 Rises=F Damp=F
 DIIS: error= 4.84D-04 at cycle   5 NSaved=   5.
 NSaved= 5 IEnMin= 5 EnMin= -600.015192987200     IErMin= 5 ErrMin= 4.84D-04
 ErrMax= 4.84D-04  0.00D+00 EMaxC= 1.00D-01 BMatC= 1.45D-05 BMatP= 5.66D-05
 IDIUse=3 WtCom= 9.95D-01 WtEn= 4.84D-03
 Coeff-Com:  0.303D-02 0.760D-02 0.118D+00 0.363D+00 0.508D+00
 Coeff-En:   0.000D+00 0.000D+00 0.000D+00 0.196D+00 0.804D+00
 Coeff:      0.301D-02 0.756D-02 0.118D+00 0.362D+00 0.510D+00
 Gap=     0.205 Goal=   None    Shift=    0.000
 RMSDP=5.25D-05 MaxDP=8.14D-04 DE=-2.97D-05 OVMax= 9.83D-04

 Cycle   6  Pass 0  IDiag  1:
 E= -600.015203567164     Delta-E=       -0.000010579965 Rises=F Damp=F
 DIIS: error= 5.78D-05 at cycle   6 NSaved=   6.
 NSaved= 6 IEnMin= 6 EnMin= -600.015203567164     IErMin= 6 ErrMin= 5.78D-05
 ErrMax= 5.78D-05  0.00D+00 EMaxC= 1.00D-01 BMatC= 1.87D-07 BMatP= 1.45D-05
 IDIUse=1 WtCom= 1.00D+00 WtEn= 0.00D+00
 Coeff-Com:  0.156D-02 0.188D-02 0.532D-01 0.172D+00 0.268D+00 0.503D+00
 Coeff:      0.156D-02 0.188D-02 0.532D-01 0.172D+00 0.268D+00 0.503D+00
 Gap=     0.205 Goal=   None    Shift=    0.000
 RMSDP=1.11D-05 MaxDP=1.80D-04 DE=-1.06D-05 OVMax= 1.60D-04

 Cycle   7  Pass 0  IDiag  1:
 E= -600.015203755807     Delta-E=       -0.000000188642 Rises=F Damp=F
 DIIS: error= 1.30D-05 at cycle   7 NSaved=   7.
 NSaved= 7 IEnMin= 7 EnMin= -600.015203755807     IErMin= 7 ErrMin= 1.30D-05
 ErrMax= 1.30D-05  0.00D+00 EMaxC= 1.00D-01 BMatC= 6.27D-09 BMatP= 1.87D-07
 IDIUse=1 WtCom= 1.00D+00 WtEn= 0.00D+00
 Coeff-Com:  0.399D-03-0.146D-04 0.100D-01 0.329D-01 0.605D-01 0.201D+00
 Coeff-Com:  0.695D+00
 Coeff:      0.399D-03-0.146D-04 0.100D-01 0.329D-01 0.605D-01 0.201D+00
 Coeff:      0.695D+00
 Gap=     0.205 Goal=   None    Shift=    0.000
 RMSDP=2.07D-06 MaxDP=2.64D-05 DE=-1.89D-07 OVMax= 2.99D-05

 Initial convergence to 1.0D-05 achieved.  Increase integral accuracy.
 Cycle   8  Pass 1  IDiag  1:
 E= -600.015206421668     Delta-E=       -0.000002665861 Rises=F Damp=F
 DIIS: error= 1.14D-05 at cycle   1 NSaved=   1.
 NSaved= 1 IEnMin= 1 EnMin= -600.015206421668     IErMin= 1 ErrMin= 1.14D-05
 ErrMax= 1.14D-05  0.00D+00 EMaxC= 1.00D-01 BMatC= 2.84D-09 BMatP= 2.84D-09
 IDIUse=1 WtCom= 1.00D+00 WtEn= 0.00D+00
 Coeff-Com:  0.100D+01
 Coeff:      0.100D+01
 Gap=     0.205 Goal=   None    Shift=    0.000
 RMSDP=2.07D-06 MaxDP=2.64D-05 DE=-2.67D-06 OVMax= 2.21D-05

 Cycle   9  Pass 1  IDiag  1:
 E= -600.015206426155     Delta-E=       -0.000000004487 Rises=F Damp=F
 DIIS: error= 2.51D-06 at cycle   2 NSaved=   2.
 NSaved= 2 IEnMin= 2 EnMin= -600.015206426155     IErMin= 2 ErrMin= 2.51D-06
 ErrMax= 2.51D-06  0.00D+00 EMaxC= 1.00D-01 BMatC= 2.39D-10 BMatP= 2.84D-09
 IDIUse=1 WtCom= 1.00D+00 WtEn= 0.00D+00
 Coeff-Com:  0.142D+00 0.858D+00
 Coeff:      0.142D+00 0.858D+00
 Gap=     0.205 Goal=   None    Shift=    0.000
 RMSDP=8.68D-07 MaxDP=1.53D-05 DE=-4.49D-09 OVMax= 1.27D-05

 Cycle  10  Pass 1  IDiag  1:
 E= -600.015206426191     Delta-E=       -0.000000000036 Rises=F Damp=F
 DIIS: error= 2.23D-06 at cycle   3 NSaved=   3.
 NSaved= 3 IEnMin= 3 EnMin= -600.015206426191     IErMin= 3 ErrMin= 2.23D-06
 ErrMax= 2.23D-06  0.00D+00 EMaxC= 1.00D-01 BMatC= 2.22D-10 BMatP= 2.39D-10
 IDIUse=1 WtCom= 1.00D+00 WtEn= 0.00D+00
 Coeff-Com:  0.150D-01 0.491D+00 0.494D+00
 Coeff:      0.150D-01 0.491D+00 0.494D+00
 Gap=     0.205 Goal=   None    Shift=    0.000
 RMSDP=4.12D-07 MaxDP=7.27D-06 DE=-3.60D-11 OVMax= 6.16D-06

 Cycle  11  Pass 1  IDiag  1:
 E= -600.015206426440     Delta-E=       -0.000000000249 Rises=F Damp=F
 DIIS: error= 3.83D-07 at cycle   4 NSaved=   4.
 NSaved= 4 IEnMin= 4 EnMin= -600.015206426440     IErMin= 4 ErrMin= 3.83D-07
 ErrMax= 3.83D-07  0.00D+00 EMaxC= 1.00D-01 BMatC= 6.39D-12 BMatP= 2.22D-10
 IDIUse=1 WtCom= 1.00D+00 WtEn= 0.00D+00
 Coeff-Com:  0.605D-02 0.278D+00 0.294D+00 0.422D+00
 Coeff:      0.605D-02 0.278D+00 0.294D+00 0.422D+00
 Gap=     0.205 Goal=   None    Shift=    0.000
 RMSDP=3.70D-08 MaxDP=5.58D-07 DE=-2.49D-10 OVMax= 6.59D-07

 Cycle  12  Pass 1  IDiag  1:
 E= -600.015206426444     Delta-E=       -0.000000000004 Rises=F Damp=F
 DIIS: error= 4.16D-08 at cycle   5 NSaved=   5.
 NSaved= 5 IEnMin= 5 EnMin= -600.015206426444     IErMin= 5 ErrMin= 4.16D-08
 ErrMax= 4.16D-08  0.00D+00 EMaxC= 1.00D-01 BMatC= 1.37D-13 BMatP= 6.39D-12
 IDIUse=1 WtCom= 1.00D+00 WtEn= 0.00D+00
 Coeff-Com:  0.192D-02 0.926D-01 0.991D-01 0.193D+00 0.613D+00
 Coeff:      0.192D-02 0.926D-01 0.991D-01 0.193D+00 0.613D+00
 Gap=     0.205 Goal=   None    Shift=    0.000
 RMSDP=7.73D-09 MaxDP=1.00D-07 DE=-4.21D-12 OVMax= 1.13D-07

 SCF Done:  E(RB-P86) =  -600.015206426     A.U. after   12 cycles
            NFock= 12  Conv=0.77D-08     -V/T= 2.0029
 KE= 5.982770376631D+02 PE=-1.594011022774D+03 EE= 3.158090591410D+02
 Leave Link  502 at Wed Oct  7 13:16:41 2020, MaxMem=  2684354560 cpu:              18.4 elap:               2.1
 (Enter /udrive/faculty/rpeverati/g16/g16/l508.exe)
 QCSCF skips out because SCF is already converged.
 Leave Link  508 at Wed Oct  7 13:16:42 2020, MaxMem=  2684354560 cpu:               0.4 elap:               0.5
 (Enter /udrive/faculty/rpeverati/g16/g16/l601.exe)
 Copying SCF densities to generalized density rwf, IOpCl= 0 IROHF=0.

 **********************************************************************

            Population analysis using the SCF density.

 **********************************************************************

 Orbital symmetries:
       Occupied  (A1) (A1) (A1) (A1) (A1) (E) (E) (A1) (A1) (A1)
                 (A1) (E) (E) (E) (E) (A1) (E) (E)
       Virtual   (A1) (A1) (E) (E) (A1) (A1) (E) (E) (E) (E) (A1)
                 (E) (E) (A1) (A1) (E) (E) (E) (E) (A1) (A1) (E)
                 (E) (E) (E) (E) (E) (A1) (A1) (E) (E) (E) (E)
                 (A1)
 The electronic state is 1-A1.
 Alpha  occ. eigenvalues -- -100.38859 -24.10933  -9.79950  -8.84632  -6.66474
 Alpha  occ. eigenvalues --   -6.66421  -6.66421  -0.91528  -0.46504  -0.39058
 Alpha  occ. eigenvalues --   -0.26325  -0.25500  -0.25500  -0.12382  -0.12382
 Alpha  occ. eigenvalues --    0.02613   0.02890   0.02890
 Alpha virt. eigenvalues --    0.23422   0.27077   0.30565   0.30565   0.57445
 Alpha virt. eigenvalues --    0.64937   0.65541   0.65541   0.69300   0.69300
 Alpha virt. eigenvalues --    0.77679   0.97494   0.97494   1.05054   1.09283
 Alpha virt. eigenvalues --    1.13384   1.13384   1.13682   1.13682   1.20850
 Alpha virt. eigenvalues --    1.32493   1.33412   1.33412   1.60629   1.60629
 Alpha virt. eigenvalues --    1.91224   1.91224   2.00667   2.16068   2.27350
 Alpha virt. eigenvalues --    2.27350   2.48267   2.48267   3.06505
          Condensed to atoms (all electrons):
               1          2          3          4          5          6
     1  F    9.241544   0.217588  -0.030807  -0.030807  -0.030807   0.000325
     2  C    0.217588   4.842741   0.365784   0.365784   0.365784  -0.004172
     3  H   -0.030807   0.365784   0.578112  -0.038507  -0.038507   0.007847
     4  H   -0.030807   0.365784  -0.038507   0.578112  -0.038507   0.007847
     5  H   -0.030807   0.365784  -0.038507  -0.038507   0.578112   0.007847
     6  Cl   0.000325  -0.004172   0.007847   0.007847   0.007847  17.927991
 Mulliken charges:
               1
     1  F   -0.367037
     2  C   -0.153510
     3  H    0.156077
     4  H    0.156077
     5  H    0.156077
     6  Cl  -0.947684
 Sum of Mulliken charges =  -1.00000
 Mulliken charges with hydrogens summed into heavy atoms:
               1
     1  F   -0.367037
     2  C    0.314721
     6  Cl  -0.947684
 Electronic spatial extent (au):  <R**2>=            600.8332
 Charge=             -1.0000 electrons
 Dipole moment (field-independent basis, Debye):
    X=             -0.0000    Y=             -0.0000    Z=             -6.5651  Tot=              6.5651
 Quadrupole moment (field-independent basis, Debye-Ang):
   XX=            -27.3076   YY=            -27.3076   ZZ=            -54.0975
   XY=             -0.0000   XZ=              0.0000   YZ=              0.0000
 Traceless Quadrupole moment (field-independent basis, Debye-Ang):
   XX=              8.9300   YY=              8.9300   ZZ=            -17.8600
   XY=             -0.0000   XZ=              0.0000   YZ=              0.0000
 Octapole moment (field-independent basis, Debye-Ang**2):
  XXX=              0.0000  YYY=              0.5049  ZZZ=            -40.3315  XYY=              0.0000
  XXY=             -0.5049  XXZ=            -10.1613  XZZ=              0.0000  YZZ=             -0.0000
  YYZ=            -10.1613  XYZ=              0.0000
 Hexadecapole moment (field-independent basis, Debye-Ang**3):
 XXXX=            -35.4247 YYYY=            -35.4247 ZZZZ=           -790.6293 XXXY=              0.0000
 XXXZ=             -0.0000 YYYX=              0.0000 YYYZ=             -0.4016 ZZZX=             -0.0000
 ZZZY=             -0.0000 XXYY=            -11.8082 XXZZ=           -115.7477 YYZZ=           -115.7477
 XXYZ=              0.4016 YYXZ=             -0.0000 ZZXY=              0.0000
 N-N= 7.990971954307D+01 E-N=-1.594011020293D+03  KE= 5.982770376631D+02
 No NMR shielding tensors so no spin-rotation constants.
 Leave Link  601 at Wed Oct  7 13:16:43 2020, MaxMem=  2684354560 cpu:               5.1 elap:               1.0
 (Enter /udrive/faculty/rpeverati/g16/g16/l701.exe)
 ... and contract with generalized density number  0.
 Compute integral first derivatives.
 Leave Link  701 at Wed Oct  7 13:16:44 2020, MaxMem=  2684354560 cpu:               3.8 elap:               0.6
 (Enter /udrive/faculty/rpeverati/g16/g16/l702.exe)
 L702 exits ... SP integral derivatives will be done elsewhere.
 Leave Link  702 at Wed Oct  7 13:16:44 2020, MaxMem=  2684354560 cpu:               1.0 elap:               0.4
 (Enter /udrive/faculty/rpeverati/g16/g16/l703.exe)
 Integral derivatives from FoFJK, PRISM(SPDF).
 Compute integral first derivatives, UseDBF=F ICtDFT=           0.
 Calling FoFJK, ICntrl=      2527 FMM=F ISym2X=1 I1Cent= 0 IOpClX= 0 NMat=1 NMatS=1 NMatT=0.
 FoFJK:  IHMeth= 1 ICntrl=    2527 DoSepK=F KAlg= 0 I1Cent=           0 FoldK=F
 IRaf=         0 NMat=       1 IRICut=       1 DoRegI=T DoRafI=F ISym2E= 1 IDoP0=0 IntGTp=1.
 FoFCou: FMM=F IPFlag=           0 FMFlag=      100000 FMFlg1=         800
         NFxFlg=           0 DoJE=F BraDBF=F KetDBF=F FulRan=T
         wScrn=  0.000000 ICntrl=      2527 IOpCl=  0 I1Cent=           0 NGrid=           0
         NMat0=    1 NMatS0=      1 NMatT0=    0 NMatD0=    1 NMtDS0=    0 NMtDT0=    0
 Petite list used in FoFCou.
 Leave Link  703 at Wed Oct  7 13:16:46 2020, MaxMem=  2684354560 cpu:               7.9 elap:               0.9
 (Enter /udrive/faculty/rpeverati/g16/g16/l716.exe)
 Dipole        =-2.22044605D-16-1.11022302D-16-2.58289831D+00
 ***** Axes restored to original set *****
 -------------------------------------------------------------------
 Center     Atomic                   Forces (Hartrees/Bohr)
 Number     Number              X              Y              Z
 -------------------------------------------------------------------
      1        9           0.000000000    0.000000000   -0.011972431
      2        6          -0.000000000   -0.000000000   -0.008312830
      3        1          -0.004937640    0.008552243    0.006905803
      4        1          -0.004937640   -0.008552243    0.006905803
      5        1           0.009875280   -0.000000000    0.006905803
      6       17          -0.000000000    0.000000000   -0.000432150
 -------------------------------------------------------------------
 Cartesian Forces:  Max     0.011972431 RMS     0.006001217
 Leave Link  716 at Wed Oct  7 13:16:46 2020, MaxMem=  2684354560 cpu:               2.1 elap:               0.6
 (Enter /udrive/faculty/rpeverati/g16/g16/l103.exe)

 GradGradGradGradGradGradGradGradGradGradGradGradGradGradGradGradGradGrad
 Berny optimization.
 Optmz: redundant internal coordinate code flag= 1
 FormGI is forming the generalized inverse of G from B-inverse, IUseBI=4.
 Internal  Forces:  Max     0.011972431 RMS     0.003996989
 Search for a local minimum.
 Step number   1 out of a maximum of  100
 All quantities printed in internal units (Hartrees-Bohrs-Radians)
 RMS Force = .39970D-02 SwitMx=.10000D-02 MixMth= 1
 Mixed Optimization -- RFO/linear search
 Second derivative matrix not updated -- first step.
 The second derivative matrix:
                          R1        R2        R3        R4        R5
           R1           0.44261
           R2           0.00000   0.35508
           R3           0.00000   0.00000   0.35508
           R4           0.00000   0.00000   0.00000   0.35508
           R5           0.00000   0.00000   0.00000   0.00000   0.01291
           R6           0.00000   0.00000   0.00000   0.00000   0.00000
           R7           0.00000   0.00000   0.00000   0.00000   0.00000
           A1           0.00000   0.00000   0.00000   0.00000   0.00000
           A2           0.00000   0.00000   0.00000   0.00000   0.00000
           A3           0.00000   0.00000   0.00000   0.00000   0.00000
           A4           0.00000   0.00000   0.00000   0.00000   0.00000
           A5           0.00000   0.00000   0.00000   0.00000   0.00000
           A6           0.00000   0.00000   0.00000   0.00000   0.00000
           A7           0.00000   0.00000   0.00000   0.00000   0.00000
           A8           0.00000   0.00000   0.00000   0.00000   0.00000
           A9           0.00000   0.00000   0.00000   0.00000   0.00000
           A10          0.00000   0.00000   0.00000   0.00000   0.00000
           A11          0.00000   0.00000   0.00000   0.00000   0.00000
           A12          0.00000   0.00000   0.00000   0.00000   0.00000
           D1           0.00000   0.00000   0.00000   0.00000   0.00000
           D2           0.00000   0.00000   0.00000   0.00000   0.00000
           D3           0.00000   0.00000   0.00000   0.00000   0.00000
           D4           0.00000   0.00000   0.00000   0.00000   0.00000
           D5           0.00000   0.00000   0.00000   0.00000   0.00000
           D6           0.00000   0.00000   0.00000   0.00000   0.00000
           D7           0.00000   0.00000   0.00000   0.00000   0.00000
           D8           0.00000   0.00000   0.00000   0.00000   0.00000
           D9           0.00000   0.00000   0.00000   0.00000   0.00000
           D10          0.00000   0.00000   0.00000   0.00000   0.00000
           D11          0.00000   0.00000   0.00000   0.00000   0.00000
           D12          0.00000   0.00000   0.00000   0.00000   0.00000
           D13          0.00000   0.00000   0.00000   0.00000   0.00000
           D14          0.00000   0.00000   0.00000   0.00000   0.00000
           D15          0.00000   0.00000   0.00000   0.00000   0.00000
                          R6        R7        A1        A2        A3
           R6           0.01291
           R7           0.00000   0.01291
           A1           0.00000   0.00000   0.16000
           A2           0.00000   0.00000   0.00000   0.16000
           A3           0.00000   0.00000   0.00000   0.00000   0.16000
           A4           0.00000   0.00000   0.00000   0.00000   0.00000
           A5           0.00000   0.00000   0.00000   0.00000   0.00000
           A6           0.00000   0.00000   0.00000   0.00000   0.00000
           A7           0.00000   0.00000   0.00000   0.00000   0.00000
           A8           0.00000   0.00000   0.00000   0.00000   0.00000
           A9           0.00000   0.00000   0.00000   0.00000   0.00000
           A10          0.00000   0.00000   0.00000   0.00000   0.00000
           A11          0.00000   0.00000   0.00000   0.00000   0.00000
           A12          0.00000   0.00000   0.00000   0.00000   0.00000
           D1           0.00000   0.00000   0.00000   0.00000   0.00000
           D2           0.00000   0.00000   0.00000   0.00000   0.00000
           D3           0.00000   0.00000   0.00000   0.00000   0.00000
           D4           0.00000   0.00000   0.00000   0.00000   0.00000
           D5           0.00000   0.00000   0.00000   0.00000   0.00000
           D6           0.00000   0.00000   0.00000   0.00000   0.00000
           D7           0.00000   0.00000   0.00000   0.00000   0.00000
           D8           0.00000   0.00000   0.00000   0.00000   0.00000
           D9           0.00000   0.00000   0.00000   0.00000   0.00000
           D10          0.00000   0.00000   0.00000   0.00000   0.00000
           D11          0.00000   0.00000   0.00000   0.00000   0.00000
           D12          0.00000   0.00000   0.00000   0.00000   0.00000
           D13          0.00000   0.00000   0.00000   0.00000   0.00000
           D14          0.00000   0.00000   0.00000   0.00000   0.00000
           D15          0.00000   0.00000   0.00000   0.00000   0.00000
                          A4        A5        A6        A7        A8
           A4           0.16000
           A5           0.00000   0.16000
           A6           0.00000   0.00000   0.16000
           A7           0.00000   0.00000   0.00000   0.25000
           A8           0.00000   0.00000   0.00000   0.00000   0.25000
           A9           0.00000   0.00000   0.00000   0.00000   0.00000
           A10          0.00000   0.00000   0.00000   0.00000   0.00000
           A11          0.00000   0.00000   0.00000   0.00000   0.00000
           A12          0.00000   0.00000   0.00000   0.00000   0.00000
           D1           0.00000   0.00000   0.00000   0.00000   0.00000
           D2           0.00000   0.00000   0.00000   0.00000   0.00000
           D3           0.00000   0.00000   0.00000   0.00000   0.00000
           D4           0.00000   0.00000   0.00000   0.00000   0.00000
           D5           0.00000   0.00000   0.00000   0.00000   0.00000
           D6           0.00000   0.00000   0.00000   0.00000   0.00000
           D7           0.00000   0.00000   0.00000   0.00000   0.00000
           D8           0.00000   0.00000   0.00000   0.00000   0.00000
           D9           0.00000   0.00000   0.00000   0.00000   0.00000
           D10          0.00000   0.00000   0.00000   0.00000   0.00000
           D11          0.00000   0.00000   0.00000   0.00000   0.00000
           D12          0.00000   0.00000   0.00000   0.00000   0.00000
           D13          0.00000   0.00000   0.00000   0.00000   0.00000
           D14          0.00000   0.00000   0.00000   0.00000   0.00000
           D15          0.00000   0.00000   0.00000   0.00000   0.00000
                          A9        A10       A11       A12       D1
           A9           0.25000
           A10          0.00000   0.16000
           A11          0.00000   0.00000   0.16000
           A12          0.00000   0.00000   0.00000   0.16000
           D1           0.00000   0.00000   0.00000   0.00000   0.00313
           D2           0.00000   0.00000   0.00000   0.00000   0.00000
           D3           0.00000   0.00000   0.00000   0.00000   0.00000
           D4           0.00000   0.00000   0.00000   0.00000   0.00000
           D5           0.00000   0.00000   0.00000   0.00000   0.00000
           D6           0.00000   0.00000   0.00000   0.00000   0.00000
           D7           0.00000   0.00000   0.00000   0.00000   0.00000
           D8           0.00000   0.00000   0.00000   0.00000   0.00000
           D9           0.00000   0.00000   0.00000   0.00000   0.00000
           D10          0.00000   0.00000   0.00000   0.00000   0.00000
           D11          0.00000   0.00000   0.00000   0.00000   0.00000
           D12          0.00000   0.00000   0.00000   0.00000   0.00000
           D13          0.00000   0.00000   0.00000   0.00000   0.00000
           D14          0.00000   0.00000   0.00000   0.00000   0.00000
           D15          0.00000   0.00000   0.00000   0.00000   0.00000
                          D2        D3        D4        D5        D6
           D2           0.00313
           D3           0.00000   0.00313
           D4           0.00000   0.00000   0.00313
           D5           0.00000   0.00000   0.00000   0.00313
           D6           0.00000   0.00000   0.00000   0.00000   0.00313
           D7           0.00000   0.00000   0.00000   0.00000   0.00000
           D8           0.00000   0.00000   0.00000   0.00000   0.00000
           D9           0.00000   0.00000   0.00000   0.00000   0.00000
           D10          0.00000   0.00000   0.00000   0.00000   0.00000
           D11          0.00000   0.00000   0.00000   0.00000   0.00000
           D12          0.00000   0.00000   0.00000   0.00000   0.00000
           D13          0.00000   0.00000   0.00000   0.00000   0.00000
           D14          0.00000   0.00000   0.00000   0.00000   0.00000
           D15          0.00000   0.00000   0.00000   0.00000   0.00000
                          D7        D8        D9        D10       D11
           D7           0.00313
           D8           0.00000   0.00313
           D9           0.00000   0.00000   0.00313
           D10          0.00000   0.00000   0.00000   0.00230
           D11          0.00000   0.00000   0.00000   0.00000   0.00230
           D12          0.00000   0.00000   0.00000   0.00000   0.00000
           D13          0.00000   0.00000   0.00000   0.00000   0.00000
           D14          0.00000   0.00000   0.00000   0.00000   0.00000
           D15          0.00000   0.00000   0.00000   0.00000   0.00000
                          D12       D13       D14       D15
           D12          0.00230
           D13          0.00000   0.00230
           D14          0.00000   0.00000   0.00230
           D15          0.00000   0.00000   0.00000   0.00230
 ITU=  0
 Eigenvectors of the second derivative matrix:
                           1         2         3         4         5
     Eigenvalues --     0.01464   0.03227   0.03227   0.07184   0.07184
   1         R1         0.00000  -0.00000   0.00000  -0.00000   0.00000
   2         R2        -0.00822  -0.01992   0.01345   0.00122   0.01058
   3         R3        -0.00822  -0.00168  -0.02398   0.00855  -0.00634
   4         R4        -0.00822   0.02161   0.01053  -0.00977  -0.00423
   5         R5        -0.57299   0.40644  -0.27431  -0.01148  -0.09968
   6         R6        -0.57299   0.03434   0.48914  -0.08058   0.05979
   7         R7        -0.57299  -0.44078  -0.21483   0.09207   0.03989
   8         A1         0.01929   0.06804  -0.04592  -0.03828  -0.33229
   9         A2         0.01929   0.00575   0.08189  -0.26863   0.19930
  10         A3         0.01929  -0.07379  -0.03597   0.30692   0.13299
  11         A4        -0.01899  -0.09727  -0.04741  -0.37814  -0.16385
  12         A5        -0.01899   0.00758   0.10795   0.33097  -0.24555
  13         A6        -0.01899   0.08970  -0.06054   0.04717   0.40940
  14         A7        -0.01214  -0.19441   0.13121   0.00538   0.04672
  15         A8        -0.01214  -0.01642  -0.23397   0.03777  -0.02802
  16         A9        -0.01214   0.21083   0.10276  -0.04315  -0.01870
  17         A10        0.05361  -0.04699  -0.02290  -0.07414  -0.03213
  18         A11        0.05361   0.00366   0.05215   0.06489  -0.04814
  19         A12        0.05361   0.04333  -0.02924   0.00925   0.08027
  20         D1        -0.00000   0.19031   0.28198  -0.40307   0.04644
  21         D2        -0.02394   0.20019   0.23849   0.17576   0.10443
  22         D3         0.02394   0.14628   0.27488   0.14741  -0.14166
  23         D4        -0.00000  -0.33935   0.02382   0.24175   0.32585
  24         D5         0.02394  -0.31119  -0.01076  -0.19639  -0.05683
  25         D6        -0.02394  -0.30664   0.05413   0.00255  -0.20443
  26         D7         0.00000   0.14905  -0.30580   0.16132  -0.37228
  27         D8        -0.02394   0.10644  -0.29262  -0.17832   0.10000
  28         D9         0.02394   0.16491  -0.26412   0.04897   0.19849
  29         D10       -0.00498  -0.12989  -0.05512  -0.22387  -0.09375
  30         D11        0.00498  -0.00252  -0.14108  -0.19668   0.14220
  31         D12        0.00498   0.12344   0.06836   0.22149   0.09923
  32         D13       -0.00498   0.11268  -0.08493   0.03074   0.24075
  33         D14       -0.00498   0.01721   0.14005   0.19313  -0.14700
  34         D15        0.00498  -0.12092   0.07273  -0.02481  -0.24144
                           6         7         8         9        10
     Eigenvalues --     0.09587   0.09587   0.10139   0.30913   0.30913
   1         R1        -0.00000   0.00000  -0.00000  -0.00000  -0.00000
   2         R2        -0.01856   0.01083   0.02866   0.42894   0.61614
   3         R3        -0.00010  -0.02149   0.02866  -0.74806   0.06340
   4         R4         0.01866   0.01066   0.02866   0.31913  -0.67954
   5         R5         0.31815  -0.18565   0.02911  -0.00325  -0.00467
   6         R6         0.00170   0.36835   0.02911   0.00567  -0.00048
   7         R7        -0.31985  -0.18270   0.02911  -0.00242   0.00515
   8         A1        -0.40663   0.23728   0.22922   0.00244   0.00350
   9         A2        -0.00217  -0.47079   0.22922  -0.00425   0.00036
  10         A3         0.40880   0.23352   0.22922   0.00181  -0.00386
  11         A4         0.29102   0.16624  -0.22558   0.00164  -0.00348
  12         A5        -0.00155  -0.33515  -0.22558  -0.00383   0.00032
  13         A6        -0.28948   0.16891  -0.22558   0.00220   0.00316
  14         A7        -0.15168   0.08851   0.25417  -0.07070  -0.10156
  15         A8        -0.00081  -0.17561   0.25417   0.12330  -0.01045
  16         A9         0.15249   0.08710   0.25417  -0.05260   0.11201
  17         A10        0.04236   0.02420  -0.04254  -0.04700   0.10007
  18         A11       -0.00022  -0.04878  -0.04254   0.11016  -0.00934
  19         A12       -0.04213   0.02458  -0.04254  -0.06317  -0.09073
  20         D1        -0.15509  -0.26579  -0.00000   0.00161  -0.00112
  21         D2        -0.07900   0.06447  -0.28442   0.00433  -0.00161
  22         D3         0.09500  -0.03706   0.28442   0.00301  -0.00351
  23         D4         0.30773  -0.00142   0.00000   0.00017   0.00196
  24         D5        -0.01540   0.10080   0.28442   0.00153   0.00436
  25         D6        -0.01633  -0.10065  -0.28442  -0.00077   0.00456
  26         D7        -0.15264   0.26721   0.00000  -0.00178  -0.00084
  27         D8         0.09533   0.03618  -0.28442  -0.00356  -0.00295
  28         D9        -0.07959  -0.06374   0.28442  -0.00454  -0.00085
  29         D10        0.13098   0.08221   0.00395   0.18007   0.07263
  30         D11        0.00713   0.15448  -0.00395  -0.00561  -0.19409
  31         D12       -0.13735  -0.07106  -0.00395   0.17089   0.09219
  32         D13       -0.13668   0.07233   0.00395  -0.15294   0.11963
  33         D14        0.00570  -0.15454   0.00395  -0.02714  -0.19226
  34         D15        0.13022  -0.08341  -0.00395  -0.16528   0.10190
                          11        12
     Eigenvalues --     0.33710   0.44261
   1         R1        -0.00000  -1.00000
   2         R2        -0.54786  -0.00000
   3         R3        -0.54786   0.00000
   4         R4        -0.54786   0.00000
   5         R5        -0.01076  -0.00000
   6         R6        -0.01076   0.00000
   7         R7        -0.01076   0.00000
   8         A1        -0.01030  -0.00000
   9         A2        -0.01030   0.00000
  10         A3        -0.01030  -0.00000
  11         A4         0.01013   0.00000
  12         A5         0.01013  -0.00000
  13         A6         0.01013   0.00000
  14         A7         0.08284   0.00000
  15         A8         0.08284  -0.00000
  16         A9         0.08284  -0.00000
  17         A10       -0.15883   0.00000
  18         A11       -0.15883  -0.00000
  19         A12       -0.15883   0.00000
  20         D1         0.00000   0.00000
  21         D2         0.01278   0.00000
  22         D3        -0.01278  -0.00000
  23         D4        -0.00000   0.00000
  24         D5        -0.01278   0.00000
  25         D6         0.01278  -0.00000
  26         D7         0.00000  -0.00000
  27         D8         0.01278   0.00000
  28         D9        -0.01278   0.00000
  29         D10        0.01475  -0.00000
  30         D11       -0.01475   0.00000
  31         D12       -0.01475  -0.00000
  32         D13        0.01475   0.00000
  33         D14        0.01475  -0.00000
  34         D15       -0.01475   0.00000
 Iter=   1 RLamda= 0.00000000D+00 Sum=-1.72087953D-03.
 Iter=   2 RLamda=-1.72087953D-03 Sum=-1.70831984D-03.
 Iter=   3 RLamda=-1.70831984D-03 Sum=-1.70841000D-03.
 Iter=   4 RLamda=-1.70841000D-03 Sum=-1.70840936D-03.
 RFO step:  Lambda=-1.70841000D-03 EMin= 1.46387448D-02
 Linear search not attempted -- first point.
 Iteration  1 RMS(Cart)=  0.01179569 RMS(Int)=  0.00020905
 Iteration  2 RMS(Cart)=  0.00012182 RMS(Int)=  0.00009473
 Iteration  3 RMS(Cart)=  0.00000002 RMS(Int)=  0.00009473
 ITry= 1 IFail=0 DXMaxC= 4.36D-02 DCOld= 1.00D+10 DXMaxT= 3.00D-01 DXLimC= 3.00D+00 Rises=F
 ClnCor:  largest displacement from symmetrization is 7.64D-09 for atom     1.
 Variable       Old X    -DE/DX   Delta X   Delta X   Delta X     New X
                                 (Linear)    (Quad)   (Total)
    R1        2.66144   0.01197   0.00000   0.02695   0.02695   2.68839
    R2        2.04859   0.01070   0.00000   0.03245   0.03248   2.08107
    R3        2.04859   0.01070   0.00000   0.03245   0.03248   2.08107
    R4        2.04859   0.01070   0.00000   0.03245   0.03248   2.08107
    R5        5.78147   0.00016   0.00000  -0.01015  -0.01016   5.77130
    R6        5.78147   0.00016   0.00000  -0.01015  -0.01016   5.77130
    R7        5.78147   0.00016   0.00000  -0.01015  -0.01016   5.77130
    A1        1.90321   0.00145   0.00000   0.01306   0.01309   1.91630
    A2        1.90321   0.00145   0.00000   0.01306   0.01309   1.91630
    A3        1.90321   0.00145   0.00000   0.01306   0.01309   1.91630
    A4        1.91800  -0.00143   0.00000  -0.01285  -0.01307   1.90493
    A5        1.91800  -0.00143   0.00000  -0.01285  -0.01307   1.90493
    A6        1.91800  -0.00143   0.00000  -0.01285  -0.01307   1.90493
    A7        1.56167  -0.00022   0.00000   0.00841   0.00848   1.57015
    A8        1.56167  -0.00022   0.00000   0.00841   0.00848   1.57015
    A9        1.56167  -0.00022   0.00000   0.00841   0.00848   1.57015
   A10        0.58859   0.00284   0.00000   0.00793   0.00786   0.59645
   A11        0.58859   0.00284   0.00000   0.00793   0.00786   0.59645
   A12        0.58859   0.00284   0.00000   0.00793   0.00786   0.59645
    D1        3.14159   0.00000   0.00000   0.00000  -0.00000   3.14159
    D2        1.05635  -0.00180   0.00000  -0.01620  -0.01606   1.04029
    D3       -1.05635   0.00180   0.00000   0.01620   0.01606  -1.04029
    D4        3.14159   0.00000   0.00000   0.00000  -0.00000   3.14159
    D5       -1.05635   0.00180   0.00000   0.01620   0.01606  -1.04029
    D6        1.05635  -0.00180   0.00000  -0.01620  -0.01606   1.04029
    D7        3.14159  -0.00000   0.00000  -0.00000   0.00000   3.14159
    D8        1.05635  -0.00180   0.00000  -0.01620  -0.01606   1.04029
    D9       -1.05635   0.00180   0.00000   0.01620   0.01606  -1.04029
   D10       -0.54974  -0.00026   0.00000  -0.00074  -0.00074  -0.55047
   D11        0.54974   0.00026   0.00000   0.00074   0.00074   0.55047
   D12        0.54974   0.00026   0.00000   0.00074   0.00074   0.55047
   D13       -0.54974  -0.00026   0.00000  -0.00074  -0.00074  -0.55047
   D14       -0.54974  -0.00026   0.00000  -0.00074  -0.00074  -0.55047
   D15        0.54974   0.00026   0.00000   0.00074   0.00074   0.55047
         Item               Value     Threshold  Converged?
 Maximum Force            0.011972     0.000450     NO 
 RMS     Force            0.003997     0.000300     NO 
 Maximum Displacement     0.043558     0.001800     NO 
 RMS     Displacement     0.011810     0.001200     NO 
 Predicted change in Energy=-8.573710D-04
 Lowest energy point so far.  Saving SCF results.
 Largest change from initial coordinates is atom    1       0.001 Angstoms.
 GradGradGradGradGradGradGradGradGradGradGradGradGradGradGradGradGradGrad

 Leave Link  103 at Wed Oct  7 13:16:47 2020, MaxMem=  2684354560 cpu:               5.8 elap:               0.9
 (Enter /udrive/faculty/rpeverati/g16/g16/l202.exe)
                          Input orientation:                          
 ---------------------------------------------------------------------
 Center     Atomic      Atomic             Coordinates (Angstroms)
 Number     Number       Type             X           Y           Z
 ---------------------------------------------------------------------
      1          9           0        0.000000    0.000000   -1.912986
      2          6           0        0.000000   -0.000000   -0.490353
      3          1           0       -0.518087    0.897354   -0.117389
      4          1           0       -0.518087   -0.897354   -0.117389
      5          1           0        1.036175   -0.000000   -0.117389
      6         17           0        0.000000    0.000000    2.755505
 ---------------------------------------------------------------------
                    Distance matrix (angstroms):
                    1          2          3          4          5
     1  F    0.000000
     2  C    1.422633   0.000000
     3  H    2.073120   1.101254   0.000000
     4  H    2.073120   1.101254   1.794707   0.000000
     5  H    2.073120   1.101254   1.794707   1.794707   0.000000
     6  Cl   4.668491   3.245859   3.054043   3.054043   3.054043
                    6
     6  Cl   0.000000
 Stoichiometry    CH3ClF(1-)
 Framework group  C3V[C3(FCCl),3SGV(H)]
 Deg. of freedom     4
 Full point group                 C3V     NOp   6
 RotChk:  IX=0 Diff= 0.00D+00
 Largest Abelian subgroup         CS      NOp   2
 Largest concise Abelian subgroup CS      NOp   2
                         Standard orientation:                         
 ---------------------------------------------------------------------
 Center     Atomic      Atomic             Coordinates (Angstroms)
 Number     Number       Type             X           Y           Z
 ---------------------------------------------------------------------
      1          9           0        0.000000    0.000000   -2.665341
      2          6           0        0.000000    0.000000   -1.242709
      3          1           0       -0.000000    1.036175   -0.869744
      4          1           0       -0.897354   -0.518087   -0.869744
      5          1           0        0.897354   -0.518087   -0.869744
      6         17           0        0.000000    0.000000    2.003150
 ---------------------------------------------------------------------
 Rotational constants (GHZ):         155.6843105           1.6977636           1.6977636
 Leave Link  202 at Wed Oct  7 13:16:48 2020, MaxMem=  2684354560 cpu:               1.3 elap:               0.4
 (Enter /udrive/faculty/rpeverati/g16/g16/l301.exe)
 Standard basis: 6-31G(d) (5D, 7F)
 Ernie: Thresh=  0.10000D-02 Tol=  0.10000D-05 Strict=F.
 There are    40 symmetry adapted cartesian basis functions of A'  symmetry.
 There are    15 symmetry adapted cartesian basis functions of A"  symmetry.
 There are    37 symmetry adapted basis functions of A'  symmetry.
 There are    15 symmetry adapted basis functions of A"  symmetry.
    52 basis functions,   120 primitive gaussians,    55 cartesian basis functions
    18 alpha electrons       18 beta electrons
       nuclear repulsion energy        79.3209977643 Hartrees.
 IExCor=  404 DFT=T Ex=B Corr=P86 ExCW=0 ScaHFX=  0.000000
 ScaDFX=  1.000000  1.000000  1.000000  1.000000 ScalE2=  1.000000  1.000000
 IRadAn=      5 IRanWt=     -1 IRanGd=            0 ICorTp=0 IEmpDi=  4
 NAtoms=    6 NActive=    6 NUniq=    4 SFac= 2.25D+00 NAtFMM=   60 NAOKFM=F Big=F
 Integral buffers will be    131072 words long.
 Raffenetti 2 integral format.
 Two-electron integral symmetry is turned on.
 Leave Link  301 at Wed Oct  7 13:16:49 2020, MaxMem=  2684354560 cpu:               1.8 elap:               0.5
 (Enter /udrive/faculty/rpeverati/g16/g16/l302.exe)
 NPDir=0 NMtPBC=     1 NCelOv=     1 NCel=       1 NClECP=     1 NCelD=      1
         NCelK=      1 NCelE2=     1 NClLst=     1 CellRange=     0.0.
 One-electron integrals computed using PRISM.
 One-electron integral symmetry used in STVInt
 NBasis=    52 RedAO= T EigKep=  1.96D-02  NBF=    37    15
 NBsUse=    52 1.00D-06 EigRej= -1.00D+00 NBFU=    37    15
 Precomputing XC quadrature grid using
 IXCGrd= 4 IRadAn=           5 IRanWt=          -1 IRanGd=           0 AccXCQ= 0.00D+00.
 Generated NRdTot=       0 NPtTot=           0 NUsed=           0 NTot=          32
 NSgBfM=    55    55    55    55    55 MxSgAt=     6 MxSgA2=     6.
 Leave Link  302 at Wed Oct  7 13:16:50 2020, MaxMem=  2684354560 cpu:               3.6 elap:               0.8
 (Enter /udrive/faculty/rpeverati/g16/g16/l303.exe)
 DipDrv:  MaxL=1.
 Leave Link  303 at Wed Oct  7 13:16:50 2020, MaxMem=  2684354560 cpu:               1.3 elap:               0.4
 (Enter /udrive/faculty/rpeverati/g16/g16/l401.exe)
 Initial guess from the checkpoint file:  "MN_36_fch3clcomp2_BH76_BP86_631Gs.chk"
 SCF N**3 symmetry information disabled.
 B after Tr=    -0.000000    0.000000    0.000000
         Rot=    1.000000   -0.000000    0.000000    0.000000 Ang=   0.00 deg.
 Guess basis will be translated and rotated to current coordinates.
 JPrj=2 DoOrth=T DoCkMO=T.
 Initial guess orbital symmetries:
       Occupied  (A1) (A1) (A1) (A1) (A1) (E) (E) (A1) (A1) (A1)
                 (A1) (E) (E) (E) (E) (A1) (E) (E)
       Virtual   (A1) (A1) (E) (E) (A1) (A1) (E) (E) (E) (E) (A1)
                 (E) (E) (A1) (A1) (E) (E) (E) (E) (A1) (A1) (E)
                 (E) (E) (E) (E) (E) (A1) (A1) (E) (E) (E) (E)
                 (A1)
 The electronic state of the initial guess is 1-A1.
 Generating alternative initial guess.
 ExpMin= 1.43D-01 ExpMax= 2.52D+04 ExpMxC= 3.78D+03 IAcc=2 IRadAn=         4 AccDes= 0.00D+00
 Harris functional with IExCor=  404 and IRadAn=       4 diagonalized for initial guess.
 HarFok:  IExCor=  404 AccDes= 0.00D+00 IRadAn=         4 IDoV= 1 UseB2=F ITyADJ=14
 ICtDFT=  3500011 ScaDFX=  1.000000  1.000000  1.000000  1.000000
 FoFCou: FMM=F IPFlag=           0 FMFlag=      100000 FMFlg1=           0
         NFxFlg=           0 DoJE=T BraDBF=F KetDBF=T FulRan=T
         wScrn=  0.000000 ICntrl=       500 IOpCl=  0 I1Cent=   200000004 NGrid=           0
         NMat0=    1 NMatS0=      1 NMatT0=    0 NMatD0=    1 NMtDS0=    0 NMtDT0=    0
 Petite list used in FoFCou.
 Harris En= -600.115078682944    
 Leave Link  401 at Wed Oct  7 13:16:51 2020, MaxMem=  2684354560 cpu:               5.8 elap:               0.8
 (Enter /udrive/faculty/rpeverati/g16/g16/l502.exe)
 Keep J ints in memory in symmetry-blocked form, NReq=11461362.
 FoFCou: FMM=F IPFlag=           0 FMFlag=           0 FMFlg1=           0
         NFxFlg=           0 DoJE=F BraDBF=F KetDBF=F FulRan=T
         wScrn=  0.000000 ICntrl=       600 IOpCl=  0 I1Cent=           0 NGrid=           0
         NMat0=    1 NMatS0=   1378 NMatT0=    0 NMatD0=    1 NMtDS0=    0 NMtDT0=    0
 Petite list used in FoFCou.
 Closed shell SCF:
 Using DIIS extrapolation, IDIIS=  1040.
 NGot=  2684354560 LenX=  2683850115 LenY=  2683846649
 Requested convergence on RMS density matrix=1.00D-08 within 120 cycles.
 Requested convergence on MAX density matrix=1.00D-06.
 Requested convergence on             energy=1.00D-06.
 No special actions if energy rises.
 Integral accuracy reduced to 1.0D-05 until final iterations.

 Cycle   1  Pass 0  IDiag  1:
 E= -600.015901678532    
 DIIS: error= 2.41D-03 at cycle   1 NSaved=   1.
 NSaved= 1 IEnMin= 1 EnMin= -600.015901678532     IErMin= 1 ErrMin= 2.41D-03
 ErrMax= 2.41D-03  0.00D+00 EMaxC= 1.00D-01 BMatC= 1.68D-04 BMatP= 1.68D-04
 IDIUse=3 WtCom= 9.76D-01 WtEn= 2.41D-02
 Coeff-Com:  0.100D+01
 Coeff-En:   0.100D+01
 Coeff:      0.100D+01
 Gap=     0.205 Goal=   None    Shift=    0.000
 GapD=    0.205 DampG=1.000 DampE=1.000 DampFc=1.0000 IDamp=-1.
 RMSDP=3.81D-04 MaxDP=6.54D-03              OVMax= 6.41D-03

 Cycle   2  Pass 0  IDiag  1:
 E= -600.015968415406     Delta-E=       -0.000066736874 Rises=F Damp=F
 DIIS: error= 2.53D-03 at cycle   2 NSaved=   2.
 NSaved= 2 IEnMin= 2 EnMin= -600.015968415406     IErMin= 1 ErrMin= 2.41D-03
 ErrMax= 2.53D-03  0.00D+00 EMaxC= 1.00D-01 BMatC= 1.26D-04 BMatP= 1.68D-04
 IDIUse=3 WtCom= 9.75D-01 WtEn= 2.53D-02
 Coeff-Com:  0.455D+00 0.545D+00
 Coeff-En:   0.346D+00 0.654D+00
 Coeff:      0.453D+00 0.547D+00
 Gap=     0.201 Goal=   None    Shift=    0.000
 RMSDP=2.37D-04 MaxDP=4.00D-03 DE=-6.67D-05 OVMax= 4.16D-03

 Cycle   3  Pass 0  IDiag  1:
 E= -600.016072242192     Delta-E=       -0.000103826786 Rises=F Damp=F
 DIIS: error= 8.56D-04 at cycle   3 NSaved=   3.
 NSaved= 3 IEnMin= 3 EnMin= -600.016072242192     IErMin= 3 ErrMin= 8.56D-04
 ErrMax= 8.56D-04  0.00D+00 EMaxC= 1.00D-01 BMatC= 2.58D-05 BMatP= 1.26D-04
 IDIUse=3 WtCom= 9.91D-01 WtEn= 8.56D-03
 Coeff-Com:  0.637D-01 0.314D+00 0.622D+00
 Coeff-En:   0.000D+00 0.153D+00 0.847D+00
 Coeff:      0.632D-01 0.313D+00 0.624D+00
 Gap=     0.202 Goal=   None    Shift=    0.000
 RMSDP=7.00D-05 MaxDP=1.24D-03 DE=-1.04D-04 OVMax= 1.76D-03

 Cycle   4  Pass 0  IDiag  1:
 E= -600.016091939469     Delta-E=       -0.000019697277 Rises=F Damp=F
 DIIS: error= 3.19D-04 at cycle   4 NSaved=   4.
 NSaved= 4 IEnMin= 4 EnMin= -600.016091939469     IErMin= 4 ErrMin= 3.19D-04
 ErrMax= 3.19D-04  0.00D+00 EMaxC= 1.00D-01 BMatC= 3.55D-06 BMatP= 2.58D-05
 IDIUse=3 WtCom= 9.97D-01 WtEn= 3.19D-03
 Coeff-Com:  0.129D-01 0.168D+00 0.388D+00 0.431D+00
 Coeff-En:   0.000D+00 0.000D+00 0.000D+00 0.100D+01
 Coeff:      0.129D-01 0.167D+00 0.386D+00 0.433D+00
 Gap=     0.202 Goal=   None    Shift=    0.000
 RMSDP=2.82D-05 MaxDP=3.63D-04 DE=-1.97D-05 OVMax= 3.97D-04

 Cycle   5  Pass 0  IDiag  1:
 E= -600.016094399901     Delta-E=       -0.000002460432 Rises=F Damp=F
 DIIS: error= 1.65D-05 at cycle   5 NSaved=   5.
 NSaved= 5 IEnMin= 5 EnMin= -600.016094399901     IErMin= 5 ErrMin= 1.65D-05
 ErrMax= 1.65D-05  0.00D+00 EMaxC= 1.00D-01 BMatC= 1.35D-08 BMatP= 3.55D-06
 IDIUse=1 WtCom= 1.00D+00 WtEn= 0.00D+00
 Coeff-Com:  0.163D-02 0.339D-01 0.765D-01 0.120D+00 0.768D+00
 Coeff:      0.163D-02 0.339D-01 0.765D-01 0.120D+00 0.768D+00
 Gap=     0.202 Goal=   None    Shift=    0.000
 RMSDP=3.65D-06 MaxDP=5.70D-05 DE=-2.46D-06 OVMax= 5.01D-05

 Initial convergence to 1.0D-05 achieved.  Increase integral accuracy.
 Cycle   6  Pass 1  IDiag  1:
 E= -600.016097038066     Delta-E=       -0.000002638165 Rises=F Damp=F
 DIIS: error= 1.32D-05 at cycle   1 NSaved=   1.
 NSaved= 1 IEnMin= 1 EnMin= -600.016097038066     IErMin= 1 ErrMin= 1.32D-05
 ErrMax= 1.32D-05  0.00D+00 EMaxC= 1.00D-01 BMatC= 5.81D-09 BMatP= 5.81D-09
 IDIUse=1 WtCom= 1.00D+00 WtEn= 0.00D+00
 Coeff-Com:  0.100D+01
 Coeff:      0.100D+01
 Gap=     0.202 Goal=   None    Shift=    0.000
 RMSDP=3.65D-06 MaxDP=5.70D-05 DE=-2.64D-06 OVMax= 5.44D-05

 Cycle   7  Pass 1  IDiag  1:
 E= -600.016097040249     Delta-E=       -0.000000002183 Rises=F Damp=F
 DIIS: error= 1.15D-05 at cycle   2 NSaved=   2.
 NSaved= 2 IEnMin= 2 EnMin= -600.016097040249     IErMin= 2 ErrMin= 1.15D-05
 ErrMax= 1.15D-05  0.00D+00 EMaxC= 1.00D-01 BMatC= 4.83D-09 BMatP= 5.81D-09
 IDIUse=1 WtCom= 1.00D+00 WtEn= 0.00D+00
 Coeff-Com:  0.474D+00 0.526D+00
 Coeff:      0.474D+00 0.526D+00
 Gap=     0.202 Goal=   None    Shift=    0.000
 RMSDP=2.55D-06 MaxDP=4.55D-05 DE=-2.18D-09 OVMax= 3.94D-05

 Cycle   8  Pass 1  IDiag  1:
 E= -600.016097046055     Delta-E=       -0.000000005806 Rises=F Damp=F
 DIIS: error= 2.01D-06 at cycle   3 NSaved=   3.
 NSaved= 3 IEnMin= 3 EnMin= -600.016097046055     IErMin= 3 ErrMin= 2.01D-06
 ErrMax= 2.01D-06  0.00D+00 EMaxC= 1.00D-01 BMatC= 2.57D-10 BMatP= 4.83D-09
 IDIUse=1 WtCom= 1.00D+00 WtEn= 0.00D+00
 Coeff-Com:  0.498D-01 0.201D+00 0.749D+00
 Coeff:      0.498D-01 0.201D+00 0.749D+00
 Gap=     0.202 Goal=   None    Shift=    0.000
 RMSDP=4.17D-07 MaxDP=6.10D-06 DE=-5.81D-09 OVMax= 6.19D-06

 Cycle   9  Pass 1  IDiag  1:
 E= -600.016097046270     Delta-E=       -0.000000000215 Rises=F Damp=F
 DIIS: error= 1.36D-06 at cycle   4 NSaved=   4.
 NSaved= 4 IEnMin= 4 EnMin= -600.016097046270     IErMin= 4 ErrMin= 1.36D-06
 ErrMax= 1.36D-06  0.00D+00 EMaxC= 1.00D-01 BMatC= 7.02D-11 BMatP= 2.57D-10
 IDIUse=1 WtCom= 1.00D+00 WtEn= 0.00D+00
 Coeff-Com:  0.784D-02 0.104D+00 0.478D+00 0.410D+00
 Coeff:      0.784D-02 0.104D+00 0.478D+00 0.410D+00
 Gap=     0.202 Goal=   None    Shift=    0.000
 RMSDP=1.20D-07 MaxDP=1.76D-06 DE=-2.15D-10 OVMax= 2.11D-06

 Cycle  10  Pass 1  IDiag  1:
 E= -600.016097046318     Delta-E=       -0.000000000048 Rises=F Damp=F
 DIIS: error= 1.58D-07 at cycle   5 NSaved=   5.
 NSaved= 5 IEnMin= 5 EnMin= -600.016097046318     IErMin= 5 ErrMin= 1.58D-07
 ErrMax= 1.58D-07  0.00D+00 EMaxC= 1.00D-01 BMatC= 6.59D-13 BMatP= 7.02D-11
 IDIUse=1 WtCom= 1.00D+00 WtEn= 0.00D+00
 Coeff-Com:  0.327D-02 0.499D-01 0.232D+00 0.214D+00 0.501D+00
 Coeff:      0.327D-02 0.499D-01 0.232D+00 0.214D+00 0.501D+00
 Gap=     0.202 Goal=   None    Shift=    0.000
 RMSDP=1.46D-08 MaxDP=2.29D-07 DE=-4.76D-11 OVMax= 2.61D-07

 Cycle  11  Pass 1  IDiag  1:
 E= -600.016097046317     Delta-E=        0.000000000000 Rises=F Damp=F
 DIIS: error= 3.71D-08 at cycle   6 NSaved=   6.
 NSaved= 6 IEnMin= 5 EnMin= -600.016097046318     IErMin= 6 ErrMin= 3.71D-08
 ErrMax= 3.71D-08  0.00D+00 EMaxC= 1.00D-01 BMatC= 3.02D-14 BMatP= 6.59D-13
 IDIUse=1 WtCom= 1.00D+00 WtEn= 0.00D+00
 Coeff-Com:  0.850D-03 0.139D-01 0.651D-01 0.623D-01 0.230D+00 0.628D+00
 Coeff:      0.850D-03 0.139D-01 0.651D-01 0.623D-01 0.230D+00 0.628D+00
 Gap=     0.202 Goal=   None    Shift=    0.000
 RMSDP=3.05D-09 MaxDP=5.08D-08 DE= 4.55D-13 OVMax= 4.70D-08

 SCF Done:  E(RB-P86) =  -600.016097046     A.U. after   11 cycles
            NFock= 11  Conv=0.31D-08     -V/T= 2.0031
 KE= 5.981782515760D+02 PE=-1.592752237022D+03 EE= 3.152368906352D+02
 Leave Link  502 at Wed Oct  7 13:16:54 2020, MaxMem=  2684354560 cpu:              18.1 elap:               2.0
 (Enter /udrive/faculty/rpeverati/g16/g16/l508.exe)
 QCSCF skips out because SCF is already converged.
 Leave Link  508 at Wed Oct  7 13:16:54 2020, MaxMem=  2684354560 cpu:               0.3 elap:               0.5
 (Enter /udrive/faculty/rpeverati/g16/g16/l701.exe)
 ... and contract with generalized density number  0.
 Compute integral first derivatives.
 Leave Link  701 at Wed Oct  7 13:16:55 2020, MaxMem=  2684354560 cpu:               4.5 elap:               0.7
 (Enter /udrive/faculty/rpeverati/g16/g16/l702.exe)
 L702 exits ... SP integral derivatives will be done elsewhere.
 Leave Link  702 at Wed Oct  7 13:16:56 2020, MaxMem=  2684354560 cpu:               1.5 elap:               0.6
 (Enter /udrive/faculty/rpeverati/g16/g16/l703.exe)
 Integral derivatives from FoFJK, PRISM(SPDF).
 Compute integral first derivatives, UseDBF=F ICtDFT=           0.
 Calling FoFJK, ICntrl=      2527 FMM=F ISym2X=1 I1Cent= 0 IOpClX= 0 NMat=1 NMatS=1 NMatT=0.
 FoFJK:  IHMeth= 1 ICntrl=    2527 DoSepK=F KAlg= 0 I1Cent=           0 FoldK=F
 IRaf=         0 NMat=       1 IRICut=       1 DoRegI=T DoRafI=F ISym2E= 1 IDoP0=0 IntGTp=1.
 FoFCou: FMM=F IPFlag=           0 FMFlag=      100000 FMFlg1=         800
         NFxFlg=           0 DoJE=F BraDBF=F KetDBF=F FulRan=T
         wScrn=  0.000000 ICntrl=      2527 IOpCl=  0 I1Cent=           0 NGrid=           0
         NMat0=    1 NMatS0=      1 NMatT0=    0 NMatD0=    1 NMtDS0=    0 NMtDT0=    0
 Petite list used in FoFCou.
 Leave Link  703 at Wed Oct  7 13:16:57 2020, MaxMem=  2684354560 cpu:               8.3 elap:               1.0
 (Enter /udrive/faculty/rpeverati/g16/g16/l716.exe)
 Dipole        = 0.00000000D+00-1.11022302D-16-2.56325520D+00
 ***** Axes restored to original set *****
 -------------------------------------------------------------------
 Center     Atomic                   Forces (Hartrees/Bohr)
 Number     Number              X              Y              Z
 -------------------------------------------------------------------
      1        9           0.000000000   -0.000000000   -0.000053480
      2        6          -0.000000000    0.000000000   -0.002436497
      3        1           0.000118335   -0.000204963    0.001057455
      4        1           0.000118335    0.000204963    0.001057455
      5        1          -0.000236671    0.000000000    0.001057455
      6       17           0.000000000    0.000000000   -0.000682388
 -------------------------------------------------------------------
 Cartesian Forces:  Max     0.002436497 RMS     0.000742657
 Leave Link  716 at Wed Oct  7 13:16:58 2020, MaxMem=  2684354560 cpu:               1.0 elap:               0.5
 (Enter /udrive/faculty/rpeverati/g16/g16/l103.exe)

 GradGradGradGradGradGradGradGradGradGradGradGradGradGradGradGradGradGrad
 Berny optimization.
 Optmz: redundant internal coordinate code flag= 1
 Using GEDIIS/GDIIS optimizer.
 Red2BG:  D1=  6.64D-01 OD1=  8.92D-02 B2RMS=  0.00D+00 IAprox=0
 FormGI is forming the generalized inverse of G from B-inverse, IUseBI=4.
 Internal  Forces:  Max     0.000347980 RMS     0.000227216
 Search for a local minimum.
 Step number   2 out of a maximum of  100
 All quantities printed in internal units (Hartrees-Bohrs-Radians)
 RMS Force = .22722D-03 SwitMx=.10000D-02 MixMth= 2
 Mixed Optimization -- En-DIIS/RFO-DIIS
 Update second derivatives using D2CorX and points    1    2
 DE= -8.91D-04 DEPred=-8.57D-04 R= 1.04D+00
 TightC=F SS=  1.41D+00  RLast= 8.47D-02 DXNew= 5.0454D-01 2.5418D-01
 Trust test= 1.04D+00 RLast= 8.47D-02 DXMaxT set to 3.00D-01
 The second derivative matrix:
                          R1        R2        R3        R4        R5
           R1           0.44683
           R2          -0.00335   0.34527
           R3          -0.00335  -0.00981   0.34527
           R4          -0.00335  -0.00981  -0.00981   0.34527
           R5           0.00402   0.00363   0.00363   0.00363   0.01301
           R6           0.00402   0.00363   0.00363   0.00363   0.00010
           R7           0.00402   0.00363   0.00363   0.00363   0.00010
           A1          -0.00612  -0.00665  -0.00665  -0.00665   0.00046
           A2          -0.00612  -0.00665  -0.00665  -0.00665   0.00046
           A3          -0.00612  -0.00665  -0.00665  -0.00665   0.00046
           A4           0.00629   0.00679   0.00679   0.00679  -0.00046
           A5           0.00629   0.00679   0.00679   0.00679  -0.00046
           A6           0.00629   0.00679   0.00679   0.00679  -0.00046
           A7          -0.01852  -0.01760  -0.01760  -0.01760   0.00003
           A8          -0.01852  -0.01760  -0.01760  -0.01760   0.00003
           A9          -0.01852  -0.01760  -0.01760  -0.01760   0.00003
           A10          0.01202   0.00986   0.00986   0.00986   0.00083
           A11          0.01202   0.00986   0.00986   0.00986   0.00083
           A12          0.01202   0.00986   0.00986   0.00986   0.00083
           D1           0.00000   0.00000   0.00000   0.00000  -0.00000
           D2          -0.01032  -0.00908  -0.00908  -0.00908  -0.00038
           D3           0.01032   0.00908   0.00908   0.00908   0.00038
           D4           0.00000   0.00000   0.00000   0.00000  -0.00000
           D5           0.01032   0.00908   0.00908   0.00908   0.00038
           D6          -0.01032  -0.00908  -0.00908  -0.00908  -0.00038
           D7          -0.00000  -0.00000  -0.00000  -0.00000  -0.00000
           D8          -0.01032  -0.00908  -0.00908  -0.00908  -0.00038
           D9           0.01032   0.00908   0.00908   0.00908   0.00038
           D10         -0.00192  -0.00170  -0.00170  -0.00170  -0.00007
           D11          0.00192   0.00170   0.00170   0.00170   0.00007
           D12          0.00192   0.00170   0.00170   0.00170   0.00007
           D13         -0.00192  -0.00170  -0.00170  -0.00170  -0.00007
           D14         -0.00192  -0.00170  -0.00170  -0.00170  -0.00007
           D15          0.00192   0.00170   0.00170   0.00170   0.00007
                          R6        R7        A1        A2        A3
           R6           0.01301
           R7           0.00010   0.01301
           A1           0.00046   0.00046   0.15826
           A2           0.00046   0.00046  -0.00174   0.15826
           A3           0.00046   0.00046  -0.00174  -0.00174   0.15826
           A4          -0.00046  -0.00046   0.00176   0.00176   0.00176
           A5          -0.00046  -0.00046   0.00176   0.00176   0.00176
           A6          -0.00046  -0.00046   0.00176   0.00176   0.00176
           A7           0.00003   0.00003  -0.00297  -0.00297  -0.00297
           A8           0.00003   0.00003  -0.00297  -0.00297  -0.00297
           A9           0.00003   0.00003  -0.00297  -0.00297  -0.00297
           A10          0.00083   0.00083   0.00048   0.00048   0.00048
           A11          0.00083   0.00083   0.00048   0.00048   0.00048
           A12          0.00083   0.00083   0.00048   0.00048   0.00048
           D1          -0.00000  -0.00000   0.00000   0.00000   0.00000
           D2          -0.00038  -0.00038  -0.00098  -0.00098  -0.00098
           D3           0.00038   0.00038   0.00098   0.00098   0.00098
           D4          -0.00000  -0.00000   0.00000   0.00000   0.00000
           D5           0.00038   0.00038   0.00098   0.00098   0.00098
           D6          -0.00038  -0.00038  -0.00098  -0.00098  -0.00098
           D7          -0.00000  -0.00000  -0.00000  -0.00000  -0.00000
           D8          -0.00038  -0.00038  -0.00098  -0.00098  -0.00098
           D9           0.00038   0.00038   0.00098   0.00098   0.00098
           D10         -0.00007  -0.00007  -0.00019  -0.00019  -0.00019
           D11          0.00007   0.00007   0.00019   0.00019   0.00019
           D12          0.00007   0.00007   0.00019   0.00019   0.00019
           D13         -0.00007  -0.00007  -0.00019  -0.00019  -0.00019
           D14         -0.00007  -0.00007  -0.00019  -0.00019  -0.00019
           D15          0.00007   0.00007   0.00019   0.00019   0.00019
                          A4        A5        A6        A7        A8
           A4           0.15823
           A5          -0.00177   0.15823
           A6          -0.00177  -0.00177   0.15823
           A7           0.00295   0.00295   0.00295   0.24751
           A8           0.00295   0.00295   0.00295  -0.00249   0.24751
           A9           0.00295   0.00295   0.00295  -0.00249  -0.00249
           A10         -0.00044  -0.00044  -0.00044  -0.00244  -0.00244
           A11         -0.00044  -0.00044  -0.00044  -0.00244  -0.00244
           A12         -0.00044  -0.00044  -0.00044  -0.00244  -0.00244
           D1          -0.00000  -0.00000  -0.00000   0.00000   0.00000
           D2           0.00095   0.00095   0.00095   0.00051   0.00051
           D3          -0.00095  -0.00095  -0.00095  -0.00051  -0.00051
           D4          -0.00000  -0.00000  -0.00000   0.00000   0.00000
           D5          -0.00095  -0.00095  -0.00095  -0.00051  -0.00051
           D6           0.00095   0.00095   0.00095   0.00051   0.00051
           D7           0.00000   0.00000   0.00000   0.00000   0.00000
           D8           0.00095   0.00095   0.00095   0.00051   0.00051
           D9          -0.00095  -0.00095  -0.00095  -0.00051  -0.00051
           D10          0.00018   0.00018   0.00018   0.00008   0.00008
           D11         -0.00018  -0.00018  -0.00018  -0.00008  -0.00008
           D12         -0.00018  -0.00018  -0.00018  -0.00008  -0.00008
           D13          0.00018   0.00018   0.00018   0.00008   0.00008
           D14          0.00018   0.00018   0.00018   0.00008   0.00008
           D15         -0.00018  -0.00018  -0.00018  -0.00008  -0.00008
                          A9        A10       A11       A12       D1
           A9           0.24751
           A10         -0.00244   0.16401
           A11         -0.00244   0.00401   0.16401
           A12         -0.00244   0.00401   0.00401   0.16401
           D1           0.00000   0.00000   0.00000   0.00000   0.00313
           D2           0.00051  -0.00250  -0.00250  -0.00250  -0.00000
           D3          -0.00051   0.00250   0.00250   0.00250   0.00000
           D4           0.00000   0.00000   0.00000   0.00000  -0.00000
           D5          -0.00051   0.00250   0.00250   0.00250   0.00000
           D6           0.00051  -0.00250  -0.00250  -0.00250  -0.00000
           D7           0.00000  -0.00000  -0.00000  -0.00000  -0.00000
           D8           0.00051  -0.00250  -0.00250  -0.00250  -0.00000
           D9          -0.00051   0.00250   0.00250   0.00250   0.00000
           D10          0.00008  -0.00046  -0.00046  -0.00046  -0.00000
           D11         -0.00008   0.00046   0.00046   0.00046   0.00000
           D12         -0.00008   0.00046   0.00046   0.00046   0.00000
           D13          0.00008  -0.00046  -0.00046  -0.00046  -0.00000
           D14          0.00008  -0.00046  -0.00046  -0.00046  -0.00000
           D15         -0.00008   0.00046   0.00046   0.00046   0.00000
                          D2        D3        D4        D5        D6
           D2           0.00443
           D3          -0.00130   0.00443
           D4          -0.00000   0.00000   0.00313
           D5          -0.00130   0.00130   0.00000   0.00443
           D6           0.00130  -0.00130  -0.00000  -0.00130   0.00443
           D7           0.00000  -0.00000  -0.00000  -0.00000   0.00000
           D8           0.00130  -0.00130  -0.00000  -0.00130   0.00130
           D9          -0.00130   0.00130   0.00000   0.00130  -0.00130
           D10          0.00024  -0.00024  -0.00000  -0.00024   0.00024
           D11         -0.00024   0.00024   0.00000   0.00024  -0.00024
           D12         -0.00024   0.00024   0.00000   0.00024  -0.00024
           D13          0.00024  -0.00024  -0.00000  -0.00024   0.00024
           D14          0.00024  -0.00024  -0.00000  -0.00024   0.00024
           D15         -0.00024   0.00024   0.00000   0.00024  -0.00024
                          D7        D8        D9        D10       D11
           D7           0.00313
           D8           0.00000   0.00443
           D9          -0.00000  -0.00130   0.00443
           D10          0.00000   0.00024  -0.00024   0.00234
           D11         -0.00000  -0.00024   0.00024  -0.00004   0.00234
           D12         -0.00000  -0.00024   0.00024  -0.00004   0.00004
           D13          0.00000   0.00024  -0.00024   0.00004  -0.00004
           D14          0.00000   0.00024  -0.00024   0.00004  -0.00004
           D15         -0.00000  -0.00024   0.00024  -0.00004   0.00004
                          D12       D13       D14       D15
           D12          0.00234
           D13         -0.00004   0.00234
           D14         -0.00004   0.00004   0.00234
           D15          0.00004  -0.00004  -0.00004   0.00234
 ITU=  1  0
 Use linear search instead of GDIIS.
 Eigenvectors of the second derivative matrix:
                           1         2         3         4         5
[...]
  14         A7        -0.05322  -0.04435  -0.16956   0.09572  -0.08572
  15         A8         0.04308  -0.12467   0.12319  -0.12210  -0.04003
  16         A9         0.01013   0.16902   0.04637   0.02638   0.12575
  17         A10        0.01495   0.04569   0.01254   0.02311   0.11015
  18         A11        0.06357  -0.03370   0.03330  -0.10694  -0.03506
  19         A12       -0.07852  -0.01199  -0.04584   0.08384  -0.07508
  20         D1        -0.13631  -0.30784   0.08052  -0.00078  -0.00087
  21         D2        -0.06765  -0.00973  -0.10168  -0.00234  -0.00166
  22         D3         0.17716   0.04130   0.09342  -0.00139  -0.00251
  23         D4        -0.26206   0.22365   0.22634  -0.00037   0.00111
  24         D5         0.00617   0.06025  -0.08248  -0.00148   0.00246
  25         D6         0.20437  -0.08319   0.05927  -0.00027   0.00286
  26         D7         0.39837   0.08419  -0.30686   0.00115  -0.00024
  27         D8        -0.13672   0.09292   0.04241   0.00261  -0.00120
  28         D9        -0.18333  -0.10156  -0.01094   0.00287   0.00005
  29         D10        0.04069   0.14161   0.03300  -0.19027   0.02879
  30         D11       -0.18390   0.10732  -0.09811   0.04952  -0.18596
  31         D12       -0.04675  -0.13862  -0.04388  -0.18581   0.05010
  32         D13       -0.22858  -0.04223  -0.13914   0.12007   0.15039
  33         D14        0.18788  -0.09938   0.10614   0.07020  -0.17918
  34         D15        0.23065   0.03131   0.14199   0.13629   0.13586
                          11        12
     Eigenvalues --     0.33753   0.42453
   1         R1         0.16503   0.97038
   2         R2         0.54065  -0.08781
   3         R3         0.54065  -0.08781
   4         R4         0.54065  -0.08781
   5         R5         0.02185   0.00685
   6         R6         0.02185   0.00685
   7         R7         0.02185   0.00685
   8         A1         0.02018   0.03763
   9         A2         0.02018   0.03763
  10         A3         0.02018   0.03763
  11         A4        -0.02076  -0.03872
  12         A5        -0.02076  -0.03872
  13         A6        -0.02076  -0.03872
  14         A7        -0.07079   0.05861
  15         A8        -0.07079   0.05861
  16         A9        -0.07079   0.05861
  17         A10        0.15499  -0.03574
  18         A11        0.15499  -0.03574
  19         A12        0.15499  -0.03574
  20         D1        -0.00000  -0.00000
  21         D2        -0.02412  -0.04497
  22         D3         0.02412   0.04497
  23         D4        -0.00000   0.00000
  24         D5         0.02412   0.04497
  25         D6        -0.02412  -0.04497
  26         D7         0.00000   0.00000
  27         D8        -0.02412  -0.04497
  28         D9         0.02412   0.04497
  29         D10       -0.01487   0.00343
  30         D11        0.01487  -0.00343
  31         D12        0.01487  -0.00343
  32         D13       -0.01487   0.00343
  33         D14       -0.01487   0.00343
  34         D15        0.01487  -0.00343
 DoSqrt=T IScMMF=    -3 MM Scaling Factor =       0.00000
 En-DIIS/RFO-DIIS/Sim-DIIS IScMMF=       -3 using points:     7    6    5    4    3    2
 Iter=   1 RLamda=-4.68287734D-02 Sum=-7.26778823D-08.
 Iter=   2 RLamda=-7.26778823D-08 Sum=-9.71787048D-08.
 Iter=   3 RLamda=-9.71787048D-08 Sum=-9.71786793D-08.
 RFO step:  Lambda=-9.71787048D-08.
 NNeg= 0 NGDIIS= 6 SimSw=  2.50D-01 Rises=F DC= -3.70D-07 SmlDif=  1.00D-05
 NRisDI= 0 DoIntr=F SqrtH=F CThrHd= 10.0 CDAdj=  3.0
 RMS Error=  0.1750527930D-03 NUsed= 6 OKEnD=F EnDIS=F
 Total RFO-DIIS matrix:
                 1             2             3             4             5 
      1   0.000000D+00 -0.100000D+01 -0.100000D+01 -0.100000D+01 -0.100000D+01
      2  -0.100000D+01  0.104188D-05  0.153557D-05 -0.976138D-06 -0.871452D-05
      3  -0.100000D+01  0.153557D-05  0.411331D-04  0.128161D-03  0.270956D-03
      4  -0.100000D+01 -0.976138D-06  0.128161D-03  0.433375D-03  0.955399D-03
      5  -0.100000D+01 -0.871452D-05  0.270956D-03  0.955399D-03  0.214830D-02
      6  -0.100000D+01 -0.468986D-04  0.579340D-03  0.221550D-02  0.515124D-02
      7  -0.100000D+01 -0.691820D-04  0.724218D-03  0.283493D-02  0.664891D-02
                 6             7 
      1  -0.100000D+01 -0.100000D+01
      2  -0.468986D-04 -0.691820D-04
      3   0.579340D-03  0.724218D-03
      4   0.221550D-02  0.283493D-02
      5   0.515124D-02  0.664891D-02
      6   0.131935D-01  0.173368D-01
      7   0.173368D-01  0.228913D-01
 InvSVX:  RCond= 2.08D-21 Info=           8 Equed=N FErr=  0.00D+00 BErr=  0.00D+00
 DIIS inversion failure, remove point   6.
 InvSVX:  RCond= 2.28D-10 Info=           0 Equed=N FErr=  1.60D-10 BErr=  3.37D-17
 DIIS inversion failure, remove point   5.
 InvSVX:  RCond= 3.31D-09 Info=           0 Equed=N FErr=  5.02D-12 BErr=  1.07D-16
 DIIS inversion failure, remove point   4.
 InvSVX:  RCond= 1.97D-07 Info=           0 Equed=N FErr=  4.60D-14 BErr=  5.65D-17
 RFO-DIIS uses    3 points instead of    6
 DidBck=F Rises=F RFO-DIIS coefs:    1.64625   -0.92297    0.27672    0.00000    0.00000
                  RFO-DIIS coefs:    0.00000
 Iteration  1 RMS(Cart)=  0.00008930 RMS(Int)=  0.00000022
 Iteration  2 RMS(Cart)=  0.00000001 RMS(Int)=  0.00000022
 ITry= 1 IFail=0 DXMaxC= 2.94D-04 DCOld= 1.00D+10 DXMaxT= 3.00D-01 DXLimC= 3.00D+00 Rises=F
 ClnCor:  largest displacement from symmetrization is 1.10D-08 for atom     1.
 Variable       Old X    -DE/DX   Delta X   Delta X   Delta X     New X
                                 (Linear)    (Quad)   (Total)
    R1        2.68596   0.00017   0.00043   0.00015   0.00058   2.68655
    R2        2.08192   0.00001   0.00002  -0.00002   0.00000   2.08193
    R3        2.08192   0.00001   0.00002  -0.00002   0.00000   2.08193
    R4        2.08192   0.00001   0.00002  -0.00002   0.00000   2.08193
    R5        5.67913   0.00000   0.00028  -0.00000   0.00028   5.67941
    R6        5.67913   0.00000   0.00028  -0.00000   0.00028   5.67941
    R7        5.67913   0.00000   0.00028  -0.00000   0.00028   5.67941
    A1        1.92441  -0.00000  -0.00020   0.00001  -0.00018   1.92422
    A2        1.92441  -0.00000  -0.00020   0.00001  -0.00018   1.92422
    A3        1.92441  -0.00000  -0.00020   0.00001  -0.00018   1.92422
    A4        1.89666   0.00000   0.00020  -0.00001   0.00019   1.89685
    A5        1.89666   0.00000   0.00020  -0.00001   0.00019   1.89685
    A6        1.89666   0.00000   0.00020  -0.00001   0.00019   1.89685
    A7        1.57333  -0.00000  -0.00021   0.00002  -0.00019   1.57314
    A8        1.57333  -0.00000  -0.00021   0.00002  -0.00019   1.57314
    A9        1.57333  -0.00000  -0.00021   0.00002  -0.00019   1.57314
   A10        0.60485   0.00000   0.00002  -0.00001   0.00001   0.60486
   A11        0.60485   0.00000   0.00002  -0.00001   0.00001   0.60486
   A12        0.60485   0.00000   0.00002  -0.00001   0.00001   0.60486
    D1        3.14159   0.00000   0.00000   0.00000  -0.00000   3.14159
    D2        1.03053   0.00000   0.00024  -0.00002   0.00022   1.03075
    D3       -1.03053  -0.00000  -0.00024   0.00002  -0.00022  -1.03075
    D4        3.14159   0.00000  -0.00000  -0.00000   0.00000  -3.14159
    D5       -1.03053  -0.00000  -0.00024   0.00002  -0.00022  -1.03075
    D6        1.03053   0.00000   0.00024  -0.00002   0.00022   1.03075
    D7        3.14159  -0.00000  -0.00000  -0.00000   0.00000   3.14159
    D8        1.03053   0.00000   0.00024  -0.00002   0.00022   1.03075
    D9       -1.03053  -0.00000  -0.00024   0.00002  -0.00022  -1.03075
   D10       -0.55127  -0.00000  -0.00000   0.00000  -0.00000  -0.55127
   D11        0.55127   0.00000   0.00000  -0.00000   0.00000   0.55127
   D12        0.55127   0.00000   0.00000  -0.00000   0.00000   0.55127
   D13       -0.55127  -0.00000  -0.00000   0.00000  -0.00000  -0.55127
   D14       -0.55127  -0.00000  -0.00000   0.00000  -0.00000  -0.55127
   D15        0.55127   0.00000   0.00000  -0.00000   0.00000   0.55127
         Item               Value     Threshold  Converged?
 Maximum Force            0.000165     0.000450     YES
 RMS     Force            0.000029     0.000300     YES
 Maximum Displacement     0.000294     0.001800     YES
 RMS     Displacement     0.000089     0.001200     YES
 Predicted change in Energy=-4.762410D-08
 Optimization completed.
    -- Stationary point found.
                           ----------------------------
                           !   Optimized Parameters   !
                           ! (Angstroms and Degrees)  !
 --------------------------                            --------------------------
 ! Name  Definition              Value          Derivative Info.                !
 --------------------------------------------------------------------------------
 ! R1    R(1,2)                  1.4214         -DE/DX =    0.0002              !
 ! R2    R(2,3)                  1.1017         -DE/DX =    0.0                 !
 ! R3    R(2,4)                  1.1017         -DE/DX =    0.0                 !
 ! R4    R(2,5)                  1.1017         -DE/DX =    0.0                 !
 ! R5    R(3,6)                  3.0053         -DE/DX =    0.0                 !
 ! R6    R(4,6)                  3.0053         -DE/DX =    0.0                 !
 ! R7    R(5,6)                  3.0053         -DE/DX =    0.0                 !
 ! A1    A(1,2,3)              110.2604         -DE/DX =    0.0                 !
 ! A2    A(1,2,4)              110.2604         -DE/DX =    0.0                 !
 ! A3    A(1,2,5)              110.2604         -DE/DX =    0.0                 !
 ! A4    A(3,2,4)              108.6707         -DE/DX =    0.0                 !
 ! A5    A(3,2,5)              108.6707         -DE/DX =    0.0                 !
 ! A6    A(4,2,5)              108.6707         -DE/DX =    0.0                 !
 ! A7    A(2,3,6)               90.145          -DE/DX =    0.0                 !
 ! A8    A(2,4,6)               90.145          -DE/DX =    0.0                 !
 ! A9    A(2,5,6)               90.145          -DE/DX =    0.0                 !
 ! A10   A(3,6,4)               34.6553         -DE/DX =    0.0                 !
 ! A11   A(3,6,5)               34.6553         -DE/DX =    0.0                 !
 ! A12   A(4,6,5)               34.6553         -DE/DX =    0.0                 !
 ! D1    D(1,2,3,6)            180.0            -DE/DX =    0.0                 !
 ! D2    D(4,2,3,6)             59.0452         -DE/DX =    0.0                 !
 ! D3    D(5,2,3,6)            -59.0452         -DE/DX =    0.0                 !
 ! D4    D(1,2,4,6)           -180.0            -DE/DX =    0.0                 !
 ! D5    D(3,2,4,6)            -59.0452         -DE/DX =    0.0                 !
 ! D6    D(5,2,4,6)             59.0452         -DE/DX =    0.0                 !
 ! D7    D(1,2,5,6)            180.0            -DE/DX =    0.0                 !
 ! D8    D(3,2,5,6)             59.0452         -DE/DX =    0.0                 !
 ! D9    D(4,2,5,6)            -59.0452         -DE/DX =    0.0                 !
 ! D10   D(2,3,6,4)            -31.5855         -DE/DX =    0.0                 !
 ! D11   D(2,3,6,5)             31.5855         -DE/DX =    0.0                 !
 ! D12   D(2,4,6,3)             31.5855         -DE/DX =    0.0                 !
 ! D13   D(2,4,6,5)            -31.5855         -DE/DX =    0.0                 !
 ! D14   D(2,5,6,3)            -31.5855         -DE/DX =    0.0                 !
 ! D15   D(2,5,6,4)             31.5855         -DE/DX =    0.0                 !
 --------------------------------------------------------------------------------
 Lowest energy point so far.  Saving SCF results.
 Largest change from initial coordinates is atom    4       0.016 Angstoms.
 GradGradGradGradGradGradGradGradGradGradGradGradGradGradGradGradGradGrad

 Leave Link  103 at Wed Oct  7 13:17:59 2020, MaxMem=  2684354560 cpu:               3.8 elap:               0.8
 (Enter /udrive/faculty/rpeverati/g16/g16/l202.exe)
                          Input orientation:                          
 ---------------------------------------------------------------------
 Center     Atomic      Atomic             Coordinates (Angstroms)
 Number     Number       Type             X           Y           Z
 ---------------------------------------------------------------------
      1          9           0        0.000000   -0.000000   -1.909122
      2          6           0        0.000000   -0.000000   -0.487771
      3          1           0       -0.516772    0.895075   -0.106264
      4          1           0       -0.516772   -0.895075   -0.106264
      5          1           0        1.033543   -0.000000   -0.106264
      6         17           0        0.000000   -0.000000    2.715687
 ---------------------------------------------------------------------
                    Distance matrix (angstroms):
                    1          2          3          4          5
     1  F    0.000000
     2  C    1.421351   0.000000
     3  H    2.078102   1.101707   0.000000
     4  H    2.078102   1.101707   1.790149   0.000000
     5  H    2.078102   1.101707   1.790149   1.790149   0.000000
     6  Cl   4.624809   3.203458   3.005265   3.005265   3.005265
                    6
     6  Cl   0.000000
 Stoichiometry    CH3ClF(1-)
 Framework group  C3V[C3(FCCl),3SGV(H)]
 Deg. of freedom     4
 Full point group                 C3V     NOp   6
 RotChk:  IX=0 Diff= 0.00D+00
 Largest Abelian subgroup         CS      NOp   2
 Largest concise Abelian subgroup CS      NOp   2
                         Standard orientation:                         
 ---------------------------------------------------------------------
 Center     Atomic      Atomic             Coordinates (Angstroms)
 Number     Number       Type             X           Y           Z
 ---------------------------------------------------------------------
      1          9           0        0.000000    0.000000   -2.644527
      2          6           0        0.000000    0.000000   -1.223175
      3          1           0       -0.000000    1.033543   -0.841669
      4          1           0       -0.895075   -0.516772   -0.841669
      5          1           0        0.895075   -0.516772   -0.841669
      6         17           0        0.000000    0.000000    1.980282
 ---------------------------------------------------------------------
 Rotational constants (GHZ):         156.4781197           1.7327603           1.7327603
 Leave Link  202 at Wed Oct  7 13:18:00 2020, MaxMem=  2684354560 cpu:               1.2 elap:               0.5
 (Enter /udrive/faculty/rpeverati/g16/g16/l601.exe)
 Copying SCF densities to generalized density rwf, IOpCl= 0 IROHF=0.

 **********************************************************************

            Population analysis using the SCF density.

 **********************************************************************

 Orbital symmetries:
       Occupied  (A1) (A1) (A1) (A1) (A1) (E) (E) (A1) (A1) (A1)
                 (A1) (E) (E) (E) (E) (A1) (E) (E)
       Virtual   (A1) (A1) (E) (E) (A1) (A1) (E) (E) (E) (E) (A1)
                 (E) (E) (A1) (A1) (E) (E) (E) (E) (A1) (A1) (E)
                 (E) (E) (E) (E) (E) (A1) (A1) (E) (E) (E) (E)
                 (A1)
 The electronic state is 1-A1.
 Alpha  occ. eigenvalues -- -100.38996 -24.10991  -9.80342  -8.84773  -6.66615
 Alpha  occ. eigenvalues --   -6.66561  -6.66561  -0.91088  -0.46056  -0.39198
 Alpha  occ. eigenvalues --   -0.26199  -0.24796  -0.24796  -0.12310  -0.12310
 Alpha  occ. eigenvalues --    0.02470   0.02753   0.02753
 Alpha virt. eigenvalues --    0.23311   0.26314   0.30179   0.30179   0.57392
 Alpha virt. eigenvalues --    0.64980   0.65893   0.65893   0.69407   0.69407
 Alpha virt. eigenvalues --    0.77526   0.96436   0.96436   1.04480   1.08906
 Alpha virt. eigenvalues --    1.13238   1.13238   1.13637   1.13637   1.22282
 Alpha virt. eigenvalues --    1.32612   1.33734   1.33734   1.61021   1.61021
 Alpha virt. eigenvalues --    1.91207   1.91207   1.98894   2.13545   2.24398
 Alpha virt. eigenvalues --    2.24398   2.47711   2.47711   3.05662
          Condensed to atoms (all electrons):
               1          2          3          4          5          6
     1  F    9.236163   0.214852  -0.028702  -0.028702  -0.028702   0.000360
     2  C    0.214852   4.869939   0.360741   0.360741   0.360741  -0.006718
     3  H   -0.028702   0.360741   0.580633  -0.038741  -0.038741   0.008771
     4  H   -0.028702   0.360741  -0.038741   0.580633  -0.038741   0.008771
     5  H   -0.028702   0.360741  -0.038741  -0.038741   0.580633   0.008771
     6  Cl   0.000360  -0.006718   0.008771   0.008771   0.008771  17.922602
 Mulliken charges:
               1
     1  F   -0.365267
     2  C   -0.160296
     3  H    0.156040
     4  H    0.156040
     5  H    0.156040
     6  Cl  -0.942557
 Sum of Mulliken charges =  -1.00000
 Mulliken charges with hydrogens summed into heavy atoms:
               1
     1  F   -0.365267
     2  C    0.307824
     6  Cl  -0.942557
 Electronic spatial extent (au):  <R**2>=            594.6657
 Charge=             -1.0000 electrons
 Dipole moment (field-independent basis, Debye):
    X=              0.0000    Y=             -0.0000    Z=             -6.3781  Tot=              6.3781
 Quadrupole moment (field-independent basis, Debye-Ang):
   XX=            -27.3817   YY=            -27.3817   ZZ=            -53.8325
   XY=             -0.0000   XZ=             -0.0000   YZ=              0.0000
 Traceless Quadrupole moment (field-independent basis, Debye-Ang):
   XX=              8.8169   YY=              8.8169   ZZ=            -17.6338
   XY=             -0.0000   XZ=             -0.0000   YZ=              0.0000
 Octapole moment (field-independent basis, Debye-Ang**2):
  XXX=              0.0000  YYY=              0.5174  ZZZ=            -39.0503  XYY=              0.0000
  XXY=             -0.5174  XXZ=             -9.9309  XZZ=              0.0000  YZZ=             -0.0000
  YYZ=             -9.9309  XYZ=              0.0000
 Hexadecapole moment (field-independent basis, Debye-Ang**3):
 XXXX=            -35.7736 YYYY=            -35.7736 ZZZZ=           -778.2069 XXXY=              0.0000
 XXXZ=             -0.0000 YYYX=              0.0000 YYYZ=             -0.3780 ZZZX=             -0.0000
 ZZZY=              0.0000 XXYY=            -11.9245 XXZZ=           -114.5146 YYZZ=           -114.5146
 XXYZ=              0.3780 YYXZ=             -0.0000 ZZXY=              0.0000
 N-N= 7.984861396879D+01 E-N=-1.593829014943D+03  KE= 5.981804033769D+02
 No NMR shielding tensors so no spin-rotation constants.
 Leave Link  601 at Wed Oct  7 13:18:01 2020, MaxMem=  2684354560 cpu:               4.6 elap:               0.8
 (Enter /udrive/faculty/rpeverati/g16/g16/l9999.exe)

 Test job not archived.
 1\1\GINC-NODE13\FOpt\RBP86\6-31G(d)\C1H3Cl1F1(1-)\RPEVERATI\07-Oct-202
 0\0\\#P Opt(MaxCyc=100) BP86/6-31G* 5D 7F Integral=UltraFineGrid SCF=(
 NoSymm,XQC,MaxCyc=120) IOp(1/33=1)\\TS search on BH76.\\-1,1\F,0.,0.,-
 1.9091223931\C,0.,0.,-0.487771038\H,-0.5167715494,0.8950745794,-0.1062
 644474\H,-0.5167715494,-0.8950745794,-0.1062644474\H,1.0335430987,0.,-
 0.1062644474\Cl,0.,0.,2.7156867786\\Version=ES64L-G16RevA.03\State=1-A
 1\HF=-600.0161523\RMSD=3.015e-09\RMSF=5.725e-05\Dipole=0.,0.,-2.509330
 8\Quadrupole=6.5551653,6.5551653,-13.1103305,0.,0.,0.\PG=C03V [C3(F1C1
 Cl1),3SGV(H1)]\\@


 IT IS IMPOSSIBLE TO MEDITATE ON TIME AND THE MYSTERY 
 OF NATURE WITHOUT AN OVERWHELMING EMOTION AT THE
 LIMITATIONS OF HUMAN INTELLIGENCE.

                                         -- ALFRED NORTH WHITEHEAD
 Job cpu time:       0 days  0 hours  6 minutes  2.0 seconds.
 Elapsed time:       0 days  0 hours  1 minutes  7.2 seconds.
 File lengths (MBytes):  RWF=      5 Int=      0 D2E=      0 Chk=      1 Scr=      1
 Normal termination of Gaussian 16 at Wed Oct  7 13:18:02 2020.
