 Entering Gaussian System, Link 0=g16
 Input=MN_59_hn2ts_BH76_BP86_631Gs.in
 Output=MN_59_hn2ts_BH76_BP86_631Gs.log
 Initial command:
 /udrive/faculty/rpeverati/g16/g16/l1.exe "/udrive/scratch-directories/gaussian09/rpeverati/Gau-37288.inp" -scrdir="/udrive/scratch-directories/gaussian09/rpeverati/"
 Entering Link 1 = /udrive/faculty/rpeverati/g16/g16/l1.exe PID=     37289.
  
 Copyright (c) 1988,1990,1992,1993,1995,1998,2003,2009,2016,
            Gaussian, Inc.  All Rights Reserved.
  
 This is part of the Gaussian(R) 16 program.  It is based on
 the Gaussian(R) 09 system (copyright 2009, Gaussian, Inc.),
 the Gaussian(R) 03 system (copyright 2003, Gaussian, Inc.),
 the Gaussian(R) 98 system (copyright 1998, Gaussian, Inc.),
 the Gaussian(R) 94 system (copyright 1995, Gaussian, Inc.),
 the Gaussian 92(TM) system (copyright 1992, Gaussian, Inc.),
 the Gaussian 90(TM) system (copyright 1990, Gaussian, Inc.),
 the Gaussian 88(TM) system (copyright 1988, Gaussian, Inc.),
 the Gaussian 86(TM) system (copyright 1986, Carnegie Mellon
 University), and the Gaussian 82(TM) system (copyright 1983,
 Carnegie Mellon University). Gaussian is a federally registered
 trademark of Gaussian, Inc.
  
 This software contains proprietary and confidential information,
 including trade secrets, belonging to Gaussian, Inc.
  
 This software is provided under written license and may be
 used, copied, transmitted, or stored only in accord with that
 written license.
  
 The following legend is applicable only to US Government
 contracts under FAR:
  
                    RESTRICTED RIGHTS LEGEND
  
 Use, reproduction and disclosure by the US Government is
 subject to restrictions as set forth in subparagraphs (a)
 and (c) of the Commercial Computer Software - Restricted
 Rights clause in FAR 52.227-19.
  
 Gaussian, Inc.
 340 Quinnipiac St., Bldg. 40, Wallingford CT 06492
  
  
 ---------------------------------------------------------------
 Warning -- This program may not be used in any manner that
 competes with the business of Gaussian, Inc. or will provide
 assistance to any competitor of Gaussian, Inc.  The licensee
 of this program is prohibited from giving any competitor of
 Gaussian, Inc. access to this program.  By using this program,
 the user acknowledges that Gaussian, Inc. is engaged in the
 business of creating and licensing software in the field of
 computational chemistry and represents and warrants to the
 licensee that it is not a competitor of Gaussian, Inc. and that
 it will not use this program in any manner prohibited above.
 ---------------------------------------------------------------
  

 Cite this work as:
 Gaussian 16, Revision A.03,
 M. J. Frisch, G. W. Trucks, H. B. Schlegel, G. E. Scuseria, 
 M. A. Robb, J. R. Cheeseman, G. Scalmani, V. Barone, 
 G. A. Petersson, H. Nakatsuji, X. Li, M. Caricato, A. V. Marenich, 
 J. Bloino, B. G. Janesko, R. Gomperts, B. Mennucci, H. P. Hratchian, 
 J. V. Ortiz, A. F. Izmaylov, J. L. Sonnenberg, D. Williams-Young, 
 F. Ding, F. Lipparini, F. Egidi, J. Goings, B. Peng, A. Petrone, 
 T. Henderson, D. Ranasinghe, V. G. Zakrzewski, J. Gao, N. Rega, 
 G. Zheng, W. Liang, M. Hada, M. Ehara, K. Toyota, R. Fukuda, 
 J. Hasegawa, M. Ishida, T. Nakajima, Y. Honda, O. Kitao, H. Nakai, 
 T. Vreven, K. Throssell, J. A. Montgomery, Jr., J. E. Peralta, 
 F. Ogliaro, M. J. Bearpark, J. J. Heyd, E. N. Brothers, K. N. Kudin, 
 V. N. Staroverov, T. A. Keith, R. Kobayashi, J. Normand, 
 K. Raghavachari, A. P. Rendell, J. C. Burant, S. S. Iyengar, 
 J. Tomasi, M. Cossi, J. M. Millam, M. Klene, C. Adamo, R. Cammi, 
 J. W. Ochterski, R. L. Martin, K. Morokuma, O. Farkas, 
 J. B. Foresman, and D. J. Fox, Gaussian, Inc., Wallingford CT, 2016.
 
 ******************************************
 Gaussian 16:  ES64L-G16RevA.03 25-Dec-2016
                 7-Oct-2020 
 ******************************************
 %NoSave
 %nproc=12
 Will use up to   12 processors via shared memory.
 %mem=20GB
 %chk=MN_59_hn2ts_BH76_BP86_631Gs
 ----------------------------------------------------------------------
 #P Opt(TS,MaxCyc=50,NoEigenTest,MaxStep=10,AddRedundant) BP86/6-31G* 5
 D 7F Integral=UltraFineGrid SCF=(NoSymm,XQC,MaxCyc=120) IOp(1/33=1)
 ----------------------------------------------------------------------
 1/5=1,6=50,8=10,11=1,18=120,26=4,33=1,38=1/1,3;
 2/9=110,12=2,17=6,18=5,40=1/2;
 3/5=1,6=6,7=1,8=11,11=2,25=1,30=1,71=1,74=404,75=-5/1,2,3;
 4/9=2/1;
 5/5=2,7=120,8=3,13=1,38=5/2,8;
 6/7=2,8=2,9=2,10=2,28=1/1;
 7//1,2,3,16;
 1/5=1,6=50,8=10,11=1,18=20,26=4,33=1/3(2);
 2/9=110/2;
 99//99;
 2/9=110/2;
 3/5=1,6=6,7=1,8=11,11=2,25=1,30=1,71=1,74=404,75=-5/1,2,3;
 4/5=5,9=2,16=3,69=1/1;
 5/5=2,7=120,8=3,13=1,38=5/2,8;
 7//1,2,3,16;
 1/5=1,6=50,8=10,11=1,18=20,26=4,33=1/3(-5);
 2/9=110/2;
 6/7=2,8=2,9=2,10=2,19=2,28=1/1;
 99/9=1/99;
 Leave Link    1 at Wed Oct  7 13:18:10 2020, MaxMem=  2684354560 cpu:               7.4 elap:               0.9
 (Enter /udrive/faculty/rpeverati/g16/g16/l101.exe)
 ONIOM data not found on unit 2.
 ------------------
 TS search on BH76.
 ------------------
 TstMul:  ICh=     0
 TstMul:  Mul=     2
 TstMul:  ICh=     0
 TstMul:  Mul=     2
 Symbolic Z-matrix:
 Charge =  0 Multiplicity = 2
 N                     0.08456  -0.64293   0. 
 N                     0.08456   0.47988   0. 
 H                    -1.18389   1.1414    0. 
 
 RdStrC is calling ZToCFu for IStruc=1 NZ=     3.
 PrtBox:  NBox=     1 Levels=  1 BoxLen=    8.00 SMaxX=        3.37
          Shift=            2.237220            1.214970            0.000000
 Box      1 Number                   0 centers from      1 to      3:
 After GenITR:
 ITRead=  0  0  0
 MicOpt= -1 -1 -1
 Add virtual bond connecting atoms H3         and N2         Dist= 2.70D+00.
 The following ModRedundant input section has been read:
 
 ITRead=  0  0  0
 MicOpt= -1 -1 -1
 NAtoms=      3 NQM=        3 NQMF=       0 NMMI=      0 NMMIF=      0
                NMic=       0 NMicF=      0.
                    Isotopes and Nuclear Properties:
 (Nuclear quadrupole moments (NQMom) in fm**2, nuclear magnetic moments (NMagM)
  in nuclear magnetons)

  Atom         1           2           3
 IAtWgt=          14          14           1
 AtmWgt=  14.0030740  14.0030740   1.0078250
 NucSpn=           2           2           1
 AtZEff=   0.0000000   0.0000000   0.0000000
 NQMom=    2.0440000   2.0440000   0.0000000
 NMagM=    0.4037610   0.4037610   2.7928460
 AtZNuc=   7.0000000   7.0000000   1.0000000
 No MM parameters found.
 Leave Link  101 at Wed Oct  7 13:18:12 2020, MaxMem=  2684354560 cpu:              12.6 elap:               1.3
 (Enter /udrive/faculty/rpeverati/g16/g16/l103.exe)

 GradGradGradGradGradGradGradGradGradGradGradGradGradGradGradGradGradGrad
 Berny optimization.
 Optmz: redundant internal coordinate code flag= 1
 Initialization pass.
                           ----------------------------
                           !    Initial Parameters    !
                           ! (Angstroms and Degrees)  !
 --------------------------                            --------------------------
 ! Name  Definition              Value          Derivative Info.                !
 --------------------------------------------------------------------------------
 ! R1    R(1,2)                  1.1228         estimate D2E/DX2                !
 ! R2    R(2,3)                  1.4306         estimate D2E/DX2                !
 ! A1    A(1,2,3)              117.5429         estimate D2E/DX2                !
 --------------------------------------------------------------------------------
 Maximum allowed force set to 1.00D+20.
 Trust Radius=1.00D-01 FncErr=1.00D-07 GrdErr=1.00D-06 EigMax=2.50D+02 EigMin=1.00D-04
 Number of steps in this run=     50 maximum allowed number of steps=    100.
 Search for a saddle point of order  1.
 GradGradGradGradGradGradGradGradGradGradGradGradGradGradGradGradGradGrad

 Leave Link  103 at Wed Oct  7 13:18:13 2020, MaxMem=  2684354560 cpu:               1.6 elap:               0.5
 (Enter /udrive/faculty/rpeverati/g16/g16/l202.exe)
                          Input orientation:                          
 ---------------------------------------------------------------------
 Center     Atomic      Atomic             Coordinates (Angstroms)
 Number     Number       Type             X           Y           Z
 ---------------------------------------------------------------------
      1          7           0        0.084563   -0.642934    0.000000
      2          7           0        0.084563    0.479877    0.000000
      3          1           0       -1.183886    1.141398    0.000000
 ---------------------------------------------------------------------
                    Distance matrix (angstroms):
                    1          2          3
     1  N    0.000000
     2  N    1.122811   0.000000
     3  H    2.189248   1.430585   0.000000
 Stoichiometry    HN2(2)
 Framework group  CS[SG(HN2)]
 Deg. of freedom     3
 Full point group                 CS      NOp   2
 Largest Abelian subgroup         CS      NOp   2
 Largest concise Abelian subgroup C1      NOp   1
                         Standard orientation:                         
 ---------------------------------------------------------------------
 Center     Atomic      Atomic             Coordinates (Angstroms)
 Number     Number       Type             X           Y           Z
 ---------------------------------------------------------------------
      1          7           0        0.084563   -0.642934    0.000000
      2          7           0        0.084563    0.479877    0.000000
      3          1           0       -1.183886    1.141398    0.000000
 ---------------------------------------------------------------------
 Rotational constants (GHZ):         385.3839632          47.9685397          42.6588189
 Leave Link  202 at Wed Oct  7 13:18:14 2020, MaxMem=  2684354560 cpu:               2.7 elap:               0.7
 (Enter /udrive/faculty/rpeverati/g16/g16/l301.exe)
 Standard basis: 6-31G(d) (5D, 7F)
 Ernie: Thresh=  0.10000D-02 Tol=  0.10000D-05 Strict=F.
 There are    24 symmetry adapted cartesian basis functions of A'  symmetry.
 There are     8 symmetry adapted cartesian basis functions of A"  symmetry.
 There are    22 symmetry adapted basis functions of A'  symmetry.
 There are     8 symmetry adapted basis functions of A"  symmetry.
    30 basis functions,    60 primitive gaussians,    32 cartesian basis functions
     8 alpha electrons        7 beta electrons
       nuclear repulsion energy        27.3748687091 Hartrees.
 IExCor=  404 DFT=T Ex=B Corr=P86 ExCW=0 ScaHFX=  0.000000
 ScaDFX=  1.000000  1.000000  1.000000  1.000000 ScalE2=  1.000000  1.000000
 IRadAn=      5 IRanWt=     -1 IRanGd=            0 ICorTp=0 IEmpDi=  4
 NAtoms=    3 NActive=    3 NUniq=    3 SFac= 1.00D+00 NAtFMM=   60 NAOKFM=F Big=F
 Integral buffers will be    131072 words long.
 Raffenetti 2 integral format.
 Two-electron integral symmetry is turned on.
 Leave Link  301 at Wed Oct  7 13:18:15 2020, MaxMem=  2684354560 cpu:               2.0 elap:               0.6
 (Enter /udrive/faculty/rpeverati/g16/g16/l302.exe)
 NPDir=0 NMtPBC=     1 NCelOv=     1 NCel=       1 NClECP=     1 NCelD=      1
         NCelK=      1 NCelE2=     1 NClLst=     1 CellRange=     0.0.
 One-electron integrals computed using PRISM.
 One-electron integral symmetry used in STVInt
 NBasis=    30 RedAO= T EigKep=  5.97D-03  NBF=    22     8
 NBsUse=    30 1.00D-06 EigRej= -1.00D+00 NBFU=    22     8
 Precomputing XC quadrature grid using
 IXCGrd= 4 IRadAn=           5 IRanWt=          -1 IRanGd=           0 AccXCQ= 0.00D+00.
 Generated NRdTot=       0 NPtTot=           0 NUsed=           0 NTot=          32
 NSgBfM=    32    32    32    32    32 MxSgAt=     3 MxSgA2=     3.
 Leave Link  302 at Wed Oct  7 13:18:17 2020, MaxMem=  2684354560 cpu:               8.0 elap:               1.5
 (Enter /udrive/faculty/rpeverati/g16/g16/l303.exe)
 DipDrv:  MaxL=1.
 Leave Link  303 at Wed Oct  7 13:18:19 2020, MaxMem=  2684354560 cpu:               4.4 elap:               0.9
 (Enter /udrive/faculty/rpeverati/g16/g16/l401.exe)
 SCF N**3 symmetry information disabled.
 ExpMin= 1.61D-01 ExpMax= 4.17D+03 ExpMxC= 6.27D+02 IAcc=3 IRadAn=         5 AccDes= 0.00D+00
 Harris functional with IExCor=  404 and IRadAn=       5 diagonalized for initial guess.
 HarFok:  IExCor=  404 AccDes= 0.00D+00 IRadAn=         5 IDoV= 1 UseB2=F ITyADJ=14
 ICtDFT=  3500011 ScaDFX=  1.000000  1.000000  1.000000  1.000000
 FoFCou: FMM=F IPFlag=           0 FMFlag=      100000 FMFlg1=           0
         NFxFlg=           0 DoJE=T BraDBF=F KetDBF=T FulRan=T
         wScrn=  0.000000 ICntrl=       500 IOpCl=  0 I1Cent=   200000004 NGrid=           0
         NMat0=    1 NMatS0=      1 NMatT0=    0 NMatD0=    1 NMtDS0=    0 NMtDT0=    0
 Petite list used in FoFCou.
 Harris En= -109.976962277115    
 JPrj=0 DoOrth=F DoCkMO=F.
 Initial guess orbital symmetries:
 Alpha Orbitals:
       Occupied  (A') (A') (A') (A') (A') (A") (A') (A')
       Virtual   (A") (A') (A') (A') (A") (A') (A') (A") (A') (A')
                 (A') (A') (A") (A') (A") (A') (A") (A') (A') (A')
                 (A") (A')
 Beta  Orbitals:
       Occupied  (A') (A') (A') (A') (A') (A") (A')
       Virtual   (A') (A") (A') (A') (A') (A") (A') (A') (A") (A')
                 (A') (A') (A') (A") (A') (A") (A') (A") (A') (A')
                 (A') (A") (A')
 The electronic state of the initial guess is 2-A'.
 Initial guess <Sx>= 0.0000 <Sy>= 0.0000 <Sz>= 0.5000 <S**2>= 0.7500 S= 0.5000
 Leave Link  401 at Wed Oct  7 13:18:22 2020, MaxMem=  2684354560 cpu:              12.3 elap:               2.7
 (Enter /udrive/faculty/rpeverati/g16/g16/l502.exe)
 Keep J ints in memory in symmetry-blocked form, NReq=10459184.
 FoFCou: FMM=F IPFlag=           0 FMFlag=           0 FMFlg1=           0
         NFxFlg=           0 DoJE=F BraDBF=F KetDBF=F FulRan=T
         wScrn=  0.000000 ICntrl=       600 IOpCl=  0 I1Cent=           0 NGrid=           0
         NMat0=    1 NMatS0=    465 NMatT0=    0 NMatD0=    1 NMtDS0=    0 NMtDT0=    0
 Petite list used in FoFCou.
 UHF open shell SCF:
 Using DIIS extrapolation, IDIIS=  1040.
 NGot=  2684354560 LenX=  2684292770 LenY=  2684291305
 Requested convergence on RMS density matrix=1.00D-08 within 120 cycles.
 Requested convergence on MAX density matrix=1.00D-06.
 Requested convergence on             energy=1.00D-06.
 No special actions if energy rises.
 Integral accuracy reduced to 1.0D-05 until final iterations.

 Cycle   1  Pass 0  IDiag  1:
 E= -110.003581061792    
 DIIS: error= 1.40D-02 at cycle   1 NSaved=   1.
 NSaved= 1 IEnMin= 1 EnMin= -110.003581061792     IErMin= 1 ErrMin= 1.40D-02
 ErrMax= 1.40D-02  0.00D+00 EMaxC= 1.00D-01 BMatC= 3.19D-02 BMatP= 3.19D-02
 IDIUse=3 WtCom= 8.60D-01 WtEn= 1.40D-01
 Coeff-Com:  0.100D+01
 Coeff-En:   0.100D+01
 Coeff:      0.100D+01
 Gap=     0.141 Goal=   None    Shift=    0.000
 Gap=     0.200 Goal=   None    Shift=    0.000
 GapD=    0.141 DampG=1.000 DampE=0.500 DampFc=0.5000 IDamp=-1.
 Damping current iteration by 5.00D-01
 RMSDP=1.33D-02 MaxDP=2.10D-01              OVMax= 2.71D-01

 Cycle   2  Pass 0  IDiag  1:
 E= -110.000510542724     Delta-E=        0.003070519068 Rises=F Damp=T
 DIIS: error= 1.97D-02 at cycle   2 NSaved=   2.
 NSaved= 2 IEnMin= 1 EnMin= -110.003581061792     IErMin= 1 ErrMin= 1.40D-02
 ErrMax= 1.97D-02  0.00D+00 EMaxC= 1.00D-01 BMatC= 2.93D-02 BMatP= 3.19D-02
 IDIUse=3 WtCom= 8.03D-01 WtEn= 1.97D-01
 Coeff-Com:  0.487D+00 0.513D+00
 Coeff-En:   0.581D+00 0.419D+00
 Coeff:      0.505D+00 0.495D+00
 Gap=     0.126 Goal=   None    Shift=    0.000
 Gap=     0.231 Goal=   None    Shift=    0.000
 RMSDP=2.83D-03 MaxDP=3.28D-02 DE= 3.07D-03 OVMax= 1.25D-01

 Cycle   3  Pass 0  IDiag  1:
 E= -110.012813173547     Delta-E=       -0.012302630822 Rises=F Damp=F
 DIIS: error= 7.56D-03 at cycle   3 NSaved=   3.
 NSaved= 3 IEnMin= 3 EnMin= -110.012813173547     IErMin= 3 ErrMin= 7.56D-03
 ErrMax= 7.56D-03  0.00D+00 EMaxC= 1.00D-01 BMatC= 9.21D-03 BMatP= 2.93D-02
 IDIUse=3 WtCom= 9.24D-01 WtEn= 7.56D-02
 Coeff-Com:  0.237D+00 0.319D+00 0.445D+00
 Coeff-En:   0.000D+00 0.000D+00 0.100D+01
 Coeff:      0.219D+00 0.295D+00 0.487D+00
 Gap=     0.117 Goal=   None    Shift=    0.000
 Gap=     0.238 Goal=   None    Shift=    0.000
 RMSDP=2.38D-03 MaxDP=3.50D-02 DE=-1.23D-02 OVMax= 4.09D-02

 Cycle   4  Pass 0  IDiag  1:
 E= -110.014992129201     Delta-E=       -0.002178955655 Rises=F Damp=F
 DIIS: error= 3.49D-03 at cycle   4 NSaved=   4.
 NSaved= 4 IEnMin= 4 EnMin= -110.014992129201     IErMin= 4 ErrMin= 3.49D-03
 ErrMax= 3.49D-03  0.00D+00 EMaxC= 1.00D-01 BMatC= 1.40D-03 BMatP= 9.21D-03
 IDIUse=3 WtCom= 9.65D-01 WtEn= 3.49D-02
 Coeff-Com: -0.110D-01-0.239D-01 0.268D+00 0.767D+00
 Coeff-En:   0.000D+00 0.000D+00 0.129D+00 0.871D+00
 Coeff:     -0.106D-01-0.230D-01 0.263D+00 0.770D+00
 Gap=     0.122 Goal=   None    Shift=    0.000
 Gap=     0.238 Goal=   None    Shift=    0.000
 RMSDP=7.05D-04 MaxDP=9.89D-03 DE=-2.18D-03 OVMax= 1.22D-02

 Cycle   5  Pass 0  IDiag  1:
 E= -110.015369654036     Delta-E=       -0.000377524835 Rises=F Damp=F
 DIIS: error= 4.09D-04 at cycle   5 NSaved=   5.
 NSaved= 5 IEnMin= 5 EnMin= -110.015369654036     IErMin= 5 ErrMin= 4.09D-04
 ErrMax= 4.09D-04  0.00D+00 EMaxC= 1.00D-01 BMatC= 1.90D-05 BMatP= 1.40D-03
 IDIUse=3 WtCom= 9.96D-01 WtEn= 4.09D-03
 Coeff-Com: -0.166D-01-0.126D-01 0.147D-01 0.118D+00 0.896D+00
 Coeff-En:   0.000D+00 0.000D+00 0.000D+00 0.000D+00 0.100D+01
 Coeff:     -0.165D-01-0.126D-01 0.146D-01 0.118D+00 0.897D+00
 Gap=     0.123 Goal=   None    Shift=    0.000
 Gap=     0.239 Goal=   None    Shift=    0.000
 RMSDP=1.24D-04 MaxDP=1.09D-03 DE=-3.78D-04 OVMax= 1.98D-03

 Cycle   6  Pass 0  IDiag  1:
 E= -110.015377319006     Delta-E=       -0.000007664970 Rises=F Damp=F
 DIIS: error= 1.17D-04 at cycle   6 NSaved=   6.
 NSaved= 6 IEnMin= 6 EnMin= -110.015377319006     IErMin= 6 ErrMin= 1.17D-04
 ErrMax= 1.17D-04  0.00D+00 EMaxC= 1.00D-01 BMatC= 1.87D-06 BMatP= 1.90D-05
 IDIUse=3 WtCom= 9.99D-01 WtEn= 1.17D-03
 Coeff-Com: -0.186D-02-0.143D-02-0.213D-01-0.497D-01 0.199D+00 0.876D+00
 Coeff-En:   0.000D+00 0.000D+00 0.000D+00 0.000D+00 0.000D+00 0.100D+01
 Coeff:     -0.186D-02-0.142D-02-0.212D-01-0.497D-01 0.198D+00 0.876D+00
 Gap=     0.123 Goal=   None    Shift=    0.000
 Gap=     0.239 Goal=   None    Shift=    0.000
 RMSDP=3.40D-05 MaxDP=3.61D-04 DE=-7.66D-06 OVMax= 5.36D-04

 Cycle   7  Pass 0  IDiag  1:
 E= -110.015378130319     Delta-E=       -0.000000811313 Rises=F Damp=F
 DIIS: error= 4.01D-05 at cycle   7 NSaved=   7.
 NSaved= 7 IEnMin= 7 EnMin= -110.015378130319     IErMin= 7 ErrMin= 4.01D-05
 ErrMax= 4.01D-05  0.00D+00 EMaxC= 1.00D-01 BMatC= 1.24D-07 BMatP= 1.87D-06
 IDIUse=1 WtCom= 1.00D+00 WtEn= 0.00D+00
 Coeff-Com:  0.361D-03 0.283D-04-0.399D-02-0.150D-01-0.248D-02 0.179D+00
 Coeff-Com:  0.842D+00
 Coeff:      0.361D-03 0.283D-04-0.399D-02-0.150D-01-0.248D-02 0.179D+00
 Coeff:      0.842D+00
 Gap=     0.123 Goal=   None    Shift=    0.000
 Gap=     0.239 Goal=   None    Shift=    0.000
 RMSDP=1.01D-05 MaxDP=1.07D-04 DE=-8.11D-07 OVMax= 1.93D-04

 Cycle   8  Pass 0  IDiag  1:
 E= -110.015378086687     Delta-E=        0.000000043632 Rises=F Damp=F
 DIIS: error= 1.43D-05 at cycle   8 NSaved=   8.
 NSaved= 8 IEnMin= 7 EnMin= -110.015378130319     IErMin= 8 ErrMin= 1.43D-05
 ErrMax= 1.43D-05  0.00D+00 EMaxC= 1.00D-01 BMatC= 1.59D-08 BMatP= 1.24D-07
 IDIUse=1 WtCom= 1.00D+00 WtEn= 0.00D+00
 Coeff-Com:  0.227D-03 0.400D-03 0.304D-02 0.574D-02-0.325D-01-0.117D+00
 Coeff-Com:  0.856D-01 0.105D+01
 Coeff:      0.227D-03 0.400D-03 0.304D-02 0.574D-02-0.325D-01-0.117D+00
 Coeff:      0.856D-01 0.105D+01
 Gap=     0.123 Goal=   None    Shift=    0.000
 Gap=     0.239 Goal=   None    Shift=    0.000
 RMSDP=4.88D-06 MaxDP=6.72D-05 DE= 4.36D-08 OVMax= 1.10D-04

 Initial convergence to 1.0D-05 achieved.  Increase integral accuracy.
 Cycle   9  Pass 1  IDiag  1:
 E= -110.015377885392     Delta-E=        0.000000201294 Rises=F Damp=F
 DIIS: error= 2.73D-06 at cycle   1 NSaved=   1.
 NSaved= 1 IEnMin= 1 EnMin= -110.015377885392     IErMin= 1 ErrMin= 2.73D-06
 ErrMax= 2.73D-06  0.00D+00 EMaxC= 1.00D-01 BMatC= 6.70D-10 BMatP= 6.70D-10
 IDIUse=1 WtCom= 1.00D+00 WtEn= 0.00D+00
 Coeff-Com:  0.100D+01
 Coeff:      0.100D+01
 Gap=     0.123 Goal=   None    Shift=    0.000
 Gap=     0.239 Goal=   None    Shift=    0.000
 RMSDP=4.88D-06 MaxDP=6.72D-05 DE= 2.01D-07 OVMax= 2.17D-05

 Cycle  10  Pass 1  IDiag  1:
 E= -110.015377885746     Delta-E=       -0.000000000353 Rises=F Damp=F
 DIIS: error= 2.32D-06 at cycle   2 NSaved=   2.
 NSaved= 2 IEnMin= 2 EnMin= -110.015377885746     IErMin= 2 ErrMin= 2.32D-06
 ErrMax= 2.32D-06  0.00D+00 EMaxC= 1.00D-01 BMatC= 4.65D-10 BMatP= 6.70D-10
 IDIUse=1 WtCom= 1.00D+00 WtEn= 0.00D+00
 Coeff-Com:  0.427D+00 0.573D+00
 Coeff:      0.427D+00 0.573D+00
 Gap=     0.123 Goal=   None    Shift=    0.000
 Gap=     0.239 Goal=   None    Shift=    0.000
 RMSDP=5.88D-07 MaxDP=7.65D-06 DE=-3.53D-10 OVMax= 8.92D-06

 Cycle  11  Pass 1  IDiag  1:
 E= -110.015377885845     Delta-E=       -0.000000000099 Rises=F Damp=F
 DIIS: error= 2.43D-06 at cycle   3 NSaved=   3.
 NSaved= 3 IEnMin= 3 EnMin= -110.015377885845     IErMin= 2 ErrMin= 2.32D-06
 ErrMax= 2.43D-06  0.00D+00 EMaxC= 1.00D-01 BMatC= 3.00D-10 BMatP= 4.65D-10
 IDIUse=1 WtCom= 1.00D+00 WtEn= 0.00D+00
 Coeff-Com:  0.122D-01 0.432D+00 0.556D+00
 Coeff:      0.122D-01 0.432D+00 0.556D+00
 Gap=     0.123 Goal=   None    Shift=    0.000
 Gap=     0.239 Goal=   None    Shift=    0.000
 RMSDP=3.09D-07 MaxDP=4.80D-06 DE=-9.95D-11 OVMax= 8.35D-06

 Cycle  12  Pass 1  IDiag  1:
 E= -110.015377885877     Delta-E=       -0.000000000032 Rises=F Damp=F
 DIIS: error= 2.00D-06 at cycle   4 NSaved=   4.
 NSaved= 4 IEnMin= 4 EnMin= -110.015377885877     IErMin= 4 ErrMin= 2.00D-06
 ErrMax= 2.00D-06  0.00D+00 EMaxC= 1.00D-01 BMatC= 2.17D-10 BMatP= 3.00D-10
 IDIUse=1 WtCom= 1.00D+00 WtEn= 0.00D+00
 Coeff-Com: -0.116D+00 0.188D+00 0.517D+00 0.411D+00
 Coeff:     -0.116D+00 0.188D+00 0.517D+00 0.411D+00
 Gap=     0.123 Goal=   None    Shift=    0.000
 Gap=     0.239 Goal=   None    Shift=    0.000
 RMSDP=3.03D-07 MaxDP=4.35D-06 DE=-3.18D-11 OVMax= 5.95D-06

 Cycle  13  Pass 1  IDiag  1:
 E= -110.015377885932     Delta-E=       -0.000000000055 Rises=F Damp=F
 DIIS: error= 3.33D-07 at cycle   5 NSaved=   5.
 NSaved= 5 IEnMin= 5 EnMin= -110.015377885932     IErMin= 5 ErrMin= 3.33D-07
 ErrMax= 3.33D-07  0.00D+00 EMaxC= 1.00D-01 BMatC= 8.67D-12 BMatP= 2.17D-10
 IDIUse=1 WtCom= 1.00D+00 WtEn= 0.00D+00
 Coeff-Com: -0.749D-01-0.177D-01 0.117D+00 0.201D+00 0.775D+00
 Coeff:     -0.749D-01-0.177D-01 0.117D+00 0.201D+00 0.775D+00
 Gap=     0.123 Goal=   None    Shift=    0.000
 Gap=     0.239 Goal=   None    Shift=    0.000
 RMSDP=8.10D-08 MaxDP=1.01D-06 DE=-5.47D-11 OVMax= 1.69D-06

 Cycle  14  Pass 1  IDiag  1:
 E= -110.015377885935     Delta-E=       -0.000000000004 Rises=F Damp=F
 DIIS: error= 5.32D-08 at cycle   6 NSaved=   6.
 NSaved= 6 IEnMin= 6 EnMin= -110.015377885935     IErMin= 6 ErrMin= 5.32D-08
 ErrMax= 5.32D-08  0.00D+00 EMaxC= 1.00D-01 BMatC= 3.47D-13 BMatP= 8.67D-12
 IDIUse=1 WtCom= 1.00D+00 WtEn= 0.00D+00
 Coeff-Com: -0.191D-02-0.268D-01-0.295D-01-0.417D-02 0.166D+00 0.897D+00
 Coeff:     -0.191D-02-0.268D-01-0.295D-01-0.417D-02 0.166D+00 0.897D+00
 Gap=     0.123 Goal=   None    Shift=    0.000
 Gap=     0.239 Goal=   None    Shift=    0.000
 RMSDP=2.02D-08 MaxDP=2.35D-07 DE=-3.69D-12 OVMax= 3.96D-07

 Cycle  15  Pass 1  IDiag  1:
 E= -110.015377885936     Delta-E=       -0.000000000000 Rises=F Damp=F
 DIIS: error= 1.28D-08 at cycle   7 NSaved=   7.
 NSaved= 7 IEnMin= 7 EnMin= -110.015377885936     IErMin= 7 ErrMin= 1.28D-08
 ErrMax= 1.28D-08  0.00D+00 EMaxC= 1.00D-01 BMatC= 2.48D-14 BMatP= 3.47D-13
 IDIUse=1 WtCom= 1.00D+00 WtEn= 0.00D+00
 Coeff-Com:  0.330D-02-0.787D-02-0.135D-01-0.908D-02 0.266D-02 0.254D+00
 Coeff-Com:  0.770D+00
 Coeff:      0.330D-02-0.787D-02-0.135D-01-0.908D-02 0.266D-02 0.254D+00
 Coeff:      0.770D+00
 Gap=     0.123 Goal=   None    Shift=    0.000
 Gap=     0.239 Goal=   None    Shift=    0.000
 RMSDP=5.27D-09 MaxDP=4.78D-08 DE=-1.14D-13 OVMax= 1.03D-07

 SCF Done:  E(UB-P86) =  -110.015377886     A.U. after   15 cycles
            NFock= 15  Conv=0.53D-08     -V/T= 2.0072
 <Sx>= 0.0000 <Sy>= 0.0000 <Sz>= 0.5000 <S**2>= 0.7564 S= 0.5032
 <L.S>= 0.000000000000E+00
 KE= 1.092330151739D+02 PE=-3.117594200419D+02 EE= 6.513615827298D+01
 Annihilation of the first spin contaminant:
 S**2 before annihilation     0.7564,   after     0.7500
 Leave Link  502 at Wed Oct  7 13:18:25 2020, MaxMem=  2684354560 cpu:              22.2 elap:               2.6
 (Enter /udrive/faculty/rpeverati/g16/g16/l508.exe)
 QCSCF skips out because SCF is already converged.
 Leave Link  508 at Wed Oct  7 13:18:25 2020, MaxMem=  2684354560 cpu:               0.8 elap:               0.5
 (Enter /udrive/faculty/rpeverati/g16/g16/l601.exe)
 Copying SCF densities to generalized density rwf, IOpCl= 1 IROHF=0.

 **********************************************************************

            Population analysis using the SCF density.

 **********************************************************************

 Orbital symmetries:
 Alpha Orbitals:
       Occupied  (A') (A') (A') (A') (A') (A") (A') (A')
       Virtual   (A") (A') (A') (A') (A") (A') (A') (A") (A') (A')
                 (A') (A') (A") (A') (A") (A') (A") (A') (A') (A')
                 (A") (A')
 Beta  Orbitals:
       Occupied  (A') (A') (A') (A') (A') (A") (A')
       Virtual   (A') (A") (A') (A') (A') (A") (A') (A') (A") (A')
                 (A') (A') (A') (A") (A') (A") (A') (A") (A') (A')
                 (A") (A') (A')
 The electronic state is 2-A'.
 Alpha  occ. eigenvalues --  -14.12543 -14.10608  -1.02493  -0.53947  -0.44039
 Alpha  occ. eigenvalues --   -0.41431  -0.38066  -0.19778
 Alpha virt. eigenvalues --   -0.07513  -0.02884   0.36814   0.54647   0.56211
 Alpha virt. eigenvalues --    0.56816   0.60173   0.69616   0.72368   0.73559
 Alpha virt. eigenvalues --    0.87764   1.24074   1.38193   1.41031   1.45883
 Alpha virt. eigenvalues --    1.50201   1.84195   1.89113   2.37176   2.48523
 Alpha virt. eigenvalues --    2.48986   2.70855
  Beta  occ. eigenvalues --  -14.12403 -14.09863  -1.01760  -0.51969  -0.41738
  Beta  occ. eigenvalues --   -0.40942  -0.36584
  Beta virt. eigenvalues --   -0.12703  -0.06772   0.00881   0.37546   0.55679
  Beta virt. eigenvalues --    0.56494   0.59921   0.64590   0.70172   0.73245
  Beta virt. eigenvalues --    0.77307   0.89705   1.25113   1.39254   1.42482
  Beta virt. eigenvalues --    1.46401   1.52452   1.85711   1.90853   2.38195
  Beta virt. eigenvalues --    2.49611   2.50266   2.71729
          Condensed to atoms (all electrons):
               1          2          3
     1  N    6.534887   0.529474  -0.058580
     2  N    0.529474   6.560677   0.011114
     3  H   -0.058580   0.011114   0.940418
          Atomic-Atomic Spin Densities.
               1          2          3
     1  N    0.464726  -0.045367  -0.051806
     2  N   -0.045367   0.219982  -0.151547
     3  H   -0.051806  -0.151547   0.812731
 Mulliken charges and spin densities:
               1          2
     1  N   -0.005782   0.367553
     2  N   -0.101266   0.023068
     3  H    0.107048   0.609378
 Sum of Mulliken charges =   0.00000   1.00000
 Mulliken charges and spin densities with hydrogens summed into heavy atoms:
               1          2
     1  N   -0.005782   0.367553
     2  N    0.005782   0.632447
 Electronic spatial extent (au):  <R**2>=             52.1304
 Charge=              0.0000 electrons
 Dipole moment (field-independent basis, Debye):
    X=             -0.4668    Y=              0.4604    Z=              0.0000  Tot=              0.6557
 Quadrupole moment (field-independent basis, Debye-Ang):
   XX=            -11.2533   YY=            -12.5763   ZZ=            -11.1761
   XY=             -0.3525   XZ=              0.0000   YZ=              0.0000
 Traceless Quadrupole moment (field-independent basis, Debye-Ang):
   XX=              0.4152   YY=             -0.9077   ZZ=              0.4925
   XY=             -0.3525   XZ=              0.0000   YZ=              0.0000
 Octapole moment (field-independent basis, Debye-Ang**2):
  XXX=              1.1188  YYY=             -0.2569  ZZZ=              0.0000  XYY=             -0.0537
  XXY=             -0.2755  XXZ=              0.0000  XZZ=              0.4597  YZZ=             -0.4933
  YYZ=              0.0000  XYZ=              0.0000
 Hexadecapole moment (field-independent basis, Debye-Ang**3):
 XXXX=            -19.7163 YYYY=            -41.3240 ZZZZ=             -9.1173 XXXY=              4.7937
 XXXZ=              0.0000 YYYX=              4.5449 YYYZ=              0.0000 ZZZX=              0.0000
 ZZZY=              0.0000 XXYY=             -9.9619 XXZZ=             -4.8524 YYZZ=             -8.0884
 XXYZ=              0.0000 YYXZ=              0.0000 ZZXY=              1.6373
 N-N= 2.737486870907D+01 E-N=-3.117594199276D+02  KE= 1.092330151739D+02
                          Isotropic Fermi Contact Couplings
        Atom                 a.u.       MegaHertz       Gauss      10(-4) cm-1
     1  N(14)              0.03789      12.24337       4.36874       4.08395
     2  N(14)              0.30664      99.07627      35.35288      33.04829
     3  H(1)               0.20734     926.79138     330.70221     309.14433
 --------------------------------------------------------
       Center         ----  Spin Dipole Couplings  ----
                      3XX-RR        3YY-RR        3ZZ-RR
 --------------------------------------------------------
     1   Atom        0.878520     -0.431442     -0.447079
     2   Atom       -0.144742      0.225914     -0.081173
     3   Atom       -0.013373      0.006863      0.006510
 --------------------------------------------------------
                        XY            XZ            YZ
 --------------------------------------------------------
     1   Atom        0.282315      0.000000      0.000000
     2   Atom        0.239046      0.000000      0.000000
     3   Atom        0.005036      0.000000      0.000000
 --------------------------------------------------------


 ---------------------------------------------------------------------------------
              Anisotropic Spin Dipole Couplings in Principal Axis System
 ---------------------------------------------------------------------------------

       Atom             a.u.   MegaHertz   Gauss  10(-4) cm-1        Axes

              Baa    -0.4897   -18.886    -6.739    -6.300 -0.2021  0.9794  0.0000
     1 N(14)  Bbb    -0.4471   -17.243    -6.153    -5.752  0.0000  0.0000  1.0000
              Bcc     0.9368    36.129    12.892    12.051  0.9794  0.2021  0.0000
 
              Baa    -0.2619   -10.100    -3.604    -3.369  0.8980 -0.4401  0.0000
     2 N(14)  Bbb    -0.0812    -3.131    -1.117    -1.044  0.0000  0.0000  1.0000
              Bcc     0.3431    13.231     4.721     4.413  0.4401  0.8980  0.0000
 
              Baa    -0.0146    -7.767    -2.772    -2.591  0.9735 -0.2289  0.0000
     3 H(1)   Bbb     0.0065     3.474     1.239     1.159  0.0000  0.0000  1.0000
              Bcc     0.0080     4.294     1.532     1.432  0.2289  0.9735  0.0000
 

 ---------------------------------------------------------------------------------

 No NMR shielding tensors so no spin-rotation constants.
 Leave Link  601 at Wed Oct  7 13:18:27 2020, MaxMem=  2684354560 cpu:              14.2 elap:               1.7
 (Enter /udrive/faculty/rpeverati/g16/g16/l701.exe)
 ... and contract with generalized density number  0.
 Compute integral first derivatives.
 Leave Link  701 at Wed Oct  7 13:18:29 2020, MaxMem=  2684354560 cpu:               5.8 elap:               1.2
 (Enter /udrive/faculty/rpeverati/g16/g16/l702.exe)
 L702 exits ... SP integral derivatives will be done elsewhere.
 Leave Link  702 at Wed Oct  7 13:18:30 2020, MaxMem=  2684354560 cpu:               1.3 elap:               0.6
 (Enter /udrive/faculty/rpeverati/g16/g16/l703.exe)
 Integral derivatives from FoFJK, PRISM(SPDF).
 Compute integral first derivatives, UseDBF=F ICtDFT=           0.
 Calling FoFJK, ICntrl=      2527 FMM=F ISym2X=1 I1Cent= 0 IOpClX= 0 NMat=1 NMatS=1 NMatT=0.
 FoFJK:  IHMeth= 1 ICntrl=    2527 DoSepK=F KAlg= 0 I1Cent=           0 FoldK=F
 IRaf=         0 NMat=       1 IRICut=       1 DoRegI=T DoRafI=F ISym2E= 1 IDoP0=0 IntGTp=1.
 FoFCou: FMM=F IPFlag=           0 FMFlag=      100000 FMFlg1=         800
         NFxFlg=           0 DoJE=F BraDBF=F KetDBF=F FulRan=T
         wScrn=  0.000000 ICntrl=      2527 IOpCl=  0 I1Cent=           0 NGrid=           0
         NMat0=    1 NMatS0=      1 NMatT0=    0 NMatD0=    1 NMtDS0=    0 NMtDT0=    0
 Petite list used in FoFCou.
 Leave Link  703 at Wed Oct  7 13:18:33 2020, MaxMem=  2684354560 cpu:               9.1 elap:               2.7
 (Enter /udrive/faculty/rpeverati/g16/g16/l716.exe)
 Dipole        =-1.83660349D-01 1.81136050D-01 0.00000000D+00
 ***** Axes restored to original set *****
 -------------------------------------------------------------------
 Center     Atomic                   Forces (Hartrees/Bohr)
 Number     Number              X              Y              Z
 -------------------------------------------------------------------
      1        7           0.002357548   -0.057831317   -0.000000000
      2        7          -0.011008730    0.060256456   -0.000000000
      3        1           0.008651181   -0.002425139   -0.000000000
 -------------------------------------------------------------------
 Cartesian Forces:  Max     0.060256456 RMS     0.028250420
 Leave Link  716 at Wed Oct  7 13:18:34 2020, MaxMem=  2684354560 cpu:               1.8 elap:               0.8
 (Enter /udrive/faculty/rpeverati/g16/g16/l103.exe)

 GradGradGradGradGradGradGradGradGradGradGradGradGradGradGradGradGradGrad
 Berny optimization.
 Optmz: redundant internal coordinate code flag= 1
 FormGI is forming the generalized inverse of G from B-inverse, IUseBI=4.
 Internal  Forces:  Max     0.057831365 RMS     0.033895865
 Search for a saddle point.
 Step number   1 out of a maximum of   50
 All quantities printed in internal units (Hartrees-Bohrs-Radians)
 Swapping is turned off.
 Second derivative matrix not updated -- first step.
 The second derivative matrix:
                          R1        R2        A1
           R1           1.55581
           R2           0.00000   0.13337
           A1           0.00000   0.00000   0.16000
 ITU=  0
 Eigenvectors of the second derivative matrix:
                           1         2         3
     Eigenvalues --     0.13337   0.16000   1.55581
   1         R1        -0.00000   0.00000  -1.00000
   2         R2         1.00000  -0.00000  -0.00000
   3         A1         0.00000   1.00000  -0.00000
 Eigenvalue     1 is   1.33D-01 should be less than     0.000000 Eigenvector:
                          R2        A1        R1
   1                    1.00000   0.00000  -0.00000
 RLam0= 1.34D-01.
 Iter=   1 RLamda= 0.00000000D+00 Sum=-2.30603934D-03.
 Iter=   2 RLamda=-2.30603934D-03 Sum=-2.30063600D-03.
 Iter=   3 RLamda=-2.30063600D-03 Sum=-2.30064858D-03.
 Iter=   4 RLamda=-2.30064858D-03 Sum=-2.30064855D-03.
 RFO step:  Lambda0=1.339483023D-01 Lambda=-2.30064858D-03.
 Linear search not attempted -- option 19 set.
 Iteration  1 RMS(Cart)=  0.04552345 RMS(Int)=  0.00038393
 Iteration  2 RMS(Cart)=  0.00036713 RMS(Int)=  0.00000009
 Iteration  3 RMS(Cart)=  0.00000010 RMS(Int)=  0.00000000
 ITry= 1 IFail=0 DXMaxC= 4.74D-02 DCOld= 1.00D+10 DXMaxT= 1.00D-01 DXLimC= 3.00D+00 Rises=F
 ClnCor:  largest displacement from symmetrization is 0.00D+00 for atom     0.
 Variable       Old X    -DE/DX   Delta X   Delta X   Delta X     New X
                                 (Linear)    (Quad)   (Total)
    R1        2.12181   0.05783   0.00000   0.03712   0.03712   2.15892
    R2        2.70341  -0.00879   0.00000   0.04824   0.04824   2.75166
    A1        2.05151   0.00500   0.00000   0.03082   0.03082   2.08233
         Item               Value     Threshold  Converged?
 Maximum Force            0.057831     0.000450     NO 
 RMS     Force            0.033896     0.000300     NO 
 Maximum Displacement     0.047379     0.001800     NO 
 RMS     Displacement     0.045697     0.001200     NO 
 Predicted change in Energy=-5.736264D-04
 Lowest energy point so far.  Saving SCF results.
 Largest change from initial coordinates is atom    3       0.030 Angstoms.
 GradGradGradGradGradGradGradGradGradGradGradGradGradGradGradGradGradGrad

 Leave Link  103 at Wed Oct  7 13:18:36 2020, MaxMem=  2684354560 cpu:               8.1 elap:               1.6
 (Enter /udrive/faculty/rpeverati/g16/g16/l202.exe)
                          Input orientation:                          
 ---------------------------------------------------------------------
 Center     Atomic      Atomic             Coordinates (Angstroms)
 Number     Number       Type             X           Y           Z
 ---------------------------------------------------------------------
      1          7           0        0.103227   -0.665195    0.000000
      2          7           0        0.082292    0.477066    0.000000
      3          1           0       -1.200280    1.166470    0.000000
 ---------------------------------------------------------------------
                    Distance matrix (angstroms):
                    1          2          3
     1  N    0.000000
     2  N    1.142453   0.000000
     3  H    2.248138   1.456114   0.000000
 Stoichiometry    HN2(2)
 Framework group  CS[SG(HN2)]
 Deg. of freedom     3
 Full point group                 CS      NOp   2
 RotChk:  IX=0 Diff= 2.59D-02
 Largest Abelian subgroup         CS      NOp   2
 Largest concise Abelian subgroup C1      NOp   1
                         Standard orientation:                         
 ---------------------------------------------------------------------
 Center     Atomic      Atomic             Coordinates (Angstroms)
 Number     Number       Type             X           Y           Z
 ---------------------------------------------------------------------
      1          7           0        0.084648   -0.656827    0.000000
      2          7           0        0.084648    0.485625    0.000000
      3          1           0       -1.185075    1.198416    0.000000
 ---------------------------------------------------------------------
 Rotational constants (GHZ):         388.1818781          45.9070889          41.0521837
 Leave Link  202 at Wed Oct  7 13:18:37 2020, MaxMem=  2684354560 cpu:               2.0 elap:               0.7
 (Enter /udrive/faculty/rpeverati/g16/g16/l301.exe)
 Standard basis: 6-31G(d) (5D, 7F)
 Ernie: Thresh=  0.10000D-02 Tol=  0.10000D-05 Strict=F.
 There are    24 symmetry adapted cartesian basis functions of A'  symmetry.
 There are     8 symmetry adapted cartesian basis functions of A"  symmetry.
 There are    22 symmetry adapted basis functions of A'  symmetry.
 There are     8 symmetry adapted basis functions of A"  symmetry.
    30 basis functions,    60 primitive gaussians,    32 cartesian basis functions
     8 alpha electrons        7 beta electrons
       nuclear repulsion energy        26.8881226225 Hartrees.
 IExCor=  404 DFT=T Ex=B Corr=P86 ExCW=0 ScaHFX=  0.000000
 ScaDFX=  1.000000  1.000000  1.000000  1.000000 ScalE2=  1.000000  1.000000
 IRadAn=      5 IRanWt=     -1 IRanGd=            0 ICorTp=0 IEmpDi=  4
 NAtoms=    3 NActive=    3 NUniq=    3 SFac= 1.00D+00 NAtFMM=   60 NAOKFM=F Big=F
 Integral buffers will be    131072 words long.
 Raffenetti 2 integral format.
 Two-electron integral symmetry is turned on.
 Leave Link  301 at Wed Oct  7 13:18:38 2020, MaxMem=  2684354560 cpu:               1.8 elap:               0.6
 (Enter /udrive/faculty/rpeverati/g16/g16/l302.exe)
 NPDir=0 NMtPBC=     1 NCelOv=     1 NCel=       1 NClECP=     1 NCelD=      1
         NCelK=      1 NCelE2=     1 NClLst=     1 CellRange=     0.0.
 One-electron integrals computed using PRISM.
 One-electron integral symmetry used in STVInt
 NBasis=    30 RedAO= T EigKep=  6.47D-03  NBF=    22     8
 NBsUse=    30 1.00D-06 EigRej= -1.00D+00 NBFU=    22     8
 Precomputing XC quadrature grid using
 IXCGrd= 4 IRadAn=           5 IRanWt=          -1 IRanGd=           0 AccXCQ= 0.00D+00.
 Generated NRdTot=       0 NPtTot=           0 NUsed=           0 NTot=          32
 NSgBfM=    32    32    32    32    32 MxSgAt=     3 MxSgA2=     3.
 Leave Link  302 at Wed Oct  7 13:18:40 2020, MaxMem=  2684354560 cpu:               6.8 elap:               1.2
 (Enter /udrive/faculty/rpeverati/g16/g16/l303.exe)
 DipDrv:  MaxL=1.
 Leave Link  303 at Wed Oct  7 13:18:41 2020, MaxMem=  2684354560 cpu:               4.3 elap:               1.0
 (Enter /udrive/faculty/rpeverati/g16/g16/l401.exe)
 Initial guess from the checkpoint file:  "MN_59_hn2ts_BH76_BP86_631Gs.chk"
 SCF N**3 symmetry information disabled.
 B after Tr=    -0.000000    0.000000    0.000000
         Rot=    0.999989    0.000000    0.000000    0.004751 Ang=   0.54 deg.
 Guess basis will be translated and rotated to current coordinates.
 JPrj=2 DoOrth=T DoCkMO=T.
 Initial guess orbital symmetries:
 Alpha Orbitals:
       Occupied  (A') (A') (A') (A') (A') (A") (A') (A')
       Virtual   (A") (A') (A') (A') (A") (A') (A') (A") (A') (A')
                 (A') (A') (A") (A') (A") (A') (A") (A') (A') (A')
                 (A") (A')
 Beta  Orbitals:
       Occupied  (A') (A') (A') (A') (A') (A") (A')
       Virtual   (A') (A") (A') (A') (A') (A") (A') (A') (A") (A')
                 (A') (A') (A') (A") (A') (A") (A') (A") (A') (A')
                 (A") (A') (A')
 The electronic state of the initial guess is 2-A'.
 Initial guess <Sx>= 0.0000 <Sy>= 0.0000 <Sz>= 0.5000 <S**2>= 0.7566 S= 0.5033
 Generating alternative initial guess.
 ExpMin= 1.61D-01 ExpMax= 4.17D+03 ExpMxC= 6.27D+02 IAcc=2 IRadAn=         4 AccDes= 0.00D+00
 Harris functional with IExCor=  404 and IRadAn=       4 diagonalized for initial guess.
 HarFok:  IExCor=  404 AccDes= 0.00D+00 IRadAn=         4 IDoV= 1 UseB2=F ITyADJ=14
 ICtDFT=  3500011 ScaDFX=  1.000000  1.000000  1.000000  1.000000
 FoFCou: FMM=F IPFlag=           0 FMFlag=      100000 FMFlg1=           0
         NFxFlg=           0 DoJE=T BraDBF=F KetDBF=T FulRan=T
         wScrn=  0.000000 ICntrl=       500 IOpCl=  0 I1Cent=   200000004 NGrid=           0
         NMat0=    1 NMatS0=      1 NMatT0=    0 NMatD0=    1 NMtDS0=    0 NMtDT0=    0
 Petite list used in FoFCou.
 Harris En= -109.976528667621    
 Leave Link  401 at Wed Oct  7 13:18:44 2020, MaxMem=  2684354560 cpu:              24.1 elap:               3.1
 (Enter /udrive/faculty/rpeverati/g16/g16/l502.exe)
 Keep J ints in memory in symmetry-blocked form, NReq=10459184.
 FoFCou: FMM=F IPFlag=           0 FMFlag=           0 FMFlg1=           0
         NFxFlg=           0 DoJE=F BraDBF=F KetDBF=F FulRan=T
         wScrn=  0.000000 ICntrl=       600 IOpCl=  0 I1Cent=           0 NGrid=           0
         NMat0=    1 NMatS0=    465 NMatT0=    0 NMatD0=    1 NMtDS0=    0 NMtDT0=    0
 Petite list used in FoFCou.
 UHF open shell SCF:
 Using DIIS extrapolation, IDIIS=  1040.
 NGot=  2684354560 LenX=  2684292770 LenY=  2684291305
 Requested convergence on RMS density matrix=1.00D-08 within 120 cycles.
 Requested convergence on MAX density matrix=1.00D-06.
 Requested convergence on             energy=1.00D-06.
 No special actions if energy rises.
 Integral accuracy reduced to 1.0D-05 until final iterations.

 Cycle   1  Pass 0  IDiag  1:
 E= -110.015729627861    
 DIIS: error= 2.42D-03 at cycle   1 NSaved=   1.
 NSaved= 1 IEnMin= 1 EnMin= -110.015729627861     IErMin= 1 ErrMin= 2.42D-03
 ErrMax= 2.42D-03  0.00D+00 EMaxC= 1.00D-01 BMatC= 1.12D-03 BMatP= 1.12D-03
 IDIUse=3 WtCom= 9.76D-01 WtEn= 2.42D-02
 Coeff-Com:  0.100D+01
 Coeff-En:   0.100D+01
 Coeff:      0.100D+01
 Gap=     0.121 Goal=   None    Shift=    0.000
 Gap=     0.233 Goal=   None    Shift=    0.000
 GapD=    0.121 DampG=1.000 DampE=1.000 DampFc=1.0000 IDamp=-1.
 RMSDP=9.49D-04 MaxDP=6.68D-03              OVMax= 1.05D-02

 Cycle   2  Pass 0  IDiag  1:
 E= -110.015961850268     Delta-E=       -0.000232222407 Rises=F Damp=F
 DIIS: error= 2.06D-03 at cycle   2 NSaved=   2.
 NSaved= 2 IEnMin= 2 EnMin= -110.015961850268     IErMin= 2 ErrMin= 2.06D-03
 ErrMax= 2.06D-03  0.00D+00 EMaxC= 1.00D-01 BMatC= 5.73D-04 BMatP= 1.12D-03
 IDIUse=3 WtCom= 9.79D-01 WtEn= 2.06D-02
 Coeff-Com:  0.385D+00 0.615D+00
 Coeff-En:   0.000D+00 0.100D+01
 Coeff:      0.377D+00 0.623D+00
 Gap=     0.119 Goal=   None    Shift=    0.000
 Gap=     0.234 Goal=   None    Shift=    0.000
 RMSDP=5.57D-04 MaxDP=6.01D-03 DE=-2.32D-04 OVMax= 8.72D-03

 Cycle   3  Pass 0  IDiag  1:
 E= -110.015887512938     Delta-E=        0.000074337330 Rises=F Damp=F
 DIIS: error= 3.77D-03 at cycle   3 NSaved=   3.
 NSaved= 3 IEnMin= 2 EnMin= -110.015961850268     IErMin= 2 ErrMin= 2.06D-03
 ErrMax= 3.77D-03  0.00D+00 EMaxC= 1.00D-01 BMatC= 1.00D-03 BMatP= 5.73D-04
 IDIUse=3 WtCom= 1.40D-01 WtEn= 8.60D-01
 Coeff-Com:  0.126D+00 0.528D+00 0.346D+00
 Coeff-En:   0.000D+00 0.585D+00 0.415D+00
 Coeff:      0.177D-01 0.577D+00 0.405D+00
 Gap=     0.119 Goal=   None    Shift=    0.000
 Gap=     0.234 Goal=   None    Shift=    0.000
 RMSDP=4.08D-04 MaxDP=4.05D-03 DE= 7.43D-05 OVMax= 7.24D-03

 Cycle   4  Pass 0  IDiag  1:
 E= -110.016046360564     Delta-E=       -0.000158847626 Rises=F Damp=F
 DIIS: error= 1.31D-03 at cycle   4 NSaved=   4.
 NSaved= 4 IEnMin= 4 EnMin= -110.016046360564     IErMin= 4 ErrMin= 1.31D-03
 ErrMax= 1.31D-03  0.00D+00 EMaxC= 1.00D-01 BMatC= 1.78D-04 BMatP= 5.73D-04
 IDIUse=3 WtCom= 9.87D-01 WtEn= 1.31D-02
 EnCoef did     6 forward-backward iterations
 Coeff-Com:  0.137D-01 0.306D+00 0.298D+00 0.382D+00
 Coeff-En:   0.000D+00 0.143D+00 0.230D+00 0.627D+00
 Coeff:      0.135D-01 0.304D+00 0.297D+00 0.385D+00
 Gap=     0.120 Goal=   None    Shift=    0.000
 Gap=     0.233 Goal=   None    Shift=    0.000
 RMSDP=2.82D-04 MaxDP=4.45D-03 DE=-1.59D-04 OVMax= 5.78D-03

 Cycle   5  Pass 0  IDiag  1:
 E= -110.016091119603     Delta-E=       -0.000044759039 Rises=F Damp=F
 DIIS: error= 1.41D-04 at cycle   5 NSaved=   5.
 NSaved= 5 IEnMin= 5 EnMin= -110.016091119603     IErMin= 5 ErrMin= 1.41D-04
 ErrMax= 1.41D-04  0.00D+00 EMaxC= 1.00D-01 BMatC= 2.76D-06 BMatP= 1.78D-04
 IDIUse=3 WtCom= 9.99D-01 WtEn= 1.41D-03
 Coeff-Com: -0.127D-03 0.118D+00 0.125D+00 0.211D+00 0.546D+00
 Coeff-En:   0.000D+00 0.000D+00 0.000D+00 0.000D+00 0.100D+01
 Coeff:     -0.127D-03 0.117D+00 0.125D+00 0.211D+00 0.547D+00
 Gap=     0.120 Goal=   None    Shift=    0.000
 Gap=     0.234 Goal=   None    Shift=    0.000
 RMSDP=4.76D-05 MaxDP=7.11D-04 DE=-4.48D-05 OVMax= 1.02D-03

 Cycle   6  Pass 0  IDiag  1:
 E= -110.016092188279     Delta-E=       -0.000001068676 Rises=F Damp=F
 DIIS: error= 1.48D-05 at cycle   6 NSaved=   6.
 NSaved= 6 IEnMin= 6 EnMin= -110.016092188279     IErMin= 6 ErrMin= 1.48D-05
 ErrMax= 1.48D-05  0.00D+00 EMaxC= 1.00D-01 BMatC= 2.23D-08 BMatP= 2.76D-06
 IDIUse=1 WtCom= 1.00D+00 WtEn= 0.00D+00
 Coeff-Com: -0.103D-02 0.160D-02 0.521D-02 0.184D-01 0.862D-01 0.890D+00
 Coeff:     -0.103D-02 0.160D-02 0.521D-02 0.184D-01 0.862D-01 0.890D+00
 Gap=     0.120 Goal=   None    Shift=    0.000
 Gap=     0.234 Goal=   None    Shift=    0.000
 RMSDP=4.02D-06 MaxDP=3.31D-05 DE=-1.07D-06 OVMax= 8.34D-05

 Initial convergence to 1.0D-05 achieved.  Increase integral accuracy.
 Cycle   7  Pass 1  IDiag  1:
 E= -110.016092746845     Delta-E=       -0.000000558566 Rises=F Damp=F
 DIIS: error= 4.42D-06 at cycle   1 NSaved=   1.
 NSaved= 1 IEnMin= 1 EnMin= -110.016092746845     IErMin= 1 ErrMin= 4.42D-06
 ErrMax= 4.42D-06  0.00D+00 EMaxC= 1.00D-01 BMatC= 3.11D-09 BMatP= 3.11D-09
 IDIUse=1 WtCom= 1.00D+00 WtEn= 0.00D+00
 Coeff-Com:  0.100D+01
 Coeff:      0.100D+01
 Gap=     0.120 Goal=   None    Shift=    0.000
 Gap=     0.234 Goal=   None    Shift=    0.000
 RMSDP=4.02D-06 MaxDP=3.31D-05 DE=-5.59D-07 OVMax= 9.93D-05

 Cycle   8  Pass 1  IDiag  1:
 E= -110.016092743394     Delta-E=        0.000000003451 Rises=F Damp=F
 DIIS: error= 1.58D-05 at cycle   2 NSaved=   2.
 NSaved= 2 IEnMin= 1 EnMin= -110.016092746845     IErMin= 1 ErrMin= 4.42D-06
 ErrMax= 1.58D-05  0.00D+00 EMaxC= 1.00D-01 BMatC= 1.92D-08 BMatP= 3.11D-09
 IDIUse=1 WtCom= 1.00D+00 WtEn= 0.00D+00
 Coeff-Com:  0.739D+00 0.261D+00
 Coeff:      0.739D+00 0.261D+00
 Gap=     0.120 Goal=   None    Shift=    0.000
 Gap=     0.234 Goal=   None    Shift=    0.000
 RMSDP=2.28D-06 MaxDP=2.94D-05 DE= 3.45D-09 OVMax= 4.24D-05

 Cycle   9  Pass 1  IDiag  1:
 E= -110.016092748021     Delta-E=       -0.000000004627 Rises=F Damp=F
 DIIS: error= 4.09D-06 at cycle   3 NSaved=   3.
 NSaved= 3 IEnMin= 3 EnMin= -110.016092748021     IErMin= 3 ErrMin= 4.09D-06
 ErrMax= 4.09D-06  0.00D+00 EMaxC= 1.00D-01 BMatC= 1.51D-09 BMatP= 3.11D-09
 IDIUse=1 WtCom= 1.00D+00 WtEn= 0.00D+00
 Coeff-Com:  0.371D+00 0.189D+00 0.440D+00
 Coeff:      0.371D+00 0.189D+00 0.440D+00
 Gap=     0.120 Goal=   None    Shift=    0.000
 Gap=     0.234 Goal=   None    Shift=    0.000
 RMSDP=7.03D-07 MaxDP=8.86D-06 DE=-4.63D-09 OVMax= 1.07D-05

 Cycle  10  Pass 1  IDiag  1:
 E= -110.016092748353     Delta-E=       -0.000000000332 Rises=F Damp=F
 DIIS: error= 8.41D-07 at cycle   4 NSaved=   4.
 NSaved= 4 IEnMin= 4 EnMin= -110.016092748353     IErMin= 4 ErrMin= 8.41D-07
 ErrMax= 8.41D-07  0.00D+00 EMaxC= 1.00D-01 BMatC= 1.18D-10 BMatP= 1.51D-09
 IDIUse=1 WtCom= 1.00D+00 WtEn= 0.00D+00
 Coeff-Com:  0.613D-01 0.466D-01 0.229D+00 0.664D+00
 Coeff:      0.613D-01 0.466D-01 0.229D+00 0.664D+00
 Gap=     0.120 Goal=   None    Shift=    0.000
 Gap=     0.234 Goal=   None    Shift=    0.000
 RMSDP=2.50D-07 MaxDP=3.62D-06 DE=-3.32D-10 OVMax= 4.75D-06

 Cycle  11  Pass 1  IDiag  1:
 E= -110.016092748387     Delta-E=       -0.000000000034 Rises=F Damp=F
 DIIS: error= 2.29D-07 at cycle   5 NSaved=   5.
 NSaved= 5 IEnMin= 5 EnMin= -110.016092748387     IErMin= 5 ErrMin= 2.29D-07
 ErrMax= 2.29D-07  0.00D+00 EMaxC= 1.00D-01 BMatC= 7.16D-12 BMatP= 1.18D-10
 IDIUse=1 WtCom= 1.00D+00 WtEn= 0.00D+00
 Coeff-Com: -0.519D-01-0.161D-01-0.152D-01 0.162D+00 0.921D+00
 Coeff:     -0.519D-01-0.161D-01-0.152D-01 0.162D+00 0.921D+00
 Gap=     0.120 Goal=   None    Shift=    0.000
 Gap=     0.234 Goal=   None    Shift=    0.000
 RMSDP=7.10D-08 MaxDP=5.16D-07 DE=-3.41D-11 OVMax= 1.46D-06

 Cycle  12  Pass 1  IDiag  1:
 E= -110.016092748390     Delta-E=       -0.000000000003 Rises=F Damp=F
 DIIS: error= 5.93D-08 at cycle   6 NSaved=   6.
 NSaved= 6 IEnMin= 6 EnMin= -110.016092748390     IErMin= 6 ErrMin= 5.93D-08
 ErrMax= 5.93D-08  0.00D+00 EMaxC= 1.00D-01 BMatC= 4.83D-13 BMatP= 7.16D-12
 IDIUse=1 WtCom= 1.00D+00 WtEn= 0.00D+00
 Coeff-Com: -0.153D-01-0.371D-02-0.112D-01 0.479D-02 0.262D+00 0.764D+00
 Coeff:     -0.153D-01-0.371D-02-0.112D-01 0.479D-02 0.262D+00 0.764D+00
 Gap=     0.120 Goal=   None    Shift=    0.000
 Gap=     0.234 Goal=   None    Shift=    0.000
 RMSDP=2.68D-08 MaxDP=3.45D-07 DE=-2.93D-12 OVMax= 5.95D-07

 Cycle  13  Pass 1  IDiag  1:
 E= -110.016092748390     Delta-E=       -0.000000000000 Rises=F Damp=F
 DIIS: error= 2.32D-08 at cycle   7 NSaved=   7.
 NSaved= 7 IEnMin= 7 EnMin= -110.016092748390     IErMin= 7 ErrMin= 2.32D-08
 ErrMax= 2.32D-08  0.00D+00 EMaxC= 1.00D-01 BMatC= 2.71D-14 BMatP= 4.83D-13
 IDIUse=1 WtCom= 1.00D+00 WtEn= 0.00D+00
 Coeff-Com:  0.160D-02 0.143D-03 0.216D-03-0.118D-01-0.391D-01 0.120D+00
 Coeff-Com:  0.929D+00
 Coeff:      0.160D-02 0.143D-03 0.216D-03-0.118D-01-0.391D-01 0.120D+00
 Coeff:      0.929D+00
 Gap=     0.120 Goal=   None    Shift=    0.000
 Gap=     0.234 Goal=   None    Shift=    0.000
 RMSDP=4.94D-09 MaxDP=6.25D-08 DE=-2.84D-13 OVMax= 1.06D-07

 SCF Done:  E(UB-P86) =  -110.016092748     A.U. after   13 cycles
            NFock= 13  Conv=0.49D-08     -V/T= 2.0082
 <Sx>= 0.0000 <Sy>= 0.0000 <Sz>= 0.5000 <S**2>= 0.7569 S= 0.5035
 <L.S>= 0.000000000000E+00
 KE= 1.091219332167D+02 PE=-3.107214632157D+02 EE= 6.469531462818D+01
 Annihilation of the first spin contaminant:
 S**2 before annihilation     0.7569,   after     0.7500
 Leave Link  502 at Wed Oct  7 13:18:53 2020, MaxMem=  2684354560 cpu:              82.9 elap:               8.6
 (Enter /udrive/faculty/rpeverati/g16/g16/l508.exe)
 QCSCF skips out because SCF is already converged.
 Leave Link  508 at Wed Oct  7 13:18:55 2020, MaxMem=  2684354560 cpu:               0.7 elap:               0.7
 (Enter /udrive/faculty/rpeverati/g16/g16/l701.exe)
 ... and contract with generalized density number  0.
 Compute integral first derivatives.
 Leave Link  701 at Wed Oct  7 13:18:56 2020, MaxMem=  2684354560 cpu:               6.1 elap:               1.5
 (Enter /udrive/faculty/rpeverati/g16/g16/l702.exe)
 L702 exits ... SP integral derivatives will be done elsewhere.
 Leave Link  702 at Wed Oct  7 13:18:58 2020, MaxMem=  2684354560 cpu:               2.1 elap:               0.8
 (Enter /udrive/faculty/rpeverati/g16/g16/l703.exe)
 Integral derivatives from FoFJK, PRISM(SPDF).
 Compute integral first derivatives, UseDBF=F ICtDFT=           0.
 Calling FoFJK, ICntrl=      2527 FMM=F ISym2X=1 I1Cent= 0 IOpClX= 0 NMat=1 NMatS=1 NMatT=0.
 FoFJK:  IHMeth= 1 ICntrl=    2527 DoSepK=F KAlg= 0 I1Cent=           0 FoldK=F
 IRaf=         0 NMat=       1 IRICut=       1 DoRegI=T DoRafI=F ISym2E= 1 IDoP0=0 IntGTp=1.
 FoFCou: FMM=F IPFlag=           0 FMFlag=      100000 FMFlg1=         800
         NFxFlg=           0 DoJE=F BraDBF=F KetDBF=F FulRan=T
         wScrn=  0.000000 ICntrl=      2527 IOpCl=  0 I1Cent=           0 NGrid=           0
         NMat0=    1 NMatS0=      1 NMatT0=    0 NMatD0=    1 NMtDS0=    0 NMtDT0=    0
 Petite list used in FoFCou.
 Leave Link  703 at Wed Oct  7 13:18:59 2020, MaxMem=  2684354560 cpu:               6.2 elap:               1.2
 (Enter /udrive/faculty/rpeverati/g16/g16/l716.exe)
 Dipole        =-1.88023637D-01 1.87163155D-01 0.00000000D+00
 ***** Axes restored to original set *****
 -------------------------------------------------------------------
 Center     Atomic                   Forces (Hartrees/Bohr)
 Number     Number              X              Y              Z
 -------------------------------------------------------------------
      1        7          -0.000191171   -0.004382101   -0.000000000
      2        7          -0.009534962    0.009852121   -0.000000000
      3        1           0.009726133   -0.005470020   -0.000000000
 -------------------------------------------------------------------
 Cartesian Forces:  Max     0.009852121 RMS     0.006071225
 Leave Link  716 at Wed Oct  7 13:19:00 2020, MaxMem=  2684354560 cpu:               2.0 elap:               0.7
 (Enter /udrive/faculty/rpeverati/g16/g16/l103.exe)

 GradGradGradGradGradGradGradGradGradGradGradGradGradGradGradGradGradGrad
 Berny optimization.
 Optmz: redundant internal coordinate code flag= 1
 Red2BG:  D1=  5.78D-01 OD1=  6.68D-03 B2RMS=  0.00D+00 IAprox=0
 FormGI is forming the generalized inverse of G from B-inverse, IUseBI=4.
 Internal  Forces:  Max     0.011156803 RMS     0.006927821
 Search for a saddle point.
 Step number   2 out of a maximum of   50
 All quantities printed in internal units (Hartrees-Bohrs-Radians)
 Swapping is turned off.
 Update second derivatives using D2CorX and points    1    2
 The second derivative matrix:
                          R1        R2        A1
           R1           1.50335
           R2          -0.05117   0.08432
           A1           0.00400   0.00636   0.16656
 ITU=  0  0
 Eigenvectors of the second derivative matrix:
                           1         2         3
     Eigenvalues --     0.08198   0.16705   1.50521
   1         R1         0.03609   0.00005  -0.99935
   2         R2         0.99641  -0.07664   0.03598
   3         A1        -0.07659  -0.99706  -0.00282
 Eigenvalue     1 is   8.20D-02 should be less than     0.000000 Eigenvector:
                          R2        A1        R1
   1                    0.99641  -0.07659   0.03609
 RLam0= 8.34D-02.
 Iter=   1 RLamda= 0.00000000D+00 Sum=-2.75579754D-05.
 Iter=   2 RLamda=-2.75579754D-05 Sum=-2.75556509D-05.
 RFO step:  Lambda0=8.341083263D-02 Lambda=-2.75579754D-05.
 Linear search not attempted -- option 19 set.
 Iteration  1 RMS(Cart)=  0.00607192 RMS(Int)=  0.00002544
 Iteration  2 RMS(Cart)=  0.00002984 RMS(Int)=  0.00000000
 Iteration  3 RMS(Cart)=  0.00000000 RMS(Int)=  0.00000000
 ITry= 1 IFail=0 DXMaxC= 8.13D-03 DCOld= 1.00D+10 DXMaxT= 1.00D-01 DXLimC= 3.00D+00 Rises=F
 ClnCor:  largest displacement from symmetrization is 9.93D-16 for atom     3.
 Variable       Old X    -DE/DX   Delta X   Delta X   Delta X     New X
                                 (Linear)    (Quad)   (Total)
    R1        2.15892   0.00438   0.00000   0.00350   0.00350   2.16242
    R2        2.75166  -0.01116   0.00000   0.00838   0.00838   2.76003
    A1        2.08233  -0.00059   0.00000  -0.00929  -0.00929   2.07304
         Item               Value     Threshold  Converged?
 Maximum Force            0.011157     0.000450     NO 
 RMS     Force            0.006928     0.000300     NO 
 Maximum Displacement     0.008127     0.001800     NO 
 RMS     Displacement     0.006081     0.001200     NO 
 Predicted change in Energy= 8.990525D-05
 Lowest energy point so far.  Saving SCF results.
 Largest change from initial coordinates is atom    3       0.056 Angstoms.
 GradGradGradGradGradGradGradGradGradGradGradGradGradGradGradGradGradGrad

 Leave Link  103 at Wed Oct  7 13:19:02 2020, MaxMem=  2684354560 cpu:               4.4 elap:               1.0
 (Enter /udrive/faculty/rpeverati/g16/g16/l202.exe)
                          Input orientation:                          
 ---------------------------------------------------------------------
 Center     Atomic      Atomic             Coordinates (Angstroms)
 Number     Number       Type             X           Y           Z
 ---------------------------------------------------------------------
      1          7           0        0.100944   -0.665694    0.000000
      2          7           0        0.086593    0.478522    0.000000
      3          1           0       -1.202297    1.165513    0.000000
 ---------------------------------------------------------------------
                    Distance matrix (angstroms):
                    1          2          3
     1  N    0.000000
     2  N    1.144306   0.000000
     3  H    2.247612   1.460547   0.000000
 Stoichiometry    HN2(2)
 Framework group  CS[SG(HN2)]
 Deg. of freedom     3
 Full point group                 CS      NOp   2
 RotChk:  IX=0 Diff= 8.18D-03
 Largest Abelian subgroup         CS      NOp   2
 Largest concise Abelian subgroup C1      NOp   1
                         Standard orientation:                         
 ---------------------------------------------------------------------
 Center     Atomic      Atomic             Coordinates (Angstroms)
 Number     Number       Type             X           Y           Z
 ---------------------------------------------------------------------
      1          7           0        0.085345   -0.657170    0.000000
      2          7           0        0.085345    0.487136    0.000000
      3          1           0       -1.194829    1.190238    0.000000
 ---------------------------------------------------------------------
 Rotational constants (GHZ):         380.9474554          45.8693727          40.9398591
 Leave Link  202 at Wed Oct  7 13:19:03 2020, MaxMem=  2684354560 cpu:               2.5 elap:               0.8
 (Enter /udrive/faculty/rpeverati/g16/g16/l301.exe)
 Standard basis: 6-31G(d) (5D, 7F)
 Ernie: Thresh=  0.10000D-02 Tol=  0.10000D-05 Strict=F.
 There are    24 symmetry adapted cartesian basis functions of A'  symmetry.
 There are     8 symmetry adapted cartesian basis functions of A"  symmetry.
 There are    22 symmetry adapted basis functions of A'  symmetry.
 There are     8 symmetry adapted basis functions of A"  symmetry.
    30 basis functions,    60 primitive gaussians,    32 cartesian basis functions
     8 alpha electrons        7 beta electrons
       nuclear repulsion energy        26.8440328809 Hartrees.
 IExCor=  404 DFT=T Ex=B Corr=P86 ExCW=0 ScaHFX=  0.000000
 ScaDFX=  1.000000  1.000000  1.000000  1.000000 ScalE2=  1.000000  1.000000
 IRadAn=      5 IRanWt=     -1 IRanGd=            0 ICorTp=0 IEmpDi=  4
 NAtoms=    3 NActive=    3 NUniq=    3 SFac= 1.00D+00 NAtFMM=   60 NAOKFM=F Big=F
 Integral buffers will be    131072 words long.
 Raffenetti 2 integral format.
 Two-electron integral symmetry is turned on.
 Leave Link  301 at Wed Oct  7 13:19:04 2020, MaxMem=  2684354560 cpu:               1.7 elap:               0.7
 (Enter /udrive/faculty/rpeverati/g16/g16/l302.exe)
 NPDir=0 NMtPBC=     1 NCelOv=     1 NCel=       1 NClECP=     1 NCelD=      1
         NCelK=      1 NCelE2=     1 NClLst=     1 CellRange=     0.0.
 One-electron integrals computed using PRISM.
 One-electron integral symmetry used in STVInt
 NBasis=    30 RedAO= T EigKep=  6.52D-03  NBF=    22     8
 NBsUse=    30 1.00D-06 EigRej= -1.00D+00 NBFU=    22     8
 Precomputing XC quadrature grid using
 IXCGrd= 4 IRadAn=           5 IRanWt=          -1 IRanGd=           0 AccXCQ= 0.00D+00.
 Generated NRdTot=       0 NPtTot=           0 NUsed=           0 NTot=          32
 NSgBfM=    32    32    32    32    32 MxSgAt=     3 MxSgA2=     3.
 Leave Link  302 at Wed Oct  7 13:19:05 2020, MaxMem=  2684354560 cpu:               9.9 elap:               1.5
 (Enter /udrive/faculty/rpeverati/g16/g16/l303.exe)
 DipDrv:  MaxL=1.
 Leave Link  303 at Wed Oct  7 13:19:07 2020, MaxMem=  2684354560 cpu:               3.4 elap:               1.0
 (Enter /udrive/faculty/rpeverati/g16/g16/l401.exe)
 Initial guess from the checkpoint file:  "MN_59_hn2ts_BH76_BP86_631Gs.chk"
 SCF N**3 symmetry information disabled.
 B after Tr=    -0.000000    0.000000    0.000000
         Rot=    0.999999    0.000000    0.000000   -0.001503 Ang=  -0.17 deg.
 Guess basis will be translated and rotated to current coordinates.
 JPrj=2 DoOrth=T DoCkMO=T.
 Initial guess orbital symmetries:
 Alpha Orbitals:
       Occupied  (A') (A') (A') (A') (A') (A") (A') (A')
       Virtual   (A") (A') (A') (A') (A") (A') (A') (A") (A') (A')
                 (A') (A') (A") (A') (A") (A') (A") (A') (A') (A')
                 (A") (A')
 Beta  Orbitals:
       Occupied  (A') (A') (A') (A') (A') (A") (A')
       Virtual   (A') (A") (A') (A') (A') (A") (A') (A') (A") (A')
                 (A') (A') (A') (A") (A') (A") (A') (A") (A') (A')
                 (A") (A') (A')
 The electronic state of the initial guess is 2-A'.
 Initial guess <Sx>= 0.0000 <Sy>= 0.0000 <Sz>= 0.5000 <S**2>= 0.7570 S= 0.5035
 Leave Link  401 at Wed Oct  7 13:19:09 2020, MaxMem=  2684354560 cpu:              10.5 elap:               1.6
 (Enter /udrive/faculty/rpeverati/g16/g16/l502.exe)
 Keep J ints in memory in symmetry-blocked form, NReq=10459184.
 FoFCou: FMM=F IPFlag=           0 FMFlag=           0 FMFlg1=           0
         NFxFlg=           0 DoJE=F BraDBF=F KetDBF=F FulRan=T
         wScrn=  0.000000 ICntrl=       600 IOpCl=  0 I1Cent=           0 NGrid=           0
         NMat0=    1 NMatS0=    465 NMatT0=    0 NMatD0=    1 NMtDS0=    0 NMtDT0=    0
 Petite list used in FoFCou.
 UHF open shell SCF:
 Using DIIS extrapolation, IDIIS=  1040.
 NGot=  2684354560 LenX=  2684292770 LenY=  2684291305
 Requested convergence on RMS density matrix=1.00D-08 within 120 cycles.
 Requested convergence on MAX density matrix=1.00D-06.
 Requested convergence on             energy=1.00D-06.
 No special actions if energy rises.

 Cycle   1  Pass 1  IDiag  1:
 E= -110.015993753691    
 DIIS: error= 4.14D-04 at cycle   1 NSaved=   1.
 NSaved= 1 IEnMin= 1 EnMin= -110.015993753691     IErMin= 1 ErrMin= 4.14D-04
 ErrMax= 4.14D-04  0.00D+00 EMaxC= 1.00D-01 BMatC= 2.88D-05 BMatP= 2.88D-05
 IDIUse=3 WtCom= 9.96D-01 WtEn= 4.14D-03
 Coeff-Com:  0.100D+01
 Coeff-En:   0.100D+01
 Coeff:      0.100D+01
 Gap=     0.120 Goal=   None    Shift=    0.000
 Gap=     0.233 Goal=   None    Shift=    0.000
 RMSDP=1.83D-04 MaxDP=1.42D-03              OVMax= 3.07D-03

 Cycle   2  Pass 1  IDiag  1:
 E= -110.016006112601     Delta-E=       -0.000012358910 Rises=F Damp=F
 DIIS: error= 1.66D-04 at cycle   2 NSaved=   2.
 NSaved= 2 IEnMin= 2 EnMin= -110.016006112601     IErMin= 2 ErrMin= 1.66D-04
 ErrMax= 1.66D-04  0.00D+00 EMaxC= 1.00D-01 BMatC= 4.64D-06 BMatP= 2.88D-05
 IDIUse=3 WtCom= 9.98D-01 WtEn= 1.66D-03
 Coeff-Com:  0.189D+00 0.811D+00
 Coeff-En:   0.000D+00 0.100D+01
 Coeff:      0.189D+00 0.811D+00
 Gap=     0.120 Goal=   None    Shift=    0.000
 Gap=     0.233 Goal=   None    Shift=    0.000
 RMSDP=6.76D-05 MaxDP=1.03D-03 DE=-1.24D-05 OVMax= 8.56D-04

 Cycle   3  Pass 1  IDiag  1:
 E= -110.016005593281     Delta-E=        0.000000519320 Rises=F Damp=F
 DIIS: error= 2.82D-04 at cycle   3 NSaved=   3.
 NSaved= 3 IEnMin= 2 EnMin= -110.016006112601     IErMin= 2 ErrMin= 1.66D-04
 ErrMax= 2.82D-04  0.00D+00 EMaxC= 1.00D-01 BMatC= 7.68D-06 BMatP= 4.64D-06
 IDIUse=3 WtCom= 3.73D-01 WtEn= 6.27D-01
 Coeff-Com:  0.262D-01 0.561D+00 0.412D+00
 Coeff-En:   0.000D+00 0.576D+00 0.424D+00
 Coeff:      0.976D-02 0.571D+00 0.419D+00
 Gap=     0.120 Goal=   None    Shift=    0.000
 Gap=     0.233 Goal=   None    Shift=    0.000
 RMSDP=4.03D-05 MaxDP=4.53D-04 DE= 5.19D-07 OVMax= 7.21D-04

 Cycle   4  Pass 1  IDiag  1:
 E= -110.016006759800     Delta-E=       -0.000001166519 Rises=F Damp=F
 DIIS: error= 1.96D-04 at cycle   4 NSaved=   4.
 NSaved= 4 IEnMin= 4 EnMin= -110.016006759800     IErMin= 2 ErrMin= 1.66D-04
 ErrMax= 1.96D-04  0.00D+00 EMaxC= 1.00D-01 BMatC= 2.74D-06 BMatP= 4.64D-06
 IDIUse=3 WtCom= 9.98D-01 WtEn= 1.96D-03
 EnCoef did     5 forward-backward iterations
 Coeff-Com: -0.434D-02 0.330D+00 0.345D+00 0.329D+00
 Coeff-En:   0.000D+00 0.142D+00 0.269D+00 0.589D+00
 Coeff:     -0.433D-02 0.329D+00 0.345D+00 0.330D+00
 Gap=     0.120 Goal=   None    Shift=    0.000
 Gap=     0.233 Goal=   None    Shift=    0.000
 RMSDP=2.66D-05 MaxDP=3.59D-04 DE=-1.17D-06 OVMax= 4.95D-04

 Cycle   5  Pass 1  IDiag  1:
 E= -110.016007325275     Delta-E=       -0.000000565474 Rises=F Damp=F
 DIIS: error= 3.33D-05 at cycle   5 NSaved=   5.
 NSaved= 5 IEnMin= 5 EnMin= -110.016007325275     IErMin= 5 ErrMin= 3.33D-05
 ErrMax= 3.33D-05  0.00D+00 EMaxC= 1.00D-01 BMatC= 1.06D-07 BMatP= 2.74D-06
 IDIUse=1 WtCom= 1.00D+00 WtEn= 0.00D+00
 Coeff-Com: -0.313D-02 0.918D-01 0.120D+00 0.205D+00 0.586D+00
 Coeff:     -0.313D-02 0.918D-01 0.120D+00 0.205D+00 0.586D+00
 Gap=     0.120 Goal=   None    Shift=    0.000
 Gap=     0.233 Goal=   None    Shift=    0.000
 RMSDP=8.77D-06 MaxDP=1.27D-04 DE=-5.65D-07 OVMax= 1.86D-04

 Cycle   6  Pass 1  IDiag  1:
 E= -110.016007360544     Delta-E=       -0.000000035269 Rises=F Damp=F
 DIIS: error= 2.93D-06 at cycle   6 NSaved=   6.
 NSaved= 6 IEnMin= 6 EnMin= -110.016007360544     IErMin= 6 ErrMin= 2.93D-06
 ErrMax= 2.93D-06  0.00D+00 EMaxC= 1.00D-01 BMatC= 1.84D-09 BMatP= 1.06D-07
 IDIUse=1 WtCom= 1.00D+00 WtEn= 0.00D+00
 Coeff-Com:  0.827D-04-0.386D-01-0.441D-01-0.331D-01 0.380D-01 0.108D+01
 Coeff:      0.827D-04-0.386D-01-0.441D-01-0.331D-01 0.380D-01 0.108D+01
 Gap=     0.120 Goal=   None    Shift=    0.000
 Gap=     0.233 Goal=   None    Shift=    0.000
 RMSDP=1.75D-06 MaxDP=1.78D-05 DE=-3.53D-08 OVMax= 3.08D-05

 Cycle   7  Pass 1  IDiag  1:
 E= -110.016007361736     Delta-E=       -0.000000001192 Rises=F Damp=F
 DIIS: error= 1.03D-06 at cycle   7 NSaved=   7.
 NSaved= 7 IEnMin= 7 EnMin= -110.016007361736     IErMin= 7 ErrMin= 1.03D-06
 ErrMax= 1.03D-06  0.00D+00 EMaxC= 1.00D-01 BMatC= 1.42D-10 BMatP= 1.84D-09
 IDIUse=1 WtCom= 1.00D+00 WtEn= 0.00D+00
 Coeff-Com: -0.749D-05-0.145D-01-0.176D-01-0.179D-01-0.159D-01 0.285D+00
 Coeff-Com:  0.781D+00
 Coeff:     -0.749D-05-0.145D-01-0.176D-01-0.179D-01-0.159D-01 0.285D+00
 Coeff:      0.781D+00
 Gap=     0.120 Goal=   None    Shift=    0.000
 Gap=     0.233 Goal=   None    Shift=    0.000
 RMSDP=3.24D-07 MaxDP=3.39D-06 DE=-1.19D-09 OVMax= 5.57D-06

 Cycle   8  Pass 1  IDiag  1:
 E= -110.016007361806     Delta-E=       -0.000000000070 Rises=F Damp=F
 DIIS: error= 3.97D-07 at cycle   8 NSaved=   8.
 NSaved= 8 IEnMin= 8 EnMin= -110.016007361806     IErMin= 8 ErrMin= 3.97D-07
 ErrMax= 3.97D-07  0.00D+00 EMaxC= 1.00D-01 BMatC= 1.63D-11 BMatP= 1.42D-10
 IDIUse=1 WtCom= 1.00D+00 WtEn= 0.00D+00
 Coeff-Com:  0.505D-04 0.622D-02 0.699D-02 0.527D-02-0.693D-02-0.173D+00
 Coeff-Com:  0.665D-01 0.110D+01
 Coeff:      0.505D-04 0.622D-02 0.699D-02 0.527D-02-0.693D-02-0.173D+00
 Coeff:      0.665D-01 0.110D+01
 Gap=     0.120 Goal=   None    Shift=    0.000
 Gap=     0.233 Goal=   None    Shift=    0.000
 RMSDP=1.72D-07 MaxDP=2.17D-06 DE=-7.03D-11 OVMax= 3.87D-06

 Cycle   9  Pass 1  IDiag  1:
 E= -110.016007361820     Delta-E=       -0.000000000014 Rises=F Damp=F
 DIIS: error= 1.34D-07 at cycle   9 NSaved=   9.
 NSaved= 9 IEnMin= 9 EnMin= -110.016007361820     IErMin= 9 ErrMin= 1.34D-07
 ErrMax= 1.34D-07  0.00D+00 EMaxC= 1.00D-01 BMatC= 6.18D-13 BMatP= 1.63D-11
 IDIUse=1 WtCom= 1.00D+00 WtEn= 0.00D+00
 Coeff-Com: -0.472D-05 0.415D-03 0.609D-03 0.612D-03 0.215D-02-0.845D-02
 Coeff-Com: -0.477D-01-0.715D-01 0.112D+01
 Coeff:     -0.472D-05 0.415D-03 0.609D-03 0.612D-03 0.215D-02-0.845D-02
 Coeff:     -0.477D-01-0.715D-01 0.112D+01
 Gap=     0.120 Goal=   None    Shift=    0.000
 Gap=     0.233 Goal=   None    Shift=    0.000
 RMSDP=3.59D-08 MaxDP=5.26D-07 DE=-1.37D-11 OVMax= 9.64D-07

 Cycle  10  Pass 1  IDiag  1:
 E= -110.016007361821     Delta-E=       -0.000000000001 Rises=F Damp=F
 DIIS: error= 2.53D-08 at cycle  10 NSaved=  10.
 NSaved=10 IEnMin=10 EnMin= -110.016007361821     IErMin=10 ErrMin= 2.53D-08
 ErrMax= 2.53D-08  0.00D+00 EMaxC= 1.00D-01 BMatC= 3.30D-14 BMatP= 6.18D-13
 IDIUse=1 WtCom= 1.00D+00 WtEn= 0.00D+00
 Coeff-Com: -0.301D-05-0.127D-03-0.134D-03-0.724D-05 0.613D-03 0.430D-02
 Coeff-Com: -0.880D-02-0.505D-01 0.150D+00 0.904D+00
 Coeff:     -0.301D-05-0.127D-03-0.134D-03-0.724D-05 0.613D-03 0.430D-02
 Coeff:     -0.880D-02-0.505D-01 0.150D+00 0.904D+00
 Gap=     0.120 Goal=   None    Shift=    0.000
 Gap=     0.233 Goal=   None    Shift=    0.000
 RMSDP=5.33D-09 MaxDP=7.05D-08 DE=-6.82D-13 OVMax= 1.24D-07

 SCF Done:  E(UB-P86) =  -110.016007362     A.U. after   10 cycles
            NFock= 10  Conv=0.53D-08     -V/T= 2.0083
 <Sx>= 0.0000 <Sy>= 0.0000 <Sz>= 0.5000 <S**2>= 0.7571 S= 0.5035
 <L.S>= 0.000000000000E+00
 KE= 1.091123785579D+02 PE=-3.106271963275D+02 EE= 6.465477752680D+01
 Annihilation of the first spin contaminant:
 S**2 before annihilation     0.7571,   after     0.7500
 Leave Link  502 at Wed Oct  7 13:19:16 2020, MaxMem=  2684354560 cpu:              67.3 elap:               6.9
 (Enter /udrive/faculty/rpeverati/g16/g16/l508.exe)
 QCSCF skips out because SCF is already converged.
 Leave Link  508 at Wed Oct  7 13:19:17 2020, MaxMem=  2684354560 cpu:               0.7 elap:               0.5
 (Enter /udrive/faculty/rpeverati/g16/g16/l701.exe)
 ... and contract with generalized density number  0.
 Compute integral first derivatives.
 Leave Link  701 at Wed Oct  7 13:19:19 2020, MaxMem=  2684354560 cpu:               7.1 elap:               1.4
 (Enter /udrive/faculty/rpeverati/g16/g16/l702.exe)
 L702 exits ... SP integral derivatives will be done elsewhere.
 Leave Link  702 at Wed Oct  7 13:19:20 2020, MaxMem=  2684354560 cpu:               2.1 elap:               0.6
 (Enter /udrive/faculty/rpeverati/g16/g16/l703.exe)
 Integral derivatives from FoFJK, PRISM(SPDF).
 Compute integral first derivatives, UseDBF=F ICtDFT=           0.
 Calling FoFJK, ICntrl=      2527 FMM=F ISym2X=1 I1Cent= 0 IOpClX= 0 NMat=1 NMatS=1 NMatT=0.
 FoFJK:  IHMeth= 1 ICntrl=    2527 DoSepK=F KAlg= 0 I1Cent=           0 FoldK=F
 IRaf=         0 NMat=       1 IRICut=       1 DoRegI=T DoRafI=F ISym2E= 1 IDoP0=0 IntGTp=1.
 FoFCou: FMM=F IPFlag=           0 FMFlag=      100000 FMFlg1=         800
         NFxFlg=           0 DoJE=F BraDBF=F KetDBF=F FulRan=T
         wScrn=  0.000000 ICntrl=      2527 IOpCl=  0 I1Cent=           0 NGrid=           0
         NMat0=    1 NMatS0=      1 NMatT0=    0 NMatD0=    1 NMtDS0=    0 NMtDT0=    0
 Petite list used in FoFCou.
 Leave Link  703 at Wed Oct  7 13:19:21 2020, MaxMem=  2684354560 cpu:               5.3 elap:               1.1
 (Enter /udrive/faculty/rpeverati/g16/g16/l716.exe)
 Dipole        =-1.88796139D-01 1.83987344D-01 0.00000000D+00
 ***** Axes restored to original set *****
 -------------------------------------------------------------------
 Center     Atomic                   Forces (Hartrees/Bohr)
 Number     Number              X              Y              Z
 -------------------------------------------------------------------
      1        7           0.000182560    0.000187744   -0.000000000
      2        7          -0.010144958    0.004958348   -0.000000000
      3        1           0.009962398   -0.005146092   -0.000000000
 -------------------------------------------------------------------
 Cartesian Forces:  Max     0.010144958 RMS     0.005305192
 Leave Link  716 at Wed Oct  7 13:19:23 2020, MaxMem=  2684354560 cpu:               2.2 elap:               0.7
 (Enter /udrive/faculty/rpeverati/g16/g16/l103.exe)

 GradGradGradGradGradGradGradGradGradGradGradGradGradGradGradGradGradGrad
 Berny optimization.
 Optmz: redundant internal coordinate code flag= 1
 Red2BG:  D1=  5.73D-01 OD1=  5.36D-03 B2RMS=  0.00D+00 IAprox=0
 FormGI is forming the generalized inverse of G from B-inverse, IUseBI=4.
 Internal  Forces:  Max     0.011212108 RMS     0.006478309
 Search for a saddle point.
 Step number   3 out of a maximum of   50
 All quantities printed in internal units (Hartrees-Bohrs-Radians)
 Swapping is turned off.
 Update second derivatives using D2CorX and points    1    2    3
 The second derivative matrix:
                          R1        R2        A1
           R1           1.49751
           R2          -0.06162   0.06578
           A1           0.01774   0.03013   0.14002
 ITU=  0  0  0
 Eigenvectors of the second derivative matrix:
                           1         2         3
     Eigenvalues --     0.05225   0.15070   1.50035
   1         R1        -0.04425  -0.00280  -0.99902
   2         R2        -0.94211  -0.33258   0.04266
   3         A1         0.33237  -0.94307  -0.01208
 Eigenvalue     1 is   5.23D-02 should be less than     0.000000 Eigenvector:
                          R2        A1        R1
   1                   -0.94211   0.33237  -0.04425
 RLam0= 5.44D-02.
 Iter=   1 RLamda= 0.00000000D+00 Sum=-7.46429572D-05.
 Iter=   2 RLamda=-7.46429572D-05 Sum=-7.46060300D-05.
 Iter=   3 RLamda=-7.46060300D-05 Sum=-7.46060482D-05.
 RFO step:  Lambda0=5.436039639D-02 Lambda=-7.46060300D-05.
 Linear search not attempted -- option 19 set.
 Iteration  1 RMS(Cart)=  0.01822412 RMS(Int)=  0.00021741
 Iteration  2 RMS(Cart)=  0.00021719 RMS(Int)=  0.00000001
 Iteration  3 RMS(Cart)=  0.00000001 RMS(Int)=  0.00000000
 ITry= 1 IFail=0 DXMaxC= 2.13D-02 DCOld= 1.00D+10 DXMaxT= 1.00D-01 DXLimC= 3.00D+00 Rises=F
 ClnCor:  largest displacement from symmetrization is 4.44D-16 for atom     3.
 Variable       Old X    -DE/DX   Delta X   Delta X   Delta X     New X
                                 (Linear)    (Quad)   (Total)
    R1        2.16242  -0.00019   0.00000   0.00112   0.00112   2.16354
    R2        2.76003  -0.01121   0.00000   0.01355   0.01355   2.77358
    A1        2.07304   0.00040   0.00000  -0.02836  -0.02836   2.04468
         Item               Value     Threshold  Converged?
 Maximum Force            0.011212     0.000450     NO 
 RMS     Force            0.006478     0.000300     NO 
 Maximum Displacement     0.021342     0.001800     NO 
 RMS     Displacement     0.018322     0.001200     NO 
 Predicted change in Energy= 2.136210D-04
 Largest change from initial coordinates is atom    3       0.044 Angstoms.
 GradGradGradGradGradGradGradGradGradGradGradGradGradGradGradGradGradGrad

 Leave Link  103 at Wed Oct  7 13:19:24 2020, MaxMem=  2684354560 cpu:               5.6 elap:               1.1
 (Enter /udrive/faculty/rpeverati/g16/g16/l202.exe)
                          Input orientation:                          
 ---------------------------------------------------------------------
 Center     Atomic      Atomic             Coordinates (Angstroms)
 Number     Number       Type             X           Y           Z
 ---------------------------------------------------------------------
      1          7           0        0.091946   -0.662662    0.000000
      2          7           0        0.097887    0.482221    0.000000
      3          1           0       -1.204593    1.158781    0.000000
 ---------------------------------------------------------------------
                    Distance matrix (angstroms):
                    1          2          3
     1  N    0.000000
     2  N    1.144898   0.000000
     3  H    2.235769   1.467715   0.000000
 Stoichiometry    HN2(2)
 Framework group  CS[SG(HN2)]
 Deg. of freedom     3
 Full point group                 CS      NOp   2
 RotChk:  IX=0 Diff= 2.51D-02
 Largest Abelian subgroup         CS      NOp   2
 Largest concise Abelian subgroup C1      NOp   1
                         Standard orientation:                         
 ---------------------------------------------------------------------
 Center     Atomic      Atomic             Coordinates (Angstroms)
 Number     Number       Type             X           Y           Z
 ---------------------------------------------------------------------
      1          7           0        0.087065   -0.655265    0.000000
      2          7           0        0.087065    0.489633    0.000000
      3          1           0       -1.218908    1.159424    0.000000
 ---------------------------------------------------------------------
 Rotational constants (GHZ):         363.3151372          46.1661583          40.9612461
 Leave Link  202 at Wed Oct  7 13:19:25 2020, MaxMem=  2684354560 cpu:               2.0 elap:               0.7
 (Enter /udrive/faculty/rpeverati/g16/g16/l301.exe)
 Standard basis: 6-31G(d) (5D, 7F)
 Ernie: Thresh=  0.10000D-02 Tol=  0.10000D-05 Strict=F.
 There are    24 symmetry adapted cartesian basis functions of A'  symmetry.
 There are     8 symmetry adapted cartesian basis functions of A"  symmetry.
 There are    22 symmetry adapted basis functions of A'  symmetry.
 There are     8 symmetry adapted basis functions of A"  symmetry.
    30 basis functions,    60 primitive gaussians,    32 cartesian basis functions
     8 alpha electrons        7 beta electrons
       nuclear repulsion energy        26.8286448267 Hartrees.
 IExCor=  404 DFT=T Ex=B Corr=P86 ExCW=0 ScaHFX=  0.000000
 ScaDFX=  1.000000  1.000000  1.000000  1.000000 ScalE2=  1.000000  1.000000
 IRadAn=      5 IRanWt=     -1 IRanGd=            0 ICorTp=0 IEmpDi=  4
 NAtoms=    3 NActive=    3 NUniq=    3 SFac= 1.00D+00 NAtFMM=   60 NAOKFM=F Big=F
 Integral buffers will be    131072 words long.
 Raffenetti 2 integral format.
 Two-electron integral symmetry is turned on.
 Leave Link  301 at Wed Oct  7 13:19:26 2020, MaxMem=  2684354560 cpu:               2.4 elap:               0.8
 (Enter /udrive/faculty/rpeverati/g16/g16/l302.exe)
 NPDir=0 NMtPBC=     1 NCelOv=     1 NCel=       1 NClECP=     1 NCelD=      1
         NCelK=      1 NCelE2=     1 NClLst=     1 CellRange=     0.0.
 One-electron integrals computed using PRISM.
 One-electron integral symmetry used in STVInt
 NBasis=    30 RedAO= T EigKep=  6.53D-03  NBF=    22     8
 NBsUse=    30 1.00D-06 EigRej= -1.00D+00 NBFU=    22     8
 Precomputing XC quadrature grid using
[...]

       Atom             a.u.   MegaHertz   Gauss  10(-4) cm-1        Axes

              Baa    -0.3348   -12.911    -4.607    -4.307 -0.2427  0.9701  0.0000
     1 N(14)  Bbb    -0.3031   -11.691    -4.171    -3.900  0.0000  0.0000  1.0000
              Bcc     0.6379    24.602     8.779     8.206  0.9701  0.2427  0.0000
 
              Baa    -0.2204    -8.499    -3.033    -2.835  0.9244 -0.3814  0.0000
     2 N(14)  Bbb    -0.0450    -1.737    -0.620    -0.579  0.0000  0.0000  1.0000
              Bcc     0.2654    10.235     3.652     3.414  0.3814  0.9244  0.0000
 
              Baa    -0.0159    -8.472    -3.023    -2.826  0.9350 -0.3546  0.0000
     3 H(1)   Bbb     0.0078     4.153     1.482     1.385  0.0000  0.0000  1.0000
              Bcc     0.0081     4.319     1.541     1.441  0.3546  0.9350  0.0000
 

 ---------------------------------------------------------------------------------

 No NMR shielding tensors so no spin-rotation constants.
 Leave Link  601 at Wed Oct  7 13:22:39 2020, MaxMem=  2684354560 cpu:              12.5 elap:               1.9
 (Enter /udrive/faculty/rpeverati/g16/g16/l701.exe)
 ... and contract with generalized density number  0.
 Compute integral second derivatives.
 Leave Link  701 at Wed Oct  7 13:22:41 2020, MaxMem=  2684354560 cpu:               5.9 elap:               1.4
 (Enter /udrive/faculty/rpeverati/g16/g16/l702.exe)
 L702 exits ... SP integral derivatives will be done elsewhere.
 Leave Link  702 at Wed Oct  7 13:22:42 2020, MaxMem=  2684354560 cpu:               2.8 elap:               0.7
 (Enter /udrive/faculty/rpeverati/g16/g16/l703.exe)
 Integral derivatives from FoFJK, PRISM(SPDF).
 Compute integral second derivatives, UseDBF=F ICtDFT=           0.
 Calling FoFJK, ICntrl=    100527 FMM=F ISym2X=1 I1Cent= 0 IOpClX= 0 NMat=1 NMatS=1 NMatT=0.
 FoFJK:  IHMeth= 1 ICntrl=  100527 DoSepK=F KAlg= 0 I1Cent=           0 FoldK=F
 IRaf=         0 NMat=       1 IRICut=       1 DoRegI=T DoRafI=F ISym2E= 1 IDoP0=0 IntGTp=1.
 FoFCou: FMM=F IPFlag=           0 FMFlag=      100000 FMFlg1=         800
         NFxFlg=           0 DoJE=F BraDBF=F KetDBF=F FulRan=T
         wScrn=  0.000000 ICntrl=    100527 IOpCl=  0 I1Cent=           0 NGrid=           0
         NMat0=    1 NMatS0=      1 NMatT0=    0 NMatD0=    1 NMtDS0=    0 NMtDT0=    0
 Petite list used in FoFCou.
 Leave Link  703 at Wed Oct  7 13:22:44 2020, MaxMem=  2684354560 cpu:              12.9 elap:               1.8
 (Enter /udrive/faculty/rpeverati/g16/g16/l716.exe)
 Dipole        =-8.96296365D-02 9.34520149D-02 0.00000000D+00
 Polarizability= 1.54148249D+01-7.36827191D+00 2.02284548D+01
                 5.70031652D-15-4.21718844D-15 6.15724293D+00
 Full mass-weighted force constant matrix:
 Low frequencies --- -888.7847  -14.1644  -12.9714   -0.0016   -0.0011    0.0008
 Low frequencies ---    6.0287  594.8882 2172.9816
 ******    1 imaginary frequencies (negative Signs) ****** 
 Diagonal vibrational polarizability:
        2.7384933       2.4775173       0.0000000
 Harmonic frequencies (cm**-1), IR intensities (KM/Mole), Raman scattering
 activities (A**4/AMU), depolarization ratios for plane and unpolarized
 incident light, reduced masses (AMU), force constants (mDyne/A),
 and normal coordinates:
                      1                      2                      3
                     A'                     A'                     A'
 Frequencies --   -888.7847               594.8882              2172.9816
 Red. masses --      1.0825                 1.3935                10.9417
 Frc consts  --      0.5038                 0.2906                30.4403
 IR Inten    --    138.8922                 1.7507                61.6168
  Atom  AN      X      Y      Z        X      Y      Z        X      Y      Z
     1   7    -0.00  -0.01  -0.00     0.10  -0.03   0.00    -0.00   0.63   0.00
     2   7    -0.06   0.05  -0.00    -0.13  -0.03   0.00    -0.03  -0.61   0.00
     3   1     0.85  -0.53  -0.00     0.45   0.88   0.00     0.41  -0.27   0.00

 -------------------
 - Thermochemistry -
 -------------------
 Temperature   298.150 Kelvin.  Pressure   1.00000 Atm.
 Atom     1 has atomic number  7 and mass  14.00307
 Atom     2 has atomic number  7 and mass  14.00307
 Atom     3 has atomic number  1 and mass   1.00783
 Molecular mass:    29.01397 amu.
 Principal axes and moments of inertia in atomic units:
                           1         2         3
     Eigenvalues --     5.46394  39.82275  45.28668
           X           -0.19584   0.98064   0.00000
           Y            0.98064   0.19584   0.00000
           Z            0.00000   0.00000   1.00000
 This molecule is an asymmetric top.
 Rotational symmetry number  1.
 Rotational temperatures (Kelvin)     15.85193     2.17499     1.91257
 Rotational constants (GHZ):         330.30062    45.31936    39.85148
    1 imaginary frequencies ignored.
 Zero-point vibrational energy      16555.5 (Joules/Mol)
                                    3.95687 (Kcal/Mol)
 Warning -- explicit consideration of   1 degrees of freedom as
           vibrations may cause significant error
 Vibrational temperatures:    855.91  3126.44
          (Kelvin)
 
 Zero-point correction=                           0.006306 (Hartree/Particle)
 Thermal correction to Energy=                    0.009301
 Thermal correction to Enthalpy=                  0.010245
 Thermal correction to Gibbs Free Energy=        -0.015795
 Sum of electronic and zero-point Energies=           -110.008310
 Sum of electronic and thermal Energies=              -110.005314
 Sum of electronic and thermal Enthalpies=            -110.004370
 Sum of electronic and thermal Free Energies=         -110.030410
 
                     E (Thermal)             CV                S
                      KCal/Mol        Cal/Mol-Kelvin    Cal/Mol-Kelvin
 Total                    5.837              7.010             54.806
 Electronic               0.000              0.000              1.377
 Translational            0.889              2.981             36.030
 Rotational               0.889              2.981             16.940
 Vibrational              4.059              1.049              0.459
 Vibration     1          0.953              1.043              0.459
                       Q            Log10(Q)             Ln(Q)
 Total Bot       0.184069D+08          7.264981         16.728238
 Total V=0       0.146348D+11         10.165386         23.406667
 Vib (Bot)       0.133333D-02         -2.875062         -6.620076
 Vib (Bot)    1  0.252323D+00         -0.598043         -1.377045
 Vib (V=0)       0.106009D+01          0.025342          0.058353
 Vib (V=0)    1  0.106006D+01          0.025330          0.058325
 Electronic      0.200000D+01          0.301030          0.693147
 Translational   0.614278D+07          6.788365         15.630787
 Rotational      0.112370D+04          3.050649          7.024379
 
                                                          TS search on BH76.
                                                             IR Spectrum
 
     2                                                                                                                               
     1                                                                                            5                                  
     7                                                                                            9                                  
     3                                                                                            5                                  
 
     X                                                                                            X                                  
     X                                                                                                                               
     X                                                                                                                               
     X                                                                                                                               
     X                                                                                                                               
     X                                                                                                                               
     X                                                                                                                               
     X                                                                                                                               
     X                                                                                                                               
     X                                                                                                                               
     X                                                                                                                               
     X                                                                                                                               
     X                                                                                                                               
     X                                                                                                                               
     X                                                                                                                               
     X                                                                                                                               
     X                                                                                                                               
     X                                                                                                                               
     X                                                                                                                               
     X                                                                                                                               
 
 ***** Axes restored to original set *****
 -------------------------------------------------------------------
 Center     Atomic                   Forces (Hartrees/Bohr)
 Number     Number              X              Y              Z
 -------------------------------------------------------------------
      1        7           0.000016420   -0.000140070   -0.000000000
      2        7          -0.000011313    0.000124818   -0.000000000
      3        1          -0.000005107    0.000015252   -0.000000000
 -------------------------------------------------------------------
 Cartesian Forces:  Max     0.000140070 RMS     0.000063119
 Force constants in Cartesian coordinates: 
                1             2             3             4             5 
      1  0.190299D-01
      2 -0.175791D-01  0.126187D+01
      3  0.000000D+00  0.000000D+00 -0.547997D-04
      4 -0.258452D-01 -0.429735D-01  0.000000D+00  0.170818D-01
      5  0.602724D-02 -0.121774D+01  0.000000D+00  0.689888D-01  0.117469D+01
      6  0.000000D+00  0.000000D+00  0.498036D-04  0.000000D+00  0.000000D+00
      7  0.681534D-02  0.605526D-01  0.000000D+00  0.876339D-02 -0.750161D-01
      8  0.115519D-01 -0.441244D-01  0.000000D+00 -0.260154D-01  0.430550D-01
      9  0.000000D+00  0.000000D+00  0.499607D-05  0.000000D+00  0.000000D+00
                6             7             8             9 
      6 -0.439651D-04
      7  0.000000D+00 -0.155787D-01
      8  0.000000D+00  0.144635D-01  0.106939D-02
      9 -0.583856D-05  0.000000D+00  0.000000D+00  0.000000D+00
 FormGI is forming the generalized inverse of G from B-inverse, IUseBI=4.
 Force constants in internal coordinates: 
                1             2             3 
      1  0.126199D+01
      2  0.744044D-01 -0.239366D-01
      3  0.268385D-01 -0.124068D-02  0.869316D-01
 Leave Link  716 at Wed Oct  7 13:22:46 2020, MaxMem=  2684354560 cpu:               4.0 elap:               1.0
 (Enter /udrive/faculty/rpeverati/g16/g16/l103.exe)

 GradGradGradGradGradGradGradGradGradGradGradGradGradGradGradGradGradGrad
 Berny optimization.
 Optmz: redundant internal coordinate code flag= 1
 Red2BG:  D1=  5.51D-01 OD1=  5.72D-16 B2RMS=  0.00D+00 IAprox=1
 Red2BG is reusing G-inverse.
 Internal  Forces:  Max     0.000140226 RMS     0.000083520
 Search for a local minimum.
 Step number   1 out of a maximum of    2
 All quantities printed in internal units (Hartrees-Bohrs-Radians)
 Second derivative matrix not updated -- analytic derivatives used.
 The second derivative matrix:
                          R1        R2        A1
           R1           1.26199
           R2           0.07440  -0.02394
           A1           0.02684  -0.00124   0.08693
 ITU=  0
 Eigenvectors of the second derivative matrix:
                           1         2         3
     Eigenvalues --    -0.02829   0.08639   1.26688
   1         R1        -0.05806   0.02120  -0.99809
   2         R2         0.99802   0.02554  -0.05751
   3         A1         0.02427  -0.99945  -0.02264
 Eigenvalue     1 is  -2.83D-02 should be greater than     0.000000 Eigenvector:
                          R2        R1        A1
   1                    0.99802  -0.05806   0.02427
 Angle between quadratic step and forces=  62.13 degrees.
 Linear search not attempted -- first point.
 Iteration  1 RMS(Cart)=  0.00031078 RMS(Int)=  0.00000004
 Iteration  2 RMS(Cart)=  0.00000003 RMS(Int)=  0.00000000
 ITry= 1 IFail=0 DXMaxC= 3.13D-04 DCOld= 1.00D+10 DXMaxT= 3.00D-01 DXLimC= 3.00D+00 Rises=F
 ClnCor:  largest displacement from symmetrization is 2.22D-15 for atom     3.
 Variable       Old X    -DE/DX   Delta X   Delta X   Delta X     New X
                                 (Linear)    (Quad)   (Total)
    R1        2.14069   0.00014   0.00000   0.00009   0.00009   2.14078
    R2        3.03596   0.00001   0.00000   0.00016   0.00016   3.03611
    A1        2.08705   0.00003   0.00000   0.00036   0.00036   2.08740
         Item               Value     Threshold  Converged?
 Maximum Force            0.000140     0.000450     YES
 RMS     Force            0.000084     0.000300     YES
 Maximum Displacement     0.000313     0.001800     YES
 RMS     Displacement     0.000311     0.001200     YES
 Predicted change in Energy=-1.425302D-08
 Optimization completed.
    -- Stationary point found.
                           ----------------------------
                           !   Optimized Parameters   !
                           ! (Angstroms and Degrees)  !
 --------------------------                            --------------------------
 ! Name  Definition              Value          Derivative Info.                !
 --------------------------------------------------------------------------------
 ! R1    R(1,2)                  1.1328         -DE/DX =    0.0001              !
 ! R2    R(2,3)                  1.6066         -DE/DX =    0.0                 !
 ! A1    A(1,2,3)              119.579          -DE/DX =    0.0                 !
 --------------------------------------------------------------------------------
 GradGradGradGradGradGradGradGradGradGradGradGradGradGradGradGradGradGrad

 Leave Link  103 at Wed Oct  7 13:22:47 2020, MaxMem=  2684354560 cpu:               7.0 elap:               1.2
 (Enter /udrive/faculty/rpeverati/g16/g16/l9999.exe)

 ----------------------------------------------------------------------

 Electric dipole moment (input orientation):
 (Debye = 10**-18 statcoulomb cm , SI units = C m)
                  (au)            (Debye)         (10**-30 SI)
   Tot        0.129486D+00      0.329122D+00      0.109783D+01
   x         -0.900074D-01     -0.228776D+00     -0.763115D+00
   y          0.930882D-01      0.236607D+00      0.789235D+00
   z          0.000000D+00      0.000000D+00      0.000000D+00

 Dipole polarizability, Alpha (input orientation).
 (esu units = cm**3 , SI units = C**2 m**2 J**-1)
 Alpha(0;0):
               (au)            (10**-24 esu)      (10**-40 SI)
   iso        0.139335D+02      0.206473D+01      0.229733D+01
   aniso      0.177851D+02      0.263548D+01      0.293237D+01
   xx         0.154746D+02      0.229310D+01      0.255142D+01
   yx        -0.738753D+01     -0.109472D+01     -0.121804D+01
   yy         0.201687D+02      0.298869D+01      0.332537D+01
   zx         0.000000D+00      0.000000D+00      0.000000D+00
   zy         0.000000D+00      0.000000D+00      0.000000D+00
   zz         0.615724D+01      0.912409D+00      0.101519D+01

 ----------------------------------------------------------------------

 Dipole orientation:
     7         -0.52451128         -0.50715234         -1.11234245
     7          0.54073641          0.52284050          0.43261809
     1         -0.08341644         -0.08065573          3.34178559

 Electric dipole moment (dipole orientation):
 (Debye = 10**-18 statcoulomb cm , SI units = C m)
                  (au)            (Debye)         (10**-30 SI)
   Tot        0.129486D+00      0.329122D+00      0.109783D+01
   x          0.000000D+00      0.000000D+00      0.000000D+00
   y          0.000000D+00      0.000000D+00      0.000000D+00
   z          0.129486D+00      0.329122D+00      0.109783D+01

 Dipole polarizability, Alpha (dipole orientation).
 (esu units = cm**3 , SI units = C**2 m**2 J**-1)
 Alpha(0;0):
               (au)            (10**-24 esu)      (10**-40 SI)
   iso        0.139335D+02      0.206473D+01      0.229733D+01
   aniso      0.177851D+02      0.263548D+01      0.293237D+01
   xx         0.832897D+01      0.123423D+01      0.137326D+01
   yx         0.209986D+01      0.311167D+00      0.346219D+00
   yy         0.818760D+01      0.121328D+01      0.134995D+01
   zx         0.150767D+01      0.223414D+00      0.248581D+00
   zy         0.145777D+01      0.216020D+00      0.240354D+00
   zz         0.252839D+02      0.374669D+01      0.416876D+01

 ----------------------------------------------------------------------

 Test job not archived.
 1\1\GINC-NODE56\Freq\UBP86\6-31G(d)\H1N2(2)\RPEVERATI\07-Oct-2020\0\\#
 P Freq BP86/6-31G* 5D 7F Integral=UltraFineGrid SCF=(NoSymm,XQC,MaxCyc
 =120) IOp(1/33=1) Geom=Check Guess=Read\\TS search on BH76.\\0,2\N,0.1
 316008887,-0.6915386053,0.\N,0.1270126048,0.4412548963,0.\H,-1.2733732
 38,1.2286244196,0.\\Version=ES64L-G16RevA.03\State=2-A'\HF=-110.014615
 5\S2=0.755649\S2-1=0.\S2A=0.750003\RMSD=8.327e-10\RMSF=6.312e-05\ZeroP
 oint=0.0063057\Thermal=0.0093013\Dipole=-0.0900074,0.0930882,0.\Dipole
 Deriv=0.0027896,0.0000971,0.,0.5902697,-0.4147736,0.,0.,0.,-0.0198905,
 0.1818614,-0.2164025,0.,-0.7334486,0.5036569,0.,0.,0.,-0.0140552,-0.18
 4651,0.2163054,0.,0.1431789,-0.0888833,0.,0.,0.,0.0339456\Polar=15.474
 592,-7.387527,20.1686877,0.,0.,6.1572429\Quadrupole=0.2907089,-0.68547
 82,0.3947693,-0.1016825,0.,0.\PG=CS [SG(H1N2)]\NImag=1\\0.01902989,-0.
 01757913,1.26186628,0.,0.,-0.00005480,-0.02584522,-0.04297349,0.,0.017
 08183,0.00602724,-1.21774187,0.,0.06898884,1.17468685,0.,0.,0.00004980
 ,0.,0.,-0.00004397,0.00681534,0.06055262,0.,0.00876339,-0.07501608,0.,
 -0.01557872,0.01155189,-0.04412441,0.,-0.02601535,0.04305502,0.,0.0144
 6346,0.00106939,0.,0.,0.00000500,0.,0.,-0.00000584,0.,0.,0.00000084\\-
 0.00001642,0.00014007,0.,0.00001131,-0.00012482,0.,0.00000511,-0.00001
 525,0.\\\@


 HAPPINESS IS NOT HAVING WHAT YOU WANT --
 HAPPINESS IS WANTING WHAT YOU HAVE!

              -- FROM MRS. SEVERN'S DESK
 Job cpu time:       0 days  0 hours  3 minutes  8.8 seconds.
 Elapsed time:       0 days  0 hours  0 minutes 30.6 seconds.
 File lengths (MBytes):  RWF=      5 Int=      0 D2E=      0 Chk=      1 Scr=      1
 Normal termination of Gaussian 16 at Wed Oct  7 13:22:49 2020.
