 Entering Gaussian System, Link 0=g16
 Input=MN_53_hfch3ts_BH76_BP86_631Gs.in
 Output=MN_53_hfch3ts_BH76_BP86_631Gs.log
 Initial command:
 /udrive/faculty/rpeverati/g16/g16/l1.exe "/udrive/scratch-directories/gaussian09/rpeverati/Gau-31895.inp" -scrdir="/udrive/scratch-directories/gaussian09/rpeverati/"
 Entering Link 1 = /udrive/faculty/rpeverati/g16/g16/l1.exe PID=     31907.
  
 Copyright (c) 1988,1990,1992,1993,1995,1998,2003,2009,2016,
            Gaussian, Inc.  All Rights Reserved.
  
 This is part of the Gaussian(R) 16 program.  It is based on
 the Gaussian(R) 09 system (copyright 2009, Gaussian, Inc.),
 the Gaussian(R) 03 system (copyright 2003, Gaussian, Inc.),
 the Gaussian(R) 98 system (copyright 1998, Gaussian, Inc.),
 the Gaussian(R) 94 system (copyright 1995, Gaussian, Inc.),
 the Gaussian 92(TM) system (copyright 1992, Gaussian, Inc.),
 the Gaussian 90(TM) system (copyright 1990, Gaussian, Inc.),
 the Gaussian 88(TM) system (copyright 1988, Gaussian, Inc.),
 the Gaussian 86(TM) system (copyright 1986, Carnegie Mellon
 University), and the Gaussian 82(TM) system (copyright 1983,
 Carnegie Mellon University). Gaussian is a federally registered
 trademark of Gaussian, Inc.
  
 This software contains proprietary and confidential information,
 including trade secrets, belonging to Gaussian, Inc.
  
 This software is provided under written license and may be
 used, copied, transmitted, or stored only in accord with that
 written license.
  
 The following legend is applicable only to US Government
 contracts under FAR:
  
                    RESTRICTED RIGHTS LEGEND
  
 Use, reproduction and disclosure by the US Government is
 subject to restrictions as set forth in subparagraphs (a)
 and (c) of the Commercial Computer Software - Restricted
 Rights clause in FAR 52.227-19.
  
 Gaussian, Inc.
 340 Quinnipiac St., Bldg. 40, Wallingford CT 06492
  
  
 ---------------------------------------------------------------
 Warning -- This program may not be used in any manner that
 competes with the business of Gaussian, Inc. or will provide
 assistance to any competitor of Gaussian, Inc.  The licensee
 of this program is prohibited from giving any competitor of
 Gaussian, Inc. access to this program.  By using this program,
 the user acknowledges that Gaussian, Inc. is engaged in the
 business of creating and licensing software in the field of
 computational chemistry and represents and warrants to the
 licensee that it is not a competitor of Gaussian, Inc. and that
 it will not use this program in any manner prohibited above.
 ---------------------------------------------------------------
  

 Cite this work as:
 Gaussian 16, Revision A.03,
 M. J. Frisch, G. W. Trucks, H. B. Schlegel, G. E. Scuseria, 
 M. A. Robb, J. R. Cheeseman, G. Scalmani, V. Barone, 
 G. A. Petersson, H. Nakatsuji, X. Li, M. Caricato, A. V. Marenich, 
 J. Bloino, B. G. Janesko, R. Gomperts, B. Mennucci, H. P. Hratchian, 
 J. V. Ortiz, A. F. Izmaylov, J. L. Sonnenberg, D. Williams-Young, 
 F. Ding, F. Lipparini, F. Egidi, J. Goings, B. Peng, A. Petrone, 
 T. Henderson, D. Ranasinghe, V. G. Zakrzewski, J. Gao, N. Rega, 
 G. Zheng, W. Liang, M. Hada, M. Ehara, K. Toyota, R. Fukuda, 
 J. Hasegawa, M. Ishida, T. Nakajima, Y. Honda, O. Kitao, H. Nakai, 
 T. Vreven, K. Throssell, J. A. Montgomery, Jr., J. E. Peralta, 
 F. Ogliaro, M. J. Bearpark, J. J. Heyd, E. N. Brothers, K. N. Kudin, 
 V. N. Staroverov, T. A. Keith, R. Kobayashi, J. Normand, 
 K. Raghavachari, A. P. Rendell, J. C. Burant, S. S. Iyengar, 
 J. Tomasi, M. Cossi, J. M. Millam, M. Klene, C. Adamo, R. Cammi, 
 J. W. Ochterski, R. L. Martin, K. Morokuma, O. Farkas, 
 J. B. Foresman, and D. J. Fox, Gaussian, Inc., Wallingford CT, 2016.
 
 ******************************************
 Gaussian 16:  ES64L-G16RevA.03 25-Dec-2016
                 7-Oct-2020 
 ******************************************
 %NoSave
 %nproc=12
 Will use up to   12 processors via shared memory.
 %mem=20GB
 %chk=MN_53_hfch3ts_BH76_BP86_631Gs
 ----------------------------------------------------------------------
 #P Opt(TS,MaxCyc=50,NoEigenTest,MaxStep=10,AddRedundant) BP86/6-31G* 5
 D 7F Integral=UltraFineGrid SCF=(NoSymm,XQC,MaxCyc=120) IOp(1/33=1)
 ----------------------------------------------------------------------
 1/5=1,6=50,8=10,11=1,18=120,26=4,33=1,38=1/1,3;
 2/9=110,12=2,17=6,18=5,40=1/2;
 3/5=1,6=6,7=1,8=11,11=2,25=1,30=1,71=1,74=404,75=-5/1,2,3;
 4/9=2/1;
 5/5=2,7=120,8=3,13=1,38=5/2,8;
 6/7=2,8=2,9=2,10=2,28=1/1;
 7//1,2,3,16;
 1/5=1,6=50,8=10,11=1,18=20,26=4,33=1/3(2);
 2/9=110/2;
 99//99;
 2/9=110/2;
 3/5=1,6=6,7=1,8=11,11=2,25=1,30=1,71=1,74=404,75=-5/1,2,3;
 4/5=5,9=2,16=3,69=1/1;
 5/5=2,7=120,8=3,13=1,38=5/2,8;
 7//1,2,3,16;
 1/5=1,6=50,8=10,11=1,18=20,26=4,33=1/3(-5);
 2/9=110/2;
 6/7=2,8=2,9=2,10=2,19=2,28=1/1;
 99/9=1/99;
 Leave Link    1 at Wed Oct  7 13:17:50 2020, MaxMem=  2684354560 cpu:               5.5 elap:               1.2
 (Enter /udrive/faculty/rpeverati/g16/g16/l101.exe)
 ONIOM data not found on unit 2.
 ------------------
 TS search on BH76.
 ------------------
 TstMul:  ICh=     0
 TstMul:  Mul=     2
 TstMul:  ICh=     0
 TstMul:  Mul=     2
 Symbolic Z-matrix:
 Charge =  0 Multiplicity = 2
 H                     0.00045   2.00097   0. 
 F                    -0.00004   0.76248   0. 
 C                    -0.00004  -0.90617   0. 
 H                     1.05376  -1.14157   0. 
 H                    -0.52685  -1.14236   0.91235 
 H                    -0.52685  -1.14236  -0.91235 
 
 RdStrC is calling ZToCFu for IStruc=1 NZ=     6.
 PrtBox:  NBox=     1 Levels=  1 BoxLen=    8.00 SMaxX=        5.94
          Shift=            0.995593            2.158740            1.724100
 Box      1 Number                   0 centers from      1 to      6:
 After GenITR:
 ITRead=  0  0  0  0  0  0
 MicOpt= -1 -1 -1 -1 -1 -1
 Add virtual bond connecting atoms F2         and H1         Dist= 2.34D+00.
 Add virtual bond connecting atoms C3         and F2         Dist= 3.15D+00.
 The following ModRedundant input section has been read:
 
 ITRead=  0  0  0  0  0  0
 MicOpt= -1 -1 -1 -1 -1 -1
 NAtoms=      6 NQM=        6 NQMF=       0 NMMI=      0 NMMIF=      0
                NMic=       0 NMicF=      0.
                    Isotopes and Nuclear Properties:
 (Nuclear quadrupole moments (NQMom) in fm**2, nuclear magnetic moments (NMagM)
  in nuclear magnetons)

  Atom         1           2           3           4           5           6
 IAtWgt=           1          19          12           1           1           1
 AtmWgt=   1.0078250  18.9984033  12.0000000   1.0078250   1.0078250   1.0078250
 NucSpn=           1           1           0           1           1           1
 AtZEff=   0.0000000   0.0000000   0.0000000   0.0000000   0.0000000   0.0000000
 NQMom=    0.0000000   0.0000000   0.0000000   0.0000000   0.0000000   0.0000000
 NMagM=    2.7928460   2.6288670   0.0000000   2.7928460   2.7928460   2.7928460
 AtZNuc=   1.0000000   9.0000000   6.0000000   1.0000000   1.0000000   1.0000000
 No MM parameters found.
 Leave Link  101 at Wed Oct  7 13:17:51 2020, MaxMem=  2684354560 cpu:               5.9 elap:               0.9
 (Enter /udrive/faculty/rpeverati/g16/g16/l103.exe)

 GradGradGradGradGradGradGradGradGradGradGradGradGradGradGradGradGradGrad
 Berny optimization.
 Optmz: redundant internal coordinate code flag= 1
 Initialization pass.
                           ----------------------------
                           !    Initial Parameters    !
                           ! (Angstroms and Degrees)  !
 --------------------------                            --------------------------
 ! Name  Definition              Value          Derivative Info.                !
 --------------------------------------------------------------------------------
 ! R1    R(1,2)                  1.2385         estimate D2E/DX2                !
 ! R2    R(2,3)                  1.6686         estimate D2E/DX2                !
 ! R3    R(3,4)                  1.0798         estimate D2E/DX2                !
 ! R4    R(3,5)                  1.0797         estimate D2E/DX2                !
 ! R5    R(3,6)                  1.0797         estimate D2E/DX2                !
 ! A1    A(2,3,4)              102.5924         estimate D2E/DX2                !
 ! A2    A(2,3,5)              102.6361         estimate D2E/DX2                !
 ! A3    A(2,3,6)              102.6361         estimate D2E/DX2                !
 ! A4    A(4,3,5)              115.3726         estimate D2E/DX2                !
 ! A5    A(4,3,6)              115.3726         estimate D2E/DX2                !
 ! A6    A(5,3,6)              115.3492         estimate D2E/DX2                !
 ! A7    L(1,2,3,4,-1)         179.9776         estimate D2E/DX2                !
 ! A8    L(1,2,3,4,-2)         180.0            estimate D2E/DX2                !
 ! D1    D(4,3,6,5)            138.543          estimate D2E/DX2                !
 --------------------------------------------------------------------------------
 Maximum allowed force set to 1.00D+20.
 Trust Radius=1.00D-01 FncErr=1.00D-07 GrdErr=1.00D-06 EigMax=2.50D+02 EigMin=1.00D-04
 Number of steps in this run=     50 maximum allowed number of steps=    100.
 Search for a saddle point of order  1.
 GradGradGradGradGradGradGradGradGradGradGradGradGradGradGradGradGradGrad

 Leave Link  103 at Wed Oct  7 13:17:52 2020, MaxMem=  2684354560 cpu:               1.4 elap:               0.5
 (Enter /udrive/faculty/rpeverati/g16/g16/l202.exe)
                          Input orientation:                          
 ---------------------------------------------------------------------
 Center     Atomic      Atomic             Coordinates (Angstroms)
 Number     Number       Type             X           Y           Z
 ---------------------------------------------------------------------
      1          1           0        0.000450    2.000967    0.000000
      2          9           0       -0.000035    0.762481    0.000000
      3          6           0       -0.000035   -0.906168    0.000000
      4          1           0        1.053761   -1.141573    0.000000
      5          1           0       -0.526845   -1.142356    0.912354
      6          1           0       -0.526845   -1.142356   -0.912354
 ---------------------------------------------------------------------
                    Distance matrix (angstroms):
                    1          2          3          4          5
     1  H    0.000000
     2  F    1.238486   0.000000
     3  C    2.907136   1.668649   0.000000
     4  H    3.314366   2.176214   1.079769   0.000000
     5  H    3.315254   2.176769   1.079678   1.825023   0.000000
     6  H    3.315254   2.176769   1.079678   1.825023   1.824709
                    6
     6  H    0.000000
 Stoichiometry    CH4F(2)
 Framework group  CS[SG(CH2F),X(H2)]
 Deg. of freedom     8
 Full point group                 CS      NOp   2
 Largest Abelian subgroup         CS      NOp   2
 Largest concise Abelian subgroup CS      NOp   2
                         Standard orientation:                         
 ---------------------------------------------------------------------
 Center     Atomic      Atomic             Coordinates (Angstroms)
 Number     Number       Type             X           Y           Z
 ---------------------------------------------------------------------
      1          1           0        0.000450    2.000967    0.000000
      2          9           0       -0.000035    0.762481    0.000000
      3          6           0       -0.000035   -0.906168    0.000000
      4          1           0        1.053761   -1.141573    0.000000
      5          1           0       -0.526845   -1.142356    0.912354
      6          1           0       -0.526845   -1.142356   -0.912354
 ---------------------------------------------------------------------
 Rotational constants (GHZ):         150.5723997          16.6130512          16.6126312
 Leave Link  202 at Wed Oct  7 13:17:53 2020, MaxMem=  2684354560 cpu:               2.2 elap:               0.6
 (Enter /udrive/faculty/rpeverati/g16/g16/l301.exe)
 Standard basis: 6-31G(d) (5D, 7F)
 Ernie: Thresh=  0.10000D-02 Tol=  0.10000D-05 Strict=F.
 There are    28 symmetry adapted cartesian basis functions of A'  symmetry.
 There are    10 symmetry adapted cartesian basis functions of A"  symmetry.
 There are    26 symmetry adapted basis functions of A'  symmetry.
 There are    10 symmetry adapted basis functions of A"  symmetry.
    36 basis functions,    72 primitive gaussians,    38 cartesian basis functions
    10 alpha electrons        9 beta electrons
       nuclear repulsion energy        38.7977675131 Hartrees.
 IExCor=  404 DFT=T Ex=B Corr=P86 ExCW=0 ScaHFX=  0.000000
 ScaDFX=  1.000000  1.000000  1.000000  1.000000 ScalE2=  1.000000  1.000000
 IRadAn=      5 IRanWt=     -1 IRanGd=            0 ICorTp=0 IEmpDi=  4
 NAtoms=    6 NActive=    6 NUniq=    5 SFac= 1.44D+00 NAtFMM=   60 NAOKFM=F Big=F
 Integral buffers will be    131072 words long.
 Raffenetti 2 integral format.
 Two-electron integral symmetry is turned on.
 Leave Link  301 at Wed Oct  7 13:17:54 2020, MaxMem=  2684354560 cpu:               1.5 elap:               0.8
 (Enter /udrive/faculty/rpeverati/g16/g16/l302.exe)
 NPDir=0 NMtPBC=     1 NCelOv=     1 NCel=       1 NClECP=     1 NCelD=      1
         NCelK=      1 NCelE2=     1 NClLst=     1 CellRange=     0.0.
 One-electron integrals computed using PRISM.
 One-electron integral symmetry used in STVInt
 NBasis=    36 RedAO= T EigKep=  2.08D-02  NBF=    26    10
 NBsUse=    36 1.00D-06 EigRej= -1.00D+00 NBFU=    26    10
 Precomputing XC quadrature grid using
 IXCGrd= 4 IRadAn=           5 IRanWt=          -1 IRanGd=           0 AccXCQ= 0.00D+00.
 Generated NRdTot=       0 NPtTot=           0 NUsed=           0 NTot=          32
 NSgBfM=    38    38    38    38    38 MxSgAt=     6 MxSgA2=     6.
 Leave Link  302 at Wed Oct  7 13:17:56 2020, MaxMem=  2684354560 cpu:               7.9 elap:               1.3
 (Enter /udrive/faculty/rpeverati/g16/g16/l303.exe)
 DipDrv:  MaxL=1.
 Leave Link  303 at Wed Oct  7 13:17:57 2020, MaxMem=  2684354560 cpu:               4.6 elap:               1.3
 (Enter /udrive/faculty/rpeverati/g16/g16/l401.exe)
 SCF N**3 symmetry information disabled.
 ExpMin= 1.61D-01 ExpMax= 7.00D+03 ExpMxC= 1.05D+03 IAcc=3 IRadAn=         5 AccDes= 0.00D+00
 Harris functional with IExCor=  404 and IRadAn=       5 diagonalized for initial guess.
 HarFok:  IExCor=  404 AccDes= 0.00D+00 IRadAn=         5 IDoV= 1 UseB2=F ITyADJ=14
 ICtDFT=  3500011 ScaDFX=  1.000000  1.000000  1.000000  1.000000
 FoFCou: FMM=F IPFlag=           0 FMFlag=      100000 FMFlg1=           0
         NFxFlg=           0 DoJE=T BraDBF=F KetDBF=T FulRan=T
         wScrn=  0.000000 ICntrl=       500 IOpCl=  0 I1Cent=   200000004 NGrid=           0
         NMat0=    1 NMatS0=      1 NMatT0=    0 NMatD0=    1 NMtDS0=    0 NMtDT0=    0
 Petite list used in FoFCou.
 Harris En= -140.213757642586    
 JPrj=0 DoOrth=F DoCkMO=F.
 Initial guess orbital symmetries:
 Alpha Orbitals:
       Occupied  (A') (A') (A') (A') (A') (A') (A") (A") (A') (A')
       Virtual   (A') (A') (A') (A") (A') (A") (A') (A') (A') (A")
                 (A') (A') (A') (A") (A') (A") (A') (A') (A") (A')
                 (A') (A") (A') (A') (A") (A')
 Beta  Orbitals:
       Occupied  (A') (A') (A') (A') (A') (A') (A") (A") (A')
       Virtual   (A') (A') (A') (A') (A") (A') (A") (A') (A') (A')
                 (A") (A') (A') (A') (A") (A') (A") (A') (A') (A")
                 (A') (A') (A") (A') (A') (A") (A')
 The electronic state of the initial guess is 2-A'.
 Initial guess <Sx>= 0.0000 <Sy>= 0.0000 <Sz>= 0.5000 <S**2>= 0.7500 S= 0.5000
 Leave Link  401 at Wed Oct  7 13:17:59 2020, MaxMem=  2684354560 cpu:              13.0 elap:               1.8
 (Enter /udrive/faculty/rpeverati/g16/g16/l502.exe)
 Keep J ints in memory in symmetry-blocked form, NReq=10578875.
 FoFCou: FMM=F IPFlag=           0 FMFlag=           0 FMFlg1=           0
         NFxFlg=           0 DoJE=F BraDBF=F KetDBF=F FulRan=T
         wScrn=  0.000000 ICntrl=       600 IOpCl=  0 I1Cent=           0 NGrid=           0
         NMat0=    1 NMatS0=    666 NMatT0=    0 NMatD0=    1 NMtDS0=    0 NMtDT0=    0
 Petite list used in FoFCou.
 UHF open shell SCF:
 Using DIIS extrapolation, IDIIS=  1040.
 NGot=  2684354560 LenX=  2684232161 LenY=  2684230276
 Requested convergence on RMS density matrix=1.00D-08 within 120 cycles.
 Requested convergence on MAX density matrix=1.00D-06.
 Requested convergence on             energy=1.00D-06.
 No special actions if energy rises.
 Integral accuracy reduced to 1.0D-05 until final iterations.

 Cycle   1  Pass 0  IDiag  1:
 E= -140.106126912694    
 DIIS: error= 5.34D-02 at cycle   1 NSaved=   1.
 NSaved= 1 IEnMin= 1 EnMin= -140.106126912694     IErMin= 1 ErrMin= 5.34D-02
 ErrMax= 5.34D-02  0.00D+00 EMaxC= 1.00D-01 BMatC= 2.67D-01 BMatP= 2.67D-01
 IDIUse=3 WtCom= 4.66D-01 WtEn= 5.34D-01
 Coeff-Com:  0.100D+01
 Coeff-En:   0.100D+01
 Coeff:      0.100D+01
 Gap=     0.067 Goal=   None    Shift=    0.000
 Gap=     0.213 Goal=   None    Shift=    0.000
 GapD=    0.067 DampG=0.500 DampE=0.500 DampFc=0.2500 IDamp=-1.
 Damping current iteration by 2.50D-01
 RMSDP=2.45D-02 MaxDP=4.41D-01              OVMax= 5.72D-01

 Cycle   2  Pass 0  IDiag  1:
 E= -140.139392511236     Delta-E=       -0.033265598543 Rises=F Damp=T
 DIIS: error= 1.72D-02 at cycle   2 NSaved=   2.
 NSaved= 2 IEnMin= 2 EnMin= -140.139392511236     IErMin= 2 ErrMin= 1.72D-02
 ErrMax= 1.72D-02  0.00D+00 EMaxC= 1.00D-01 BMatC= 2.98D-02 BMatP= 2.67D-01
 IDIUse=3 WtCom= 8.28D-01 WtEn= 1.72D-01
 Coeff-Com: -0.401D+00 0.140D+01
 Coeff-En:   0.000D+00 0.100D+01
 Coeff:     -0.332D+00 0.133D+01
 Gap=     0.131 Goal=   None    Shift=    0.000
 Gap=     0.210 Goal=   None    Shift=    0.000
 RMSDP=6.26D-03 MaxDP=1.19D-01 DE=-3.33D-02 OVMax= 3.45D-01

 Cycle   3  Pass 0  IDiag  1:
 E= -140.184788452373     Delta-E=       -0.045395941137 Rises=F Damp=F
 DIIS: error= 1.26D-02 at cycle   3 NSaved=   3.
 NSaved= 3 IEnMin= 3 EnMin= -140.184788452373     IErMin= 3 ErrMin= 1.26D-02
 ErrMax= 1.26D-02  0.00D+00 EMaxC= 1.00D-01 BMatC= 1.48D-02 BMatP= 2.98D-02
 IDIUse=3 WtCom= 8.74D-01 WtEn= 1.26D-01
 Coeff-Com: -0.382D-01 0.483D+00 0.555D+00
 Coeff-En:   0.000D+00 0.000D+00 0.100D+01
 Coeff:     -0.334D-01 0.422D+00 0.611D+00
 Gap=     0.139 Goal=   None    Shift=    0.000
 Gap=     0.219 Goal=   None    Shift=    0.000
 RMSDP=1.59D-03 MaxDP=2.42D-02 DE=-4.54D-02 OVMax= 3.52D-02

 Cycle   4  Pass 0  IDiag  1:
 E= -140.187457541683     Delta-E=       -0.002669089310 Rises=F Damp=F
 DIIS: error= 5.98D-03 at cycle   4 NSaved=   4.
 NSaved= 4 IEnMin= 4 EnMin= -140.187457541683     IErMin= 4 ErrMin= 5.98D-03
 ErrMax= 5.98D-03  0.00D+00 EMaxC= 1.00D-01 BMatC= 3.54D-03 BMatP= 1.48D-02
 IDIUse=3 WtCom= 9.40D-01 WtEn= 5.98D-02
 Coeff-Com:  0.724D-01-0.120D-01 0.413D+00 0.527D+00
 Coeff-En:   0.000D+00 0.000D+00 0.634D-01 0.937D+00
 Coeff:      0.681D-01-0.113D-01 0.392D+00 0.552D+00
 Gap=     0.143 Goal=   None    Shift=    0.000
 Gap=     0.214 Goal=   None    Shift=    0.000
 RMSDP=6.61D-04 MaxDP=1.12D-02 DE=-2.67D-03 OVMax= 1.58D-02

 Cycle   5  Pass 0  IDiag  1:
 E= -140.188072700832     Delta-E=       -0.000615159148 Rises=F Damp=F
 DIIS: error= 1.39D-03 at cycle   5 NSaved=   5.
 NSaved= 5 IEnMin= 5 EnMin= -140.188072700832     IErMin= 5 ErrMin= 1.39D-03
 ErrMax= 1.39D-03  0.00D+00 EMaxC= 1.00D-01 BMatC= 2.01D-04 BMatP= 3.54D-03
 IDIUse=3 WtCom= 9.86D-01 WtEn= 1.39D-02
 Coeff-Com: -0.579D-02-0.238D-01-0.372D-01 0.167D+00 0.900D+00
 Coeff-En:   0.000D+00 0.000D+00 0.000D+00 0.838D-02 0.992D+00
 Coeff:     -0.571D-02-0.235D-01-0.367D-01 0.165D+00 0.901D+00
 Gap=     0.144 Goal=   None    Shift=    0.000
 Gap=     0.217 Goal=   None    Shift=    0.000
 RMSDP=3.18D-04 MaxDP=4.13D-03 DE=-6.15D-04 OVMax= 8.30D-03

 Cycle   6  Pass 0  IDiag  1:
 E= -140.188129374494     Delta-E=       -0.000056673662 Rises=F Damp=F
 DIIS: error= 2.74D-04 at cycle   6 NSaved=   6.
 NSaved= 6 IEnMin= 6 EnMin= -140.188129374494     IErMin= 6 ErrMin= 2.74D-04
 ErrMax= 2.74D-04  0.00D+00 EMaxC= 1.00D-01 BMatC= 9.03D-06 BMatP= 2.01D-04
 IDIUse=3 WtCom= 9.97D-01 WtEn= 2.74D-03
 Coeff-Com: -0.369D-02-0.201D-02-0.245D-01-0.367D-01 0.139D+00 0.928D+00
 Coeff-En:   0.000D+00 0.000D+00 0.000D+00 0.000D+00 0.000D+00 0.100D+01
 Coeff:     -0.368D-02-0.200D-02-0.245D-01-0.366D-01 0.139D+00 0.928D+00
 Gap=     0.144 Goal=   None    Shift=    0.000
 Gap=     0.217 Goal=   None    Shift=    0.000
 RMSDP=8.57D-05 MaxDP=1.36D-03 DE=-5.67D-05 OVMax= 2.16D-03

 Cycle   7  Pass 0  IDiag  1:
 E= -140.188131981611     Delta-E=       -0.000002607117 Rises=F Damp=F
 DIIS: error= 1.04D-04 at cycle   7 NSaved=   7.
 NSaved= 7 IEnMin= 7 EnMin= -140.188131981611     IErMin= 7 ErrMin= 1.04D-04
 ErrMax= 1.04D-04  0.00D+00 EMaxC= 1.00D-01 BMatC= 9.45D-07 BMatP= 9.03D-06
 IDIUse=3 WtCom= 9.99D-01 WtEn= 1.04D-03
 Coeff-Com: -0.317D-02 0.391D-02-0.911D-02-0.199D-01 0.206D-01 0.366D+00
 Coeff-Com:  0.642D+00
 Coeff-En:   0.000D+00 0.000D+00 0.000D+00 0.000D+00 0.000D+00 0.000D+00
 Coeff-En:   0.100D+01
 Coeff:     -0.317D-02 0.391D-02-0.910D-02-0.199D-01 0.206D-01 0.366D+00
 Coeff:      0.642D+00
 Gap=     0.144 Goal=   None    Shift=    0.000
 Gap=     0.217 Goal=   None    Shift=    0.000
 RMSDP=3.09D-05 MaxDP=4.93D-04 DE=-2.61D-06 OVMax= 8.69D-04

 Cycle   8  Pass 0  IDiag  1:
 E= -140.188132366160     Delta-E=       -0.000000384550 Rises=F Damp=F
 DIIS: error= 1.39D-05 at cycle   8 NSaved=   8.
 NSaved= 8 IEnMin= 8 EnMin= -140.188132366160     IErMin= 8 ErrMin= 1.39D-05
 ErrMax= 1.39D-05  0.00D+00 EMaxC= 1.00D-01 BMatC= 1.89D-08 BMatP= 9.45D-07
 IDIUse=1 WtCom= 1.00D+00 WtEn= 0.00D+00
 Coeff-Com:  0.703D-04 0.849D-04-0.220D-03-0.159D-02-0.707D-02 0.150D-01
 Coeff-Com:  0.934D-01 0.900D+00
 Coeff:      0.703D-04 0.849D-04-0.220D-03-0.159D-02-0.707D-02 0.150D-01
 Coeff:      0.934D-01 0.900D+00
 Gap=     0.144 Goal=   None    Shift=    0.000
 Gap=     0.217 Goal=   None    Shift=    0.000
 RMSDP=4.77D-06 MaxDP=9.54D-05 DE=-3.85D-07 OVMax= 1.22D-04

 Initial convergence to 1.0D-05 achieved.  Increase integral accuracy.
 Cycle   9  Pass 1  IDiag  1:
 E= -140.188135477010     Delta-E=       -0.000003110849 Rises=F Damp=F
 DIIS: error= 4.63D-06 at cycle   1 NSaved=   1.
 NSaved= 1 IEnMin= 1 EnMin= -140.188135477010     IErMin= 1 ErrMin= 4.63D-06
 ErrMax= 4.63D-06  0.00D+00 EMaxC= 1.00D-01 BMatC= 1.59D-09 BMatP= 1.59D-09
 IDIUse=1 WtCom= 1.00D+00 WtEn= 0.00D+00
 Coeff-Com:  0.100D+01
 Coeff:      0.100D+01
 Gap=     0.144 Goal=   None    Shift=    0.000
 Gap=     0.217 Goal=   None    Shift=    0.000
 RMSDP=4.77D-06 MaxDP=9.54D-05 DE=-3.11D-06 OVMax= 7.88D-05

 Cycle  10  Pass 1  IDiag  1:
 E= -140.188135475097     Delta-E=        0.000000001912 Rises=F Damp=F
 DIIS: error= 8.15D-06 at cycle   2 NSaved=   2.
 NSaved= 2 IEnMin= 1 EnMin= -140.188135477010     IErMin= 1 ErrMin= 4.63D-06
 ErrMax= 8.15D-06  0.00D+00 EMaxC= 1.00D-01 BMatC= 7.38D-09 BMatP= 1.59D-09
 IDIUse=1 WtCom= 1.00D+00 WtEn= 0.00D+00
 Coeff-Com:  0.690D+00 0.310D+00
 Coeff:      0.690D+00 0.310D+00
 Gap=     0.144 Goal=   None    Shift=    0.000
 Gap=     0.217 Goal=   None    Shift=    0.000
 RMSDP=1.98D-06 MaxDP=3.75D-05 DE= 1.91D-09 OVMax= 5.59D-05

 Cycle  11  Pass 1  IDiag  1:
 E= -140.188135477579     Delta-E=       -0.000000002482 Rises=F Damp=F
 DIIS: error= 8.10D-07 at cycle   3 NSaved=   3.
 NSaved= 3 IEnMin= 3 EnMin= -140.188135477579     IErMin= 3 ErrMin= 8.10D-07
 ErrMax= 8.10D-07  0.00D+00 EMaxC= 1.00D-01 BMatC= 9.84D-11 BMatP= 1.59D-09
 IDIUse=1 WtCom= 1.00D+00 WtEn= 0.00D+00
 Coeff-Com:  0.262D+00 0.148D+00 0.589D+00
 Coeff:      0.262D+00 0.148D+00 0.589D+00
 Gap=     0.144 Goal=   None    Shift=    0.000
 Gap=     0.217 Goal=   None    Shift=    0.000
 RMSDP=1.41D-07 MaxDP=1.69D-06 DE=-2.48D-09 OVMax= 2.62D-06

 Cycle  12  Pass 1  IDiag  1:
 E= -140.188135477596     Delta-E=       -0.000000000017 Rises=F Damp=F
 DIIS: error= 5.94D-07 at cycle   4 NSaved=   4.
 NSaved= 4 IEnMin= 4 EnMin= -140.188135477596     IErMin= 4 ErrMin= 5.94D-07
 ErrMax= 5.94D-07  0.00D+00 EMaxC= 1.00D-01 BMatC= 3.37D-11 BMatP= 9.84D-11
 IDIUse=1 WtCom= 1.00D+00 WtEn= 0.00D+00
 Coeff-Com:  0.667D-01 0.591D-01 0.364D+00 0.510D+00
 Coeff:      0.667D-01 0.591D-01 0.364D+00 0.510D+00
 Gap=     0.144 Goal=   None    Shift=    0.000
 Gap=     0.217 Goal=   None    Shift=    0.000
 RMSDP=5.33D-08 MaxDP=8.00D-07 DE=-1.67D-11 OVMax= 1.10D-06

 Cycle  13  Pass 1  IDiag  1:
 E= -140.188135477602     Delta-E=       -0.000000000006 Rises=F Damp=F
 DIIS: error= 1.49D-07 at cycle   5 NSaved=   5.
 NSaved= 5 IEnMin= 5 EnMin= -140.188135477602     IErMin= 5 ErrMin= 1.49D-07
 ErrMax= 1.49D-07  0.00D+00 EMaxC= 1.00D-01 BMatC= 2.81D-12 BMatP= 3.37D-11
 IDIUse=1 WtCom= 1.00D+00 WtEn= 0.00D+00
 Coeff-Com: -0.256D-01 0.413D-02 0.437D-01 0.202D+00 0.776D+00
 Coeff:     -0.256D-01 0.413D-02 0.437D-01 0.202D+00 0.776D+00
 Gap=     0.144 Goal=   None    Shift=    0.000
 Gap=     0.217 Goal=   None    Shift=    0.000
 RMSDP=2.96D-08 MaxDP=2.79D-07 DE=-5.71D-12 OVMax= 5.82D-07

 Cycle  14  Pass 1  IDiag  1:
 E= -140.188135477603     Delta-E=       -0.000000000001 Rises=F Damp=F
 DIIS: error= 3.85D-08 at cycle   6 NSaved=   6.
 NSaved= 6 IEnMin= 6 EnMin= -140.188135477603     IErMin= 6 ErrMin= 3.85D-08
 ErrMax= 3.85D-08  0.00D+00 EMaxC= 1.00D-01 BMatC= 1.19D-13 BMatP= 2.81D-12
 IDIUse=1 WtCom= 1.00D+00 WtEn= 0.00D+00
 Coeff-Com: -0.110D-01-0.253D-02-0.195D-01-0.176D-01 0.174D+00 0.876D+00
 Coeff:     -0.110D-01-0.253D-02-0.195D-01-0.176D-01 0.174D+00 0.876D+00
 Gap=     0.144 Goal=   None    Shift=    0.000
 Gap=     0.217 Goal=   None    Shift=    0.000
 RMSDP=5.67D-09 MaxDP=7.57D-08 DE=-7.67D-13 OVMax= 9.28D-08

 SCF Done:  E(UB-P86) =  -140.188135478     A.U. after   14 cycles
            NFock= 14  Conv=0.57D-08     -V/T= 2.0050
 <Sx>= 0.0000 <Sy>= 0.0000 <Sz>= 0.5000 <S**2>= 0.7569 S= 0.5034
 <L.S>= 0.000000000000E+00
 KE= 1.394844326629D+02 PE=-4.095733776590D+02 EE= 9.110304200540D+01
 Annihilation of the first spin contaminant:
 S**2 before annihilation     0.7569,   after     0.7500
 Leave Link  502 at Wed Oct  7 13:18:03 2020, MaxMem=  2684354560 cpu:              23.8 elap:               2.8
 (Enter /udrive/faculty/rpeverati/g16/g16/l508.exe)
 QCSCF skips out because SCF is already converged.
 Leave Link  508 at Wed Oct  7 13:18:04 2020, MaxMem=  2684354560 cpu:               0.9 elap:               0.6
 (Enter /udrive/faculty/rpeverati/g16/g16/l601.exe)
 Copying SCF densities to generalized density rwf, IOpCl= 1 IROHF=0.

 **********************************************************************

            Population analysis using the SCF density.

 **********************************************************************

 Orbital symmetries:
 Alpha Orbitals:
       Occupied  (A') (A') (A') (A') (A') (A') (A") (A") (A') (A')
       Virtual   (A') (A') (A') (A") (A') (A") (A') (A') (A') (A")
                 (A') (A') (A') (A") (A') (A") (A') (A') (A") (A')
                 (A') (A") (A') (A') (A") (A')
 Beta  Orbitals:
       Occupied  (A') (A') (A') (A') (A') (A') (A") (A") (A')
       Virtual   (A') (A') (A') (A') (A") (A') (A") (A') (A') (A')
                 (A") (A') (A') (A') (A") (A') (A") (A') (A') (A")
                 (A') (A') (A") (A') (A') (A") (A')
 The electronic state is 2-A'.
 Alpha  occ. eigenvalues --  -24.26661  -9.94512  -1.03161  -0.64064  -0.44960
 Alpha  occ. eigenvalues --   -0.39521  -0.39518  -0.29218  -0.29217  -0.14326
 Alpha virt. eigenvalues --    0.00074   0.09062   0.14324   0.14324   0.44802
 Alpha virt. eigenvalues --    0.50831   0.50838   0.64465   0.78278   0.83241
 Alpha virt. eigenvalues --    0.83242   0.96696   1.14362   1.14368   1.46332
 Alpha virt. eigenvalues --    1.46336   1.53952   1.68555   1.80212   1.80213
 Alpha virt. eigenvalues --    1.93367   2.03425   2.03429   2.14297   2.14312
 Alpha virt. eigenvalues --    2.70246
  Beta  occ. eigenvalues --  -24.26539  -9.93718  -1.02875  -0.62393  -0.43102
  Beta  occ. eigenvalues --   -0.38930  -0.38927  -0.28964  -0.28963
  Beta virt. eigenvalues --   -0.07251   0.04700   0.09712   0.14788   0.14788
  Beta virt. eigenvalues --    0.48576   0.51393   0.51399   0.72219   0.79604
  Beta virt. eigenvalues --    0.83860   0.83861   0.98379   1.14875   1.14881
  Beta virt. eigenvalues --    1.48097   1.48102   1.55135   1.70519   1.80309
  Beta virt. eigenvalues --    1.80309   1.95085   2.04342   2.04349   2.15397
  Beta virt. eigenvalues --    2.15413   2.73279
          Condensed to atoms (all electrons):
               1          2          3          4          5          6
     1  H    0.919332  -0.077973   0.049255  -0.000329  -0.000333  -0.000333
     2  F   -0.077973   9.419001   0.024177  -0.014489  -0.014459  -0.014459
     3  C    0.049255   0.024177   5.142141   0.372598   0.372535   0.372535
     4  H   -0.000329  -0.014489   0.372598   0.524512  -0.031922  -0.031922
     5  H   -0.000333  -0.014459   0.372535  -0.031922   0.524590  -0.031962
     6  H   -0.000333  -0.014459   0.372535  -0.031922  -0.031962   0.524590
          Atomic-Atomic Spin Densities.
               1          2          3          4          5          6
     1  H    0.778271  -0.218690   0.056796  -0.000804  -0.000806  -0.000806
     2  F   -0.218690   0.269647  -0.134380   0.002296   0.002297   0.002297
     3  C    0.056796  -0.134380   0.622954  -0.006570  -0.006580  -0.006580
     4  H   -0.000804   0.002296  -0.006570  -0.018327   0.001188   0.001188
     5  H   -0.000806   0.002297  -0.006580   0.001188  -0.018312   0.001190
     6  H   -0.000806   0.002297  -0.006580   0.001188   0.001190  -0.018312
 Mulliken charges and spin densities:
               1          2
     1  H    0.110381   0.613961
     2  F   -0.321797  -0.076532
     3  C   -0.333241   0.525642
     4  H    0.181554  -0.021028
     5  H    0.181551  -0.021021
     6  H    0.181551  -0.021021
 Sum of Mulliken charges =   0.00000   1.00000
 Mulliken charges and spin densities with hydrogens summed into heavy atoms:
               1          2
     2  F   -0.211416   0.537429
     3  C    0.211416   0.462571
 Electronic spatial extent (au):  <R**2>=            104.4783
 Charge=             -0.0000 electrons
 Dipole moment (field-independent basis, Debye):
    X=              0.0002    Y=             -1.2116    Z=              0.0000  Tot=              1.2116
 Quadrupole moment (field-independent basis, Debye-Ang):
   XX=            -12.7771   YY=            -12.1514   ZZ=            -12.7782
   XY=              0.0011   XZ=             -0.0000   YZ=             -0.0000
 Traceless Quadrupole moment (field-independent basis, Debye-Ang):
   XX=             -0.2082   YY=              0.4175   ZZ=             -0.2093
   XY=              0.0011   XZ=             -0.0000   YZ=             -0.0000
 Octapole moment (field-independent basis, Debye-Ang**2):
  XXX=              0.7382  YYY=              5.5673  ZZZ=              0.0000  XYY=             -0.0014
  XXY=              0.2989  XXZ=              0.0000  XZZ=             -0.7386  YZZ=              0.2994
  YYZ=              0.0000  XYZ=              0.0000
 Hexadecapole moment (field-independent basis, Debye-Ang**3):
 XXXX=            -17.0963 YYYY=            -95.6807 ZZZZ=            -17.0959 XXXY=             -0.9027
 XXXZ=              0.0000 YYYX=             -0.0006 YYYZ=              0.0000 ZZZX=             -0.0000
 ZZZY=             -0.0000 XXYY=            -18.6643 XXZZ=             -5.6989 YYZZ=            -18.6633
 XXYZ=             -0.0000 YYXZ=             -0.0000 ZZXY=              0.8968
 N-N= 3.879776751306D+01 E-N=-4.095733761147D+02  KE= 1.394844326629D+02
                          Isotropic Fermi Contact Couplings
        Atom                 a.u.       MegaHertz       Gauss      10(-4) cm-1
     1  H(1)               0.18255     815.98305     291.16304     272.18265
     2  F(19)              1.12147    4718.50033    1683.67825    1573.92229
     3  C(13)              0.15171     170.55542      60.85841      56.89116
     4  H(1)              -0.00698     -31.21553     -11.13848     -10.41238
     5  H(1)              -0.00698     -31.19858     -11.13243     -10.40673
     6  H(1)              -0.00698     -31.19858     -11.13243     -10.40673
 --------------------------------------------------------
       Center         ----  Spin Dipole Couplings  ----
                      3XX-RR        3YY-RR        3ZZ-RR
 --------------------------------------------------------
     1   Atom        0.016270     -0.032540      0.016270
     2   Atom        0.209118     -0.418235      0.209117
     3   Atom       -0.275061      0.550124     -0.275063
     4   Atom        0.035028      0.000924     -0.035952
     5   Atom       -0.018214      0.000945      0.017269
     6   Atom       -0.018214      0.000945      0.017269
 --------------------------------------------------------
                        XY            XZ            YZ
 --------------------------------------------------------
     1   Atom       -0.000018     -0.000000     -0.000000
     2   Atom       -0.000115      0.000000      0.000000
     3   Atom       -0.000384      0.000000      0.000000
     4   Atom       -0.013895     -0.000000      0.000000
     5   Atom        0.006949     -0.030734     -0.012061
     6   Atom        0.006949      0.030734      0.012061
 --------------------------------------------------------


 ---------------------------------------------------------------------------------
              Anisotropic Spin Dipole Couplings in Principal Axis System
 ---------------------------------------------------------------------------------

       Atom             a.u.   MegaHertz   Gauss  10(-4) cm-1        Axes

              Baa    -0.0325   -17.362    -6.195    -5.791  0.0004  1.0000  0.0000
     1 H(1)   Bbb     0.0163     8.681     3.098     2.896  1.0000 -0.0004  0.0000
              Bcc     0.0163     8.681     3.098     2.896  0.0000  0.0000  1.0000
 
              Baa    -0.4182  -210.048   -74.950   -70.065  0.0002  1.0000 -0.0000
     2 F(19)  Bbb     0.2091   105.024    37.475    35.032 -0.0000  0.0000  1.0000
              Bcc     0.2091   105.025    37.475    35.032  1.0000 -0.0002  0.0000
 
              Baa    -0.2751   -36.911   -13.171   -12.312 -0.0000 -0.0000  1.0000
     3 C(13)  Bbb    -0.2751   -36.911   -13.171   -12.312  1.0000  0.0005  0.0000
              Bcc     0.5501    73.821    26.341    24.624 -0.0005  1.0000  0.0000
 
              Baa    -0.0360   -19.182    -6.845    -6.398  0.0000  0.0000  1.0000
     4 H(1)   Bbb    -0.0040    -2.145    -0.766    -0.716  0.3353  0.9421  0.0000
              Bcc     0.0400    21.328     7.610     7.114  0.9421 -0.3353  0.0000
 
              Baa    -0.0360   -19.186    -6.846    -6.400  0.8660  0.0004  0.5001
     5 H(1)   Bbb    -0.0040    -2.144    -0.765    -0.715 -0.1683  0.9419  0.2907
              Bcc     0.0400    21.331     7.611     7.115 -0.4709 -0.3359  0.8157
 
              Baa    -0.0360   -19.186    -6.846    -6.400  0.8660  0.0004 -0.5001
     6 H(1)   Bbb    -0.0040    -2.144    -0.765    -0.715 -0.1683  0.9419 -0.2907
              Bcc     0.0400    21.331     7.611     7.115  0.4709  0.3359  0.8157
 

 ---------------------------------------------------------------------------------

 No NMR shielding tensors so no spin-rotation constants.
 Leave Link  601 at Wed Oct  7 13:18:06 2020, MaxMem=  2684354560 cpu:              14.3 elap:               1.9
 (Enter /udrive/faculty/rpeverati/g16/g16/l701.exe)
 ... and contract with generalized density number  0.
 Compute integral first derivatives.
 Leave Link  701 at Wed Oct  7 13:18:08 2020, MaxMem=  2684354560 cpu:               7.2 elap:               1.1
 (Enter /udrive/faculty/rpeverati/g16/g16/l702.exe)
 L702 exits ... SP integral derivatives will be done elsewhere.
 Leave Link  702 at Wed Oct  7 13:18:08 2020, MaxMem=  2684354560 cpu:               1.5 elap:               0.6
 (Enter /udrive/faculty/rpeverati/g16/g16/l703.exe)
 Integral derivatives from FoFJK, PRISM(SPDF).
 Compute integral first derivatives, UseDBF=F ICtDFT=           0.
 Calling FoFJK, ICntrl=      2527 FMM=F ISym2X=1 I1Cent= 0 IOpClX= 0 NMat=1 NMatS=1 NMatT=0.
 FoFJK:  IHMeth= 1 ICntrl=    2527 DoSepK=F KAlg= 0 I1Cent=           0 FoldK=F
 IRaf=         0 NMat=       1 IRICut=       1 DoRegI=T DoRafI=F ISym2E= 1 IDoP0=0 IntGTp=1.
 FoFCou: FMM=F IPFlag=           0 FMFlag=      100000 FMFlg1=         800
         NFxFlg=           0 DoJE=F BraDBF=F KetDBF=F FulRan=T
         wScrn=  0.000000 ICntrl=      2527 IOpCl=  0 I1Cent=           0 NGrid=           0
         NMat0=    1 NMatS0=      1 NMatT0=    0 NMatD0=    1 NMtDS0=    0 NMtDT0=    0
 Petite list used in FoFCou.
 Leave Link  703 at Wed Oct  7 13:18:10 2020, MaxMem=  2684354560 cpu:               6.3 elap:               0.9
 (Enter /udrive/faculty/rpeverati/g16/g16/l716.exe)
 Dipole        = 7.60694176D-05-4.76675107D-01 2.22044605D-16
 ***** Axes restored to original set *****
 -------------------------------------------------------------------
 Center     Atomic                   Forces (Hartrees/Bohr)
 Number     Number              X              Y              Z
 -------------------------------------------------------------------
      1        1           0.000000306    0.004685354   -0.000000000
      2        9          -0.000022494    0.010033560   -0.000000000
      3        6           0.000066539   -0.003131229    0.000000000
      4        1           0.009119832   -0.003875595    0.000000000
      5        1          -0.004582091   -0.003856045    0.007978611
      6        1          -0.004582091   -0.003856045   -0.007978611
 -------------------------------------------------------------------
 Cartesian Forces:  Max     0.010033560 RMS     0.004885760
 Leave Link  716 at Wed Oct  7 13:18:11 2020, MaxMem=  2684354560 cpu:               2.7 elap:               0.8
 (Enter /udrive/faculty/rpeverati/g16/g16/l103.exe)

 GradGradGradGradGradGradGradGradGradGradGradGradGradGradGradGradGradGrad
 Berny optimization.
 Optmz: redundant internal coordinate code flag= 1
 FormGI is forming the generalized inverse of G from B-inverse, IUseBI=4.
 Internal  Forces:  Max     0.014718914 RMS     0.006187142
 Search for a saddle point.
 Step number   1 out of a maximum of   50
 All quantities printed in internal units (Hartrees-Bohrs-Radians)
 Swapping is turned off.
 Second derivative matrix not updated -- first step.
 The second derivative matrix:
                          R1        R2        R3        R4        R5
           R1           0.22057
           R2           0.00000   0.19598
           R3           0.00000   0.00000   0.36022
           R4           0.00000   0.00000   0.00000   0.36033
           R5           0.00000   0.00000   0.00000   0.00000   0.36033
           A1           0.00000   0.00000   0.00000   0.00000   0.00000
           A2           0.00000   0.00000   0.00000   0.00000   0.00000
           A3           0.00000   0.00000   0.00000   0.00000   0.00000
           A4           0.00000   0.00000   0.00000   0.00000   0.00000
           A5           0.00000   0.00000   0.00000   0.00000   0.00000
           A6           0.00000   0.00000   0.00000   0.00000   0.00000
           A7           0.00000   0.00000   0.00000   0.00000   0.00000
           A8           0.00000   0.00000   0.00000   0.00000   0.00000
           D1           0.00000   0.00000   0.00000   0.00000   0.00000
                          A1        A2        A3        A4        A5
           A1           0.16000
           A2           0.00000   0.16000
           A3           0.00000   0.00000   0.16000
           A4           0.00000   0.00000   0.00000   0.16000
           A5           0.00000   0.00000   0.00000   0.00000   0.16000
           A6           0.00000   0.00000   0.00000   0.00000   0.00000
           A7           0.00000   0.00000   0.00000   0.00000   0.00000
           A8           0.00000   0.00000   0.00000   0.00000   0.00000
           D1           0.00000   0.00000   0.00000   0.00000   0.00000
                          A6        A7        A8        D1
           A6           0.16000
           A7           0.00000   0.00230
           A8           0.00000   0.00000   0.00230
           D1           0.00000   0.00000   0.00000   0.00371
 ITU=  0
 Eigenvectors of the second derivative matrix:
                           1         2         3         4         5
     Eigenvalues --     0.00230   0.00230   0.05482   0.16000   0.16000
   1         R1        -0.00000   0.00000   0.00000  -0.00000  -0.00000
   2         R2         0.00000  -0.00000   0.00000   0.00000  -0.00000
   3         R3        -0.00000   0.00000   0.00000  -0.00000  -0.00000
   4         R4         0.00000   0.00000  -0.00000   0.00000  -0.00000
   5         R5        -0.00000  -0.00000  -0.00000   0.00000   0.00000
   6         A1         0.00000   0.00000  -0.26170   0.06551  -0.66896
   7         A2         0.00000   0.00000  -0.26168   0.03907   0.68006
   8         A3        -0.00000  -0.00000  -0.26168  -0.01980   0.08608
   9         A4        -0.00000   0.00000   0.29660   0.17965   0.20549
  10         A5         0.00000   0.00000   0.12961  -0.80283  -0.09988
  11         A6        -0.00000   0.00000   0.12958   0.56301  -0.17432
  12         A7         0.49200   0.87060  -0.00000   0.00000   0.00000
  13         A8         0.87060  -0.49200   0.00000   0.00000  -0.00000
  14         D1        -0.00000   0.00000   0.82036  -0.00000  -0.00000
                           6         7         8         9        10
     Eigenvalues --     0.16000   0.16000   0.19598   0.22057   0.36022
   1         R1         0.00000   0.00000   0.00000  -1.00000  -0.00000
   2         R2        -0.00000   0.00000   1.00000   0.00000  -0.00000
   3         R3         0.00000   0.00000   0.00000   0.00000  -1.00000
   4         R4         0.00000   0.00000   0.00000   0.00000   0.00000
   5         R5        -0.00000   0.00000   0.00000  -0.00000   0.00000
   6         A1        -0.31225  -0.36049  -0.00000   0.00000  -0.00000
   7         A2         0.10115  -0.45285   0.00000  -0.00000  -0.00000
   8         A3        -0.10041   0.81328   0.00000   0.00000   0.00000
   9         A4        -0.65914  -0.00017  -0.00000  -0.00000  -0.00000
  10         A5         0.26523  -0.04196   0.00000   0.00000   0.00000
  11         A6         0.61431   0.04219  -0.00000  -0.00000  -0.00000
  12         A7        -0.00000   0.00000   0.00000  -0.00000   0.00000
  13         A8        -0.00000  -0.00000  -0.00000  -0.00000  -0.00000
  14         D1         0.00000  -0.00000  -0.00000   0.00000   0.00000
                          11        12
     Eigenvalues --     0.36033   0.36033
   1         R1         0.00000  -0.00000
   2         R2         0.00000   0.00000
   3         R3        -0.00000  -0.00000
   4         R4        -0.70685  -0.70736
   5         R5        -0.70736   0.70685
   6         A1         0.00000  -0.00000
   7         A2        -0.00000  -0.00000
   8         A3         0.00000   0.00000
   9         A4        -0.00000  -0.00000
  10         A5        -0.00000  -0.00000
  11         A6         0.00000   0.00000
  12         A7        -0.00000   0.00000
  13         A8        -0.00000   0.00000
  14         D1        -0.00000  -0.00000
 Eigenvalue     1 is   2.30D-03 should be less than     0.000000 Eigenvector:
                          A8        A7        R1        A3        D1
   1                    0.87060   0.49200  -0.00000  -0.00000  -0.00000
                          A2        A5        A4        R5        A1
   1                    0.00000   0.00000  -0.00000  -0.00000   0.00000
 RLam0= 2.30D-03.
 Iter=   1 RLamda= 0.00000000D+00 Sum=-2.15899947D-03.
 Iter=   2 RLamda=-2.15899947D-03 Sum=-2.13557565D-03.
 Iter=   3 RLamda=-2.13557565D-03 Sum=-2.13582569D-03.
 Iter=   4 RLamda=-2.13582569D-03 Sum=-2.13582302D-03.
 RFO step:  Lambda0=2.300011340D-03 Lambda=-2.13582569D-03.
 Linear search not attempted -- option 19 set.
 Maximum step size (   0.100) exceeded in Quadratic search.
    -- Step size scaled by   0.712
 Iteration  1 RMS(Cart)=  0.03117671 RMS(Int)=  0.00112328
 Iteration  2 RMS(Cart)=  0.00084631 RMS(Int)=  0.00007752
 Iteration  3 RMS(Cart)=  0.00000174 RMS(Int)=  0.00007750
 Iteration  4 RMS(Cart)=  0.00000000 RMS(Int)=  0.00007750
 ITry= 1 IFail=0 DXMaxC= 5.83D-02 DCOld= 1.00D+10 DXMaxT= 1.00D-01 DXLimC= 3.00D+00 Rises=F
 ClnCor:  largest displacement from symmetrization is 3.02D-02 for atom     6.
 Variable       Old X    -DE/DX   Delta X   Delta X   Delta X     New X
                                 (Linear)    (Quad)   (Total)
    R1        2.34040   0.00469   0.00000   0.01499   0.01430   2.35470
    R2        3.15329   0.01472   0.00000   0.05292   0.05280   3.20609
    R3        2.04047   0.00975   0.00000   0.01916   0.01915   2.05962
    R4        2.04030   0.00982   0.00000   0.01930   0.01743   2.05773
    R5        2.04030   0.00982   0.00000   0.01930   0.01743   2.05773
    A1        1.79058   0.00092   0.00000   0.01007   0.01008   1.80065
    A2        1.79134   0.00085   0.00000   0.00974   0.00248   1.79382
    A3        1.79134   0.00085   0.00000   0.00974   0.00248   1.79382
    A4        2.01363   0.00001   0.00000  -0.00675  -0.00485   2.00879
    A5        2.01363  -0.00096   0.00000  -0.00719  -0.00485   2.00879
    A6        2.01322  -0.00091   0.00000  -0.00698  -0.00105   2.01217
    A7        3.14120   0.00000   0.00000  -0.03578  -0.03487   3.10633
    A8        3.14159  -0.00000   0.00000  -0.06432   0.00000   3.14159
    D1        2.41803  -0.00232   0.00000  -0.02903  -0.01530   2.40273
         Item               Value     Threshold  Converged?
 Maximum Force            0.014719     0.000450     NO 
 RMS     Force            0.006187     0.000300     NO 
 Maximum Displacement     0.058350     0.001800     NO 
 RMS     Displacement     0.026115     0.001200     NO 
 Predicted change in Energy=-9.416086D-04
 Lowest energy point so far.  Saving SCF results.
 Largest change from initial coordinates is atom    1       0.016 Angstoms.
 GradGradGradGradGradGradGradGradGradGradGradGradGradGradGradGradGradGrad

 Leave Link  103 at Wed Oct  7 13:18:14 2020, MaxMem=  2684354560 cpu:              17.6 elap:               2.3
 (Enter /udrive/faculty/rpeverati/g16/g16/l202.exe)
                          Input orientation:                          
 ---------------------------------------------------------------------
 Center     Atomic      Atomic             Coordinates (Angstroms)
 Number     Number       Type             X           Y           Z
 ---------------------------------------------------------------------
      1          1           0        0.015562    2.031845    0.000000
      2          9           0       -0.016890    0.786215    0.000000
      3          6           0       -0.001264   -0.910304    0.000000
      4          1           0        1.062218   -1.148839    0.000000
      5          1           0       -0.529678   -1.156020    0.919843
      6          1           0       -0.529678   -1.156020   -0.919843
 ---------------------------------------------------------------------
                    Distance matrix (angstroms):
                    1          2          3          4          5
     1  H    0.000000
     2  F    1.246053   0.000000
     3  C    2.942196   1.696590   0.000000
     4  H    3.348468   2.215605   1.089905   0.000000
     5  H    3.362422   2.209375   1.088903   1.838558   0.000000
     6  H    3.362422   2.209375   1.088903   1.838558   1.839686
                    6
     6  H    0.000000
 Stoichiometry    CH4F(2)
 Framework group  CS[SG(CH2F),X(H2)]
 Deg. of freedom     8
 Full point group                 CS      NOp   2
 RotChk:  IX=0 Diff= 1.30D-02
 Largest Abelian subgroup         CS      NOp   2
 Largest concise Abelian subgroup CS      NOp   2
                         Standard orientation:                         
 ---------------------------------------------------------------------
 Center     Atomic      Atomic             Coordinates (Angstroms)
 Number     Number       Type             X           Y           Z
 ---------------------------------------------------------------------
      1          1           0        0.041616    2.021806    0.000000
      2          9           0       -0.002308    0.776528    0.000000
      3          6           0       -0.002308   -0.920062   -0.000000
      4          1           0        1.058932   -1.168383    0.000000
      5          1           0       -0.532963   -1.160902    0.919843
      6          1           0       -0.532963   -1.160902   -0.919843
 ---------------------------------------------------------------------
 Rotational constants (GHZ):         148.2150343          16.1008334          16.1002394
 Leave Link  202 at Wed Oct  7 13:18:14 2020, MaxMem=  2684354560 cpu:               2.1 elap:               0.5
 (Enter /udrive/faculty/rpeverati/g16/g16/l301.exe)
 Standard basis: 6-31G(d) (5D, 7F)
 Ernie: Thresh=  0.10000D-02 Tol=  0.10000D-05 Strict=F.
 There are    28 symmetry adapted cartesian basis functions of A'  symmetry.
 There are    10 symmetry adapted cartesian basis functions of A"  symmetry.
 There are    26 symmetry adapted basis functions of A'  symmetry.
 There are    10 symmetry adapted basis functions of A"  symmetry.
    36 basis functions,    72 primitive gaussians,    38 cartesian basis functions
    10 alpha electrons        9 beta electrons
       nuclear repulsion energy        38.2859798652 Hartrees.
 IExCor=  404 DFT=T Ex=B Corr=P86 ExCW=0 ScaHFX=  0.000000
 ScaDFX=  1.000000  1.000000  1.000000  1.000000 ScalE2=  1.000000  1.000000
 IRadAn=      5 IRanWt=     -1 IRanGd=            0 ICorTp=0 IEmpDi=  4
 NAtoms=    6 NActive=    6 NUniq=    5 SFac= 1.44D+00 NAtFMM=   60 NAOKFM=F Big=F
 Integral buffers will be    131072 words long.
 Raffenetti 2 integral format.
 Two-electron integral symmetry is turned on.
 Leave Link  301 at Wed Oct  7 13:18:16 2020, MaxMem=  2684354560 cpu:               1.4 elap:               0.8
 (Enter /udrive/faculty/rpeverati/g16/g16/l302.exe)
 NPDir=0 NMtPBC=     1 NCelOv=     1 NCel=       1 NClECP=     1 NCelD=      1
         NCelK=      1 NCelE2=     1 NClLst=     1 CellRange=     0.0.
 One-electron integrals computed using PRISM.
 One-electron integral symmetry used in STVInt
 NBasis=    36 RedAO= T EigKep=  2.17D-02  NBF=    26    10
 NBsUse=    36 1.00D-06 EigRej= -1.00D+00 NBFU=    26    10
 Precomputing XC quadrature grid using
 IXCGrd= 4 IRadAn=           5 IRanWt=          -1 IRanGd=           0 AccXCQ= 0.00D+00.
 Generated NRdTot=       0 NPtTot=           0 NUsed=           0 NTot=          32
 NSgBfM=    38    38    38    38    38 MxSgAt=     6 MxSgA2=     6.
 Leave Link  302 at Wed Oct  7 13:18:18 2020, MaxMem=  2684354560 cpu:               9.6 elap:               2.0
 (Enter /udrive/faculty/rpeverati/g16/g16/l303.exe)
 DipDrv:  MaxL=1.
 Leave Link  303 at Wed Oct  7 13:18:19 2020, MaxMem=  2684354560 cpu:               2.6 elap:               0.8
 (Enter /udrive/faculty/rpeverati/g16/g16/l401.exe)
 Initial guess from the checkpoint file:  "MN_53_hfch3ts_BH76_BP86_631Gs.chk"
 SCF N**3 symmetry information disabled.
 B after Tr=    -0.000000   -0.000000    0.000000
         Rot=    0.999997    0.000000   -0.000000    0.002393 Ang=   0.27 deg.
 Guess basis will be translated and rotated to current coordinates.
 JPrj=2 DoOrth=T DoCkMO=T.
 Initial guess orbital symmetries:
 Alpha Orbitals:
       Occupied  (A') (A') (A') (A') (A') (A') (A") (A") (A') (A')
       Virtual   (A') (A') (A') (A") (A') (A") (A') (A') (A') (A")
                 (A') (A') (A') (A") (A') (A") (A') (A') (A") (A')
                 (A') (A") (A') (A') (A") (A')
 Beta  Orbitals:
       Occupied  (A') (A') (A') (A') (A') (A') (A") (A") (A')
       Virtual   (A') (A') (A') (A') (A") (A') (A") (A') (A') (A')
                 (A") (A') (A') (A') (A") (A') (A") (A') (A') (A")
                 (A') (A') (A") (A') (A') (A") (A')
 The electronic state of the initial guess is 2-A'.
 Initial guess <Sx>= 0.0000 <Sy>= 0.0000 <Sz>= 0.5000 <S**2>= 0.7570 S= 0.5035
 Generating alternative initial guess.
 ExpMin= 1.61D-01 ExpMax= 7.00D+03 ExpMxC= 1.05D+03 IAcc=2 IRadAn=         4 AccDes= 0.00D+00
 Harris functional with IExCor=  404 and IRadAn=       4 diagonalized for initial guess.
 HarFok:  IExCor=  404 AccDes= 0.00D+00 IRadAn=         4 IDoV= 1 UseB2=F ITyADJ=14
 ICtDFT=  3500011 ScaDFX=  1.000000  1.000000  1.000000  1.000000
 FoFCou: FMM=F IPFlag=           0 FMFlag=      100000 FMFlg1=           0
         NFxFlg=           0 DoJE=T BraDBF=F KetDBF=T FulRan=T
         wScrn=  0.000000 ICntrl=       500 IOpCl=  0 I1Cent=   200000004 NGrid=           0
         NMat0=    1 NMatS0=      1 NMatT0=    0 NMatD0=    1 NMtDS0=    0 NMtDT0=    0
 Petite list used in FoFCou.
 Harris En= -140.214529634102    
 Leave Link  401 at Wed Oct  7 13:18:22 2020, MaxMem=  2684354560 cpu:              22.8 elap:               2.6
 (Enter /udrive/faculty/rpeverati/g16/g16/l502.exe)
 Keep J ints in memory in symmetry-blocked form, NReq=10578875.
 FoFCou: FMM=F IPFlag=           0 FMFlag=           0 FMFlg1=           0
         NFxFlg=           0 DoJE=F BraDBF=F KetDBF=F FulRan=T
         wScrn=  0.000000 ICntrl=       600 IOpCl=  0 I1Cent=           0 NGrid=           0
         NMat0=    1 NMatS0=    666 NMatT0=    0 NMatD0=    1 NMtDS0=    0 NMtDT0=    0
 Petite list used in FoFCou.
 UHF open shell SCF:
 Using DIIS extrapolation, IDIIS=  1040.
 NGot=  2684354560 LenX=  2684232161 LenY=  2684230276
 Requested convergence on RMS density matrix=1.00D-08 within 120 cycles.
 Requested convergence on MAX density matrix=1.00D-06.
 Requested convergence on             energy=1.00D-06.
 No special actions if energy rises.
 Integral accuracy reduced to 1.0D-05 until final iterations.

 Cycle   1  Pass 0  IDiag  1:
 E= -140.188937362678    
 DIIS: error= 1.95D-03 at cycle   1 NSaved=   1.
 NSaved= 1 IEnMin= 1 EnMin= -140.188937362678     IErMin= 1 ErrMin= 1.95D-03
 ErrMax= 1.95D-03  0.00D+00 EMaxC= 1.00D-01 BMatC= 5.60D-04 BMatP= 5.60D-04
 IDIUse=3 WtCom= 9.81D-01 WtEn= 1.95D-02
 Coeff-Com:  0.100D+01
 Coeff-En:   0.100D+01
 Coeff:      0.100D+01
 Gap=     0.142 Goal=   None    Shift=    0.000
 Gap=     0.212 Goal=   None    Shift=    0.000
 GapD=    0.142 DampG=1.000 DampE=1.000 DampFc=1.0000 IDamp=-1.
 RMSDP=8.15D-04 MaxDP=1.30D-02              OVMax= 1.63D-02

 Cycle   2  Pass 0  IDiag  1:
 E= -140.189183299542     Delta-E=       -0.000245936864 Rises=F Damp=F
 DIIS: error= 7.96D-04 at cycle   2 NSaved=   2.
 NSaved= 2 IEnMin= 2 EnMin= -140.189183299542     IErMin= 2 ErrMin= 7.96D-04
 ErrMax= 7.96D-04  0.00D+00 EMaxC= 1.00D-01 BMatC= 6.96D-05 BMatP= 5.60D-04
 IDIUse=3 WtCom= 9.92D-01 WtEn= 7.96D-03
 Coeff-Com:  0.168D+00 0.832D+00
 Coeff-En:   0.000D+00 0.100D+01
 Coeff:      0.166D+00 0.834D+00
 Gap=     0.141 Goal=   None    Shift=    0.000
 Gap=     0.212 Goal=   None    Shift=    0.000
 RMSDP=1.99D-04 MaxDP=2.52D-03 DE=-2.46D-04 OVMax= 2.38D-03

 Cycle   3  Pass 0  IDiag  1:
 E= -140.189189192748     Delta-E=       -0.000005893206 Rises=F Damp=F
 DIIS: error= 6.89D-04 at cycle   3 NSaved=   3.
 NSaved= 3 IEnMin= 3 EnMin= -140.189189192748     IErMin= 3 ErrMin= 6.89D-04
 ErrMax= 6.89D-04  0.00D+00 EMaxC= 1.00D-01 BMatC= 5.87D-05 BMatP= 6.96D-05
 IDIUse=3 WtCom= 9.93D-01 WtEn= 6.89D-03
 Coeff-Com: -0.269D-02 0.477D+00 0.526D+00
 Coeff-En:   0.000D+00 0.397D+00 0.603D+00
 Coeff:     -0.267D-02 0.476D+00 0.526D+00
 Gap=     0.141 Goal=   None    Shift=    0.000
 Gap=     0.211 Goal=   None    Shift=    0.000
 RMSDP=1.28D-04 MaxDP=2.31D-03 DE=-5.89D-06 OVMax= 2.76D-03

 Cycle   4  Pass 0  IDiag  1:
 E= -140.189199986595     Delta-E=       -0.000010793847 Rises=F Damp=F
 DIIS: error= 2.24D-04 at cycle   4 NSaved=   4.
 NSaved= 4 IEnMin= 4 EnMin= -140.189199986595     IErMin= 4 ErrMin= 2.24D-04
 ErrMax= 2.24D-04  0.00D+00 EMaxC= 1.00D-01 BMatC= 6.68D-06 BMatP= 5.87D-05
 IDIUse=3 WtCom= 9.98D-01 WtEn= 2.24D-03
 Coeff-Com: -0.138D-02 0.179D+00 0.303D+00 0.519D+00
 Coeff-En:   0.000D+00 0.000D+00 0.125D+00 0.875D+00
 Coeff:     -0.138D-02 0.179D+00 0.303D+00 0.520D+00
 Gap=     0.141 Goal=   None    Shift=    0.000
 Gap=     0.211 Goal=   None    Shift=    0.000
 RMSDP=9.01D-05 MaxDP=1.68D-03 DE=-1.08D-05 OVMax= 2.65D-03

 Cycle   5  Pass 0  IDiag  1:
 E= -140.189202125446     Delta-E=       -0.000002138851 Rises=F Damp=F
 DIIS: error= 1.17D-04 at cycle   5 NSaved=   5.
 NSaved= 5 IEnMin= 5 EnMin= -140.189202125446     IErMin= 5 ErrMin= 1.17D-04
 ErrMax= 1.17D-04  0.00D+00 EMaxC= 1.00D-01 BMatC= 1.11D-06 BMatP= 6.68D-06
 IDIUse=3 WtCom= 9.99D-01 WtEn= 1.17D-03
 Coeff-Com: -0.452D-02 0.566D-01 0.127D+00 0.339D+00 0.482D+00
 Coeff-En:   0.000D+00 0.000D+00 0.000D+00 0.106D+00 0.894D+00
 Coeff:     -0.451D-02 0.566D-01 0.127D+00 0.338D+00 0.483D+00
 Gap=     0.141 Goal=   None    Shift=    0.000
 Gap=     0.211 Goal=   None    Shift=    0.000
 RMSDP=2.19D-05 MaxDP=3.68D-04 DE=-2.14D-06 OVMax= 5.83D-04

 Cycle   6  Pass 0  IDiag  1:
 E= -140.189202425523     Delta-E=       -0.000000300076 Rises=F Damp=F
 DIIS: error= 4.62D-05 at cycle   6 NSaved=   6.
 NSaved= 6 IEnMin= 6 EnMin= -140.189202425523     IErMin= 6 ErrMin= 4.62D-05
 ErrMax= 4.62D-05  0.00D+00 EMaxC= 1.00D-01 BMatC= 2.91D-07 BMatP= 1.11D-06
 IDIUse=1 WtCom= 1.00D+00 WtEn= 0.00D+00
 Coeff-Com: -0.970D-03-0.381D-01-0.377D-01 0.846D-01 0.363D+00 0.629D+00
 Coeff:     -0.970D-03-0.381D-01-0.377D-01 0.846D-01 0.363D+00 0.629D+00
 Gap=     0.141 Goal=   None    Shift=    0.000
 Gap=     0.211 Goal=   None    Shift=    0.000
 RMSDP=6.97D-06 MaxDP=1.30D-04 DE=-3.00D-07 OVMax= 1.61D-04

 Initial convergence to 1.0D-05 achieved.  Increase integral accuracy.
 Cycle   7  Pass 1  IDiag  1:
 E= -140.189204707304     Delta-E=       -0.000002281781 Rises=F Damp=F
 DIIS: error= 7.00D-06 at cycle   1 NSaved=   1.
 NSaved= 1 IEnMin= 1 EnMin= -140.189204707304     IErMin= 1 ErrMin= 7.00D-06
 ErrMax= 7.00D-06  0.00D+00 EMaxC= 1.00D-01 BMatC= 4.45D-09 BMatP= 4.45D-09
 IDIUse=1 WtCom= 1.00D+00 WtEn= 0.00D+00
 Coeff-Com:  0.100D+01
 Coeff:      0.100D+01
 Gap=     0.141 Goal=   None    Shift=    0.000
 Gap=     0.211 Goal=   None    Shift=    0.000
 RMSDP=6.97D-06 MaxDP=1.30D-04 DE=-2.28D-06 OVMax= 1.03D-04

 Cycle   8  Pass 1  IDiag  1:
 E= -140.189204702379     Delta-E=        0.000000004925 Rises=F Damp=F
 DIIS: error= 1.31D-05 at cycle   2 NSaved=   2.
 NSaved= 2 IEnMin= 1 EnMin= -140.189204707304     IErMin= 1 ErrMin= 7.00D-06
 ErrMax= 1.31D-05  0.00D+00 EMaxC= 1.00D-01 BMatC= 1.79D-08 BMatP= 4.45D-09
 IDIUse=1 WtCom= 1.00D+00 WtEn= 0.00D+00
 Coeff-Com:  0.680D+00 0.320D+00
 Coeff:      0.680D+00 0.320D+00
 Gap=     0.141 Goal=   None    Shift=    0.000
 Gap=     0.211 Goal=   None    Shift=    0.000
 RMSDP=3.10D-06 MaxDP=5.93D-05 DE= 4.93D-09 OVMax= 8.93D-05

 Cycle   9  Pass 1  IDiag  1:
 E= -140.189204708286     Delta-E=       -0.000000005908 Rises=F Damp=F
 DIIS: error= 1.74D-06 at cycle   3 NSaved=   3.
 NSaved= 3 IEnMin= 3 EnMin= -140.189204708286     IErMin= 3 ErrMin= 1.74D-06
 ErrMax= 1.74D-06  0.00D+00 EMaxC= 1.00D-01 BMatC= 4.09D-10 BMatP= 4.45D-09
 IDIUse=1 WtCom= 1.00D+00 WtEn= 0.00D+00
 Coeff-Com:  0.136D+00 0.144D+00 0.720D+00
 Coeff:      0.136D+00 0.144D+00 0.720D+00
 Gap=     0.141 Goal=   None    Shift=    0.000
 Gap=     0.211 Goal=   None    Shift=    0.000
 RMSDP=2.45D-07 MaxDP=3.06D-06 DE=-5.91D-09 OVMax= 5.34D-06

 Cycle  10  Pass 1  IDiag  1:
 E= -140.189204708366     Delta-E=       -0.000000000080 Rises=F Damp=F
 DIIS: error= 1.23D-06 at cycle   4 NSaved=   4.
 NSaved= 4 IEnMin= 4 EnMin= -140.189204708366     IErMin= 4 ErrMin= 1.23D-06
 ErrMax= 1.23D-06  0.00D+00 EMaxC= 1.00D-01 BMatC= 1.64D-10 BMatP= 4.09D-10
 IDIUse=1 WtCom= 1.00D+00 WtEn= 0.00D+00
 Coeff-Com: -0.145D-02 0.642D-01 0.442D+00 0.495D+00
 Coeff:     -0.145D-02 0.642D-01 0.442D+00 0.495D+00
 Gap=     0.141 Goal=   None    Shift=    0.000
 Gap=     0.211 Goal=   None    Shift=    0.000
 RMSDP=1.34D-07 MaxDP=1.78D-06 DE=-7.99D-11 OVMax= 2.66D-06

 Cycle  11  Pass 1  IDiag  1:
 E= -140.189204708398     Delta-E=       -0.000000000032 Rises=F Damp=F
 DIIS: error= 2.98D-07 at cycle   5 NSaved=   5.
 NSaved= 5 IEnMin= 5 EnMin= -140.189204708398     IErMin= 5 ErrMin= 2.98D-07
 ErrMax= 2.98D-07  0.00D+00 EMaxC= 1.00D-01 BMatC= 1.48D-11 BMatP= 1.64D-10
 IDIUse=1 WtCom= 1.00D+00 WtEn= 0.00D+00
 Coeff-Com: -0.511D-01-0.917D-02-0.509D-01 0.191D+00 0.920D+00
 Coeff:     -0.511D-01-0.917D-02-0.509D-01 0.191D+00 0.920D+00
 Gap=     0.141 Goal=   None    Shift=    0.000
 Gap=     0.211 Goal=   None    Shift=    0.000
 RMSDP=6.29D-08 MaxDP=7.61D-07 DE=-3.21D-11 OVMax= 1.51D-06

 Cycle  12  Pass 1  IDiag  1:
 E= -140.189204708402     Delta-E=       -0.000000000004 Rises=F Damp=F
 DIIS: error= 4.19D-08 at cycle   6 NSaved=   6.
 NSaved= 6 IEnMin= 6 EnMin= -140.189204708402     IErMin= 6 ErrMin= 4.19D-08
 ErrMax= 4.19D-08  0.00D+00 EMaxC= 1.00D-01 BMatC= 2.63D-13 BMatP= 1.48D-11
 IDIUse=1 WtCom= 1.00D+00 WtEn= 0.00D+00
 Coeff-Com: -0.121D-01-0.441D-02-0.222D-01 0.193D-01 0.241D+00 0.778D+00
 Coeff:     -0.121D-01-0.441D-02-0.222D-01 0.193D-01 0.241D+00 0.778D+00
 Gap=     0.141 Goal=   None    Shift=    0.000
 Gap=     0.211 Goal=   None    Shift=    0.000
 RMSDP=9.04D-09 MaxDP=7.84D-08 DE=-3.98D-12 OVMax= 1.48D-07

 SCF Done:  E(UB-P86) =  -140.189204708     A.U. after   12 cycles
            NFock= 12  Conv=0.90D-08     -V/T= 2.0055
 <Sx>= 0.0000 <Sy>= 0.0000 <Sz>= 0.5000 <S**2>= 0.7576 S= 0.5038
 <L.S>= 0.000000000000E+00
 KE= 1.394169500726D+02 PE=-4.085463281914D+02 EE= 9.065419354522D+01
 Annihilation of the first spin contaminant:
 S**2 before annihilation     0.7576,   after     0.7500
 Leave Link  502 at Wed Oct  7 13:18:26 2020, MaxMem=  2684354560 cpu:              28.5 elap:               3.0
 (Enter /udrive/faculty/rpeverati/g16/g16/l508.exe)
 QCSCF skips out because SCF is already converged.
 Leave Link  508 at Wed Oct  7 13:18:27 2020, MaxMem=  2684354560 cpu:               0.8 elap:               0.6
 (Enter /udrive/faculty/rpeverati/g16/g16/l701.exe)
 ... and contract with generalized density number  0.
 Compute integral first derivatives.
 Leave Link  701 at Wed Oct  7 13:18:28 2020, MaxMem=  2684354560 cpu:               3.8 elap:               0.9
 (Enter /udrive/faculty/rpeverati/g16/g16/l702.exe)
 L702 exits ... SP integral derivatives will be done elsewhere.
 Leave Link  702 at Wed Oct  7 13:18:29 2020, MaxMem=  2684354560 cpu:               1.4 elap:               0.7
 (Enter /udrive/faculty/rpeverati/g16/g16/l703.exe)
 Integral derivatives from FoFJK, PRISM(SPDF).
 Compute integral first derivatives, UseDBF=F ICtDFT=           0.
 Calling FoFJK, ICntrl=      2527 FMM=F ISym2X=1 I1Cent= 0 IOpClX= 0 NMat=1 NMatS=1 NMatT=0.
 FoFJK:  IHMeth= 1 ICntrl=    2527 DoSepK=F KAlg= 0 I1Cent=           0 FoldK=F
 IRaf=         0 NMat=       1 IRICut=       1 DoRegI=T DoRafI=F ISym2E= 1 IDoP0=0 IntGTp=1.
 FoFCou: FMM=F IPFlag=           0 FMFlag=      100000 FMFlg1=         800
         NFxFlg=           0 DoJE=F BraDBF=F KetDBF=F FulRan=T
         wScrn=  0.000000 ICntrl=      2527 IOpCl=  0 I1Cent=           0 NGrid=           0
         NMat0=    1 NMatS0=      1 NMatT0=    0 NMatD0=    1 NMtDS0=    0 NMtDT0=    0
 Petite list used in FoFCou.
 Leave Link  703 at Wed Oct  7 13:18:31 2020, MaxMem=  2684354560 cpu:              11.7 elap:               1.7
 (Enter /udrive/faculty/rpeverati/g16/g16/l716.exe)
 Dipole        = 6.30657050D-03-4.44226298D-01-2.22044605D-16
 ***** Axes restored to original set *****
 -------------------------------------------------------------------
 Center     Atomic                   Forces (Hartrees/Bohr)
 Number     Number              X              Y              Z
 -------------------------------------------------------------------
      1        1          -0.000149592   -0.002378435   -0.000000000
      2        9           0.000269340    0.013171610    0.000000000
      3        6           0.000605471   -0.006690058   -0.000000000
      4        1           0.002614018   -0.001073284   -0.000000000
      5        1          -0.001669619   -0.001514916    0.002635717
      6        1          -0.001669619   -0.001514916   -0.002635717
 -------------------------------------------------------------------
 Cartesian Forces:  Max     0.013171610 RMS     0.003774261
 Leave Link  716 at Wed Oct  7 13:18:32 2020, MaxMem=  2684354560 cpu:               1.5 elap:               0.9
 (Enter /udrive/faculty/rpeverati/g16/g16/l103.exe)

 GradGradGradGradGradGradGradGradGradGradGradGradGradGradGradGradGradGrad
 Berny optimization.
 Optmz: redundant internal coordinate code flag= 1
 Red2BG:  D1=  2.50D-01 OD1=  1.13D-01 B2RMS=  0.00D+00 IAprox=0
 FormGI is forming the generalized inverse of G from B-inverse, IUseBI=4.
 Internal  Forces:  Max     0.010791614 RMS     0.003321734
 Search for a saddle point.
 Step number   2 out of a maximum of   50
 All quantities printed in internal units (Hartrees-Bohrs-Radians)
 Swapping is turned off.
 Update second derivatives using D2CorX and points    1    2
 The second derivative matrix:
                          R1        R2        R3        R4        R5
           R1           0.22579
           R2           0.04117   0.08564
           R3           0.01243  -0.00999   0.36300
           R4           0.01120  -0.00775   0.00281   0.36314
           R5           0.01120  -0.00775   0.00281   0.00281   0.36314
           A1           0.00731  -0.01452  -0.00051  -0.00026  -0.00026
           A2           0.00168  -0.00215   0.00018   0.00020   0.00020
           A3           0.00168  -0.00215   0.00018   0.00020   0.00020
           A4          -0.00388   0.01138   0.00118   0.00095   0.00095
           A5          -0.00325   0.00384  -0.00042  -0.00047  -0.00047
           A6          -0.00052  -0.00145  -0.00058  -0.00053  -0.00053
           A7          -0.02261   0.01802  -0.00509  -0.00515  -0.00515
           A8           0.00000  -0.00000  -0.00000  -0.00000  -0.00000
           D1          -0.00853  -0.00890  -0.00581  -0.00541  -0.00541
                          A1        A2        A3        A4        A5
           A1           0.15826
           A2          -0.00020   0.16000
           A3          -0.00020  -0.00000   0.16000
           A4           0.00153   0.00024   0.00024   0.15883
           A5           0.00034  -0.00000  -0.00000  -0.00043   0.16003
           A6          -0.00029  -0.00007  -0.00007   0.00013   0.00014
           A7           0.00091  -0.00033  -0.00033  -0.00214   0.00078
           A8          -0.00000  -0.00000  -0.00000   0.00000   0.00000
           D1          -0.00226  -0.00068  -0.00068   0.00071   0.00136
                          A6        A7        A8        D1
           A6           0.16004
           A7           0.00105   0.01162
           A8           0.00000   0.00000   0.00230
           D1           0.00049   0.01060   0.00000   0.00981
 ITU=  0  0
 Eigenvectors of the second derivative matrix:
                           1         2         3         4         5
     Eigenvalues --     0.00201   0.00230   0.05926   0.08055   0.16000
   1         R1         0.14197   0.00000   0.13284  -0.19020   0.00000
   2         R2        -0.27670  -0.00000  -0.27223   0.87118  -0.00000
   3         R3        -0.00058  -0.00000  -0.00061   0.04902  -0.00000
   4         R4         0.00187   0.00000   0.00142   0.04096  -0.00000
   5         R5         0.00187   0.00000   0.00142   0.04096  -0.00000
   6         A1         0.00442   0.00000  -0.27134   0.02070   0.05071
   7         A2         0.03912   0.00000  -0.23373  -0.12812   0.67522
   8         A3         0.03912   0.00000  -0.23373  -0.12812  -0.72132
   9         A4        -0.01386  -0.00000   0.30603   0.05690   0.00981
  10         A5        -0.01605  -0.00000   0.12083   0.02366   0.09580
  11         A6        -0.02978  -0.00000   0.10615   0.08956  -0.10920
  12         A7         0.94483   0.00000  -0.00457   0.31733   0.00000
  13         A8        -0.00000   1.00000   0.00000  -0.00000  -0.00000
  14         D1        -0.07843  -0.00000   0.77834   0.23093  -0.00000
                           6         7         8         9        10
     Eigenvalues --     0.16000   0.16020   0.16057   0.23698   0.36025
   1         R1        -0.00000   0.03097   0.01663  -0.95227  -0.00409
   2         R2         0.00000  -0.01033  -0.14497  -0.26089   0.00540
   3         R3        -0.00000   0.00349  -0.00427   0.07517  -0.80965
   4         R4        -0.00000   0.00336  -0.00366   0.07030   0.41498
   5         R5        -0.00000   0.00336  -0.00366   0.07030   0.41498
   6         A1        -0.31779  -0.26327   0.70712  -0.03618   0.00016
   7         A2         0.25587  -0.03838  -0.39050  -0.00803  -0.00028
   8         A3         0.03301  -0.03838  -0.39050  -0.00803  -0.00028
   9         A4        -0.06149  -0.68296  -0.16405   0.00387  -0.00010
  10         A5        -0.60033   0.58404  -0.13846   0.02498   0.00012
  11         A6         0.68430   0.34494   0.35702   0.00885   0.00028
  12         A7        -0.00000   0.00808  -0.00978   0.07198   0.00011
  13         A8        -0.00000   0.00000   0.00000   0.00000   0.00000
  14         D1        -0.00000   0.00713  -0.00430   0.04745   0.00031
                          11        12
     Eigenvalues --     0.36033   0.37251
   1         R1        -0.00000  -0.13400
   2         R2         0.00000   0.03385
   3         R3         0.00000  -0.57998
   4         R4        -0.70711  -0.56670
   5         R5         0.70711  -0.56670
   6         A1         0.00000  -0.00967
   7         A2        -0.00000  -0.00863
   8         A3        -0.00000  -0.00863
   9         A4         0.00000   0.00225
  10         A5         0.00000   0.00950
  11         A6         0.00000   0.00769
  12         A7        -0.00000   0.03516
  13         A8         0.00000   0.00000
  14         D1         0.00000   0.02457
 Eigenvalue     1 is   2.01D-03 should be less than     0.000000 Eigenvector:
                          A7        R2        R1        D1        A3
   1                    0.94483  -0.27670   0.14197  -0.07843   0.03912
                          A2        A6        A5        A4        A1
   1                    0.03912  -0.02978  -0.01605  -0.01386   0.00442
 RLam0= 4.16D-03.
 Iter=   1 RLamda= 0.00000000D+00 Sum=-1.62695644D-03.
 Iter=   2 RLamda=-1.62695644D-03 Sum=-1.59394147D-03.
 Iter=   3 RLamda=-1.59394147D-03 Sum=-1.59459746D-03.
 Iter=   4 RLamda=-1.59459746D-03 Sum=-1.59458442D-03.
 Iter=   5 RLamda=-1.59458442D-03 Sum=-1.59458468D-03.
 RFO step:  Lambda0=4.157366457D-03 Lambda=-1.59458442D-03.
 Linear search not attempted -- option 19 set.
 Maximum step size (   0.100) exceeded in Quadratic search.
    -- Step size scaled by   0.511
 Iteration  1 RMS(Cart)=  0.03704511 RMS(Int)=  0.00135792
 Iteration  2 RMS(Cart)=  0.00140023 RMS(Int)=  0.00003017
 Iteration  3 RMS(Cart)=  0.00000023 RMS(Int)=  0.00003017
 ITry= 1 IFail=0 DXMaxC= 7.99D-02 DCOld= 1.00D+10 DXMaxT= 1.00D-01 DXLimC= 3.00D+00 Rises=F
 ClnCor:  largest displacement from symmetrization is 1.26D-03 for atom     6.
 Variable       Old X    -DE/DX   Delta X   Delta X   Delta X     New X
                                 (Linear)    (Quad)   (Total)
    R1        2.35470  -0.00238   0.00000  -0.00575  -0.00575   2.34895
    R2        3.20609   0.01079   0.00000   0.04438   0.04438   3.25047
    R3        2.05962   0.00279   0.00000   0.00614   0.00614   2.06576
    R4        2.05773   0.00338   0.00000   0.00671   0.00634   2.06407
    R5        2.05773   0.00338   0.00000   0.00671   0.00634   2.06407
    A1        1.80065   0.00002   0.00000   0.00699   0.00699   1.80765
    A2        1.79382   0.00051   0.00000   0.00601   0.00614   1.79995
    A3        1.79382   0.00051   0.00000   0.00601   0.00614   1.79995
    A4        2.00879   0.00010   0.00000  -0.00585  -0.00525   2.00353
    A5        2.00879  -0.00027   0.00000  -0.00405  -0.00525   2.00353
    A6        2.01217  -0.00058   0.00000  -0.00382  -0.00357   2.00860
    A7        3.10633   0.00021   0.00000   0.08763   0.08763   3.19397
    A8        3.14159   0.00000   0.00000  -0.00000   0.00000   3.14159
    D1        2.40273  -0.00087   0.00000  -0.01916  -0.01904   2.38369
         Item               Value     Threshold  Converged?
 Maximum Force            0.010792     0.000450     NO 
 RMS     Force            0.003322     0.000300     NO 
 Maximum Displacement     0.079860     0.001800     NO 
 RMS     Displacement     0.036628     0.001200     NO 
 Predicted change in Energy=-3.886127D-04
 Lowest energy point so far.  Saving SCF results.
 Largest change from initial coordinates is atom    4       0.021 Angstoms.
 GradGradGradGradGradGradGradGradGradGradGradGradGradGradGradGradGradGrad

 Leave Link  103 at Wed Oct  7 13:18:35 2020, MaxMem=  2684354560 cpu:              16.9 elap:               2.5
 (Enter /udrive/faculty/rpeverati/g16/g16/l202.exe)
                          Input orientation:                          
 ---------------------------------------------------------------------
 Center     Atomic      Atomic             Coordinates (Angstroms)
 Number     Number       Type             X           Y           Z
 ---------------------------------------------------------------------
      1          1           0       -0.022856    2.048234   -0.000000
      2          9           0        0.025370    0.806160   -0.000000
      3          6           0        0.002035   -0.913759    0.000000
      4          1           0        1.061090   -1.184651    0.000000
      5          1           0       -0.532375   -1.154647    0.921633
      6          1           0       -0.532375   -1.154647   -0.921633
 ---------------------------------------------------------------------
                    Distance matrix (angstroms):
                    1          2          3          4          5
     1  H    0.000000
     2  F    1.243010   0.000000
     3  C    2.962098   1.720077   0.000000
     4  H    3.409763   2.244113   1.093152   0.000000
     5  H    3.371567   2.237241   1.092258   1.841043   0.000000
     6  H    3.371567   2.237241   1.092258   1.841043   1.843267
                    6
     6  H    0.000000
 Stoichiometry    CH4F(2)
 Framework group  CS[SG(CH2F),X(H2)]
 Deg. of freedom     8
 Full point group                 CS      NOp   2
 RotChk:  IX=0 Diff= 3.22D-02
 Largest Abelian subgroup         CS      NOp   2
 Largest concise Abelian subgroup CS      NOp   2
                         Standard orientation:                         
 ---------------------------------------------------------------------
 Center     Atomic      Atomic             Coordinates (Angstroms)
 Number     Number       Type             X           Y           Z
 ---------------------------------------------------------------------
      1          1           0       -0.061670    2.030365    0.000000
      2          9           0        0.003401    0.789059    0.000000
      3          6           0        0.003401   -0.931018   -0.000000
      4          1           0        1.066034   -1.187518   -0.000000
      5          1           0       -0.527691   -1.179134    0.921633
      6          1           0       -0.527691   -1.179134   -0.921633
 ---------------------------------------------------------------------
 Rotational constants (GHZ):         147.6789608          15.7099440          15.7089322
 Leave Link  202 at Wed Oct  7 13:18:36 2020, MaxMem=  2684354560 cpu:               2.9 elap:               0.7
 (Enter /udrive/faculty/rpeverati/g16/g16/l301.exe)
 Standard basis: 6-31G(d) (5D, 7F)
 Ernie: Thresh=  0.10000D-02 Tol=  0.10000D-05 Strict=F.
 There are    28 symmetry adapted cartesian basis functions of A'  symmetry.
 There are    10 symmetry adapted cartesian basis functions of A"  symmetry.
 There are    26 symmetry adapted basis functions of A'  symmetry.
 There are    10 symmetry adapted basis functions of A"  symmetry.
    36 basis functions,    72 primitive gaussians,    38 cartesian basis functions
    10 alpha electrons        9 beta electrons
       nuclear repulsion energy        37.9454952316 Hartrees.
 IExCor=  404 DFT=T Ex=B Corr=P86 ExCW=0 ScaHFX=  0.000000
 ScaDFX=  1.000000  1.000000  1.000000  1.000000 ScalE2=  1.000000  1.000000
 IRadAn=      5 IRanWt=     -1 IRanGd=            0 ICorTp=0 IEmpDi=  4
 NAtoms=    6 NActive=    6 NUniq=    5 SFac= 1.44D+00 NAtFMM=   60 NAOKFM=F Big=F
 Integral buffers will be    131072 words long.
 Raffenetti 2 integral format.
 Two-electron integral symmetry is turned on.
 Leave Link  301 at Wed Oct  7 13:18:37 2020, MaxMem=  2684354560 cpu:               1.6 elap:               0.8
 (Enter /udrive/faculty/rpeverati/g16/g16/l302.exe)
 NPDir=0 NMtPBC=     1 NCelOv=     1 NCel=       1 NClECP=     1 NCelD=      1
         NCelK=      1 NCelE2=     1 NClLst=     1 CellRange=     0.0.
 One-electron integrals computed using PRISM.
 One-electron integral symmetry used in STVInt
 NBasis=    36 RedAO= T EigKep=  2.22D-02  NBF=    26    10
 NBsUse=    36 1.00D-06 EigRej= -1.00D+00 NBFU=    26    10
 Precomputing XC quadrature grid using
 IXCGrd= 4 IRadAn=           5 IRanWt=          -1 IRanGd=           0 AccXCQ= 0.00D+00.
 Generated NRdTot=       0 NPtTot=           0 NUsed=           0 NTot=          32
 NSgBfM=    38    38    38    38    38 MxSgAt=     6 MxSgA2=     6.
 Leave Link  302 at Wed Oct  7 13:18:39 2020, MaxMem=  2684354560 cpu:               9.3 elap:               1.3
 (Enter /udrive/faculty/rpeverati/g16/g16/l303.exe)
 DipDrv:  MaxL=1.
 Leave Link  303 at Wed Oct  7 13:18:40 2020, MaxMem=  2684354560 cpu:               1.5 elap:               0.6
 (Enter /udrive/faculty/rpeverati/g16/g16/l401.exe)
 Initial guess from the checkpoint file:  "MN_53_hfch3ts_BH76_BP86_631Gs.chk"
 SCF N**3 symmetry information disabled.
 B after Tr=    -0.000000    0.000000   -0.000000
         Rot=    0.999986   -0.000000   -0.000000   -0.005356 Ang=  -0.61 deg.
 Guess basis will be translated and rotated to current coordinates.
 JPrj=2 DoOrth=T DoCkMO=T.
 Initial guess orbital symmetries:
 Alpha Orbitals:
       Occupied  (A') (A') (A') (A') (A') (A") (A') (A') (A") (A')
       Virtual   (A') (A') (A') (A") (A') (A') (A") (A') (A') (A')
                 (A") (A') (A") (A') (A') (A") (A') (A') (A') (A")
                 (A') (A") (A') (A') (A") (A')
 Beta  Orbitals:
       Occupied  (A') (A') (A') (A') (A') (A") (A') (A') (A")
       Virtual   (A') (A') (A') (A') (A") (A') (A') (A") (A') (A')
                 (A') (A") (A') (A") (A') (A') (A") (A') (A') (A')
                 (A") (A') (A") (A') (A') (A") (A')
 The electronic state of the initial guess is 2-A'.
 Initial guess <Sx>= 0.0000 <Sy>= 0.0000 <Sz>= 0.5000 <S**2>= 0.7576 S= 0.5038
 Generating alternative initial guess.
 ExpMin= 1.61D-01 ExpMax= 7.00D+03 ExpMxC= 1.05D+03 IAcc=2 IRadAn=         4 AccDes= 0.00D+00
 Harris functional with IExCor=  404 and IRadAn=       4 diagonalized for initial guess.
 HarFok:  IExCor=  404 AccDes= 0.00D+00 IRadAn=         4 IDoV= 1 UseB2=F ITyADJ=14
 ICtDFT=  3500011 ScaDFX=  1.000000  1.000000  1.000000  1.000000
 FoFCou: FMM=F IPFlag=           0 FMFlag=      100000 FMFlg1=           0
         NFxFlg=           0 DoJE=T BraDBF=F KetDBF=T FulRan=T
         wScrn=  0.000000 ICntrl=       500 IOpCl=  0 I1Cent=   200000004 NGrid=           0
         NMat0=    1 NMatS0=      1 NMatT0=    0 NMatD0=    1 NMtDS0=    0 NMtDT0=    0
 Petite list used in FoFCou.
 Harris En= -140.216211722633    
[...]
     18  0.911494D-04  0.194187D-03  0.995433D-04  0.149058D-02  0.149284D-02
                6             7             8             9            10 
      6  0.152909D-01
      7  0.000000D+00  0.579793D+00
      8  0.000000D+00 -0.363869D-03  0.910391D-01
      9 -0.223651D-01  0.000000D+00  0.000000D+00  0.579965D+00
     10  0.000000D+00 -0.319607D+00  0.612874D-01  0.000000D+00  0.333481D+00
     11  0.000000D+00  0.671704D-01 -0.402886D-01  0.000000D+00 -0.658585D-01
     12  0.103794D-02  0.000000D+00  0.000000D+00 -0.521110D-01  0.000000D+00
     13 -0.148013D-02 -0.119028D+00 -0.304859D-01  0.115923D+00 -0.925598D-02
     14  0.109153D-01 -0.334293D-01 -0.401479D-01  0.579289D-01  0.326823D-02
     15  0.361895D-02  0.115924D+00  0.528302D-01 -0.252861D+00 -0.297483D-02
     16  0.148013D-02 -0.119028D+00 -0.304859D-01 -0.115923D+00 -0.925598D-02
     17 -0.109153D-01 -0.334293D-01 -0.401479D-01 -0.579289D-01  0.326823D-02
     18  0.361895D-02 -0.115924D+00 -0.528302D-01 -0.252861D+00  0.297483D-02
               11            12            13            14            15 
     11  0.454349D-01
     12  0.000000D+00  0.450648D-01
     13 -0.707507D-02  0.242534D-01  0.117213D+00
     14  0.526874D-02 -0.631799D-02  0.327744D-01  0.452809D-01
     15 -0.325933D-03  0.303301D-02 -0.124986D+00 -0.567786D-01  0.261494D+00
     16 -0.707507D-02 -0.242534D-01  0.918217D-02  0.382580D-02  0.136191D-01
     17  0.526874D-02  0.631799D-02  0.382580D-02  0.525748D-02  0.596142D-02
     18  0.325933D-03  0.303301D-02 -0.136191D-01 -0.596142D-02 -0.153843D-01
               16            17            18 
     16  0.117213D+00
     17  0.327744D-01  0.452809D-01
     18  0.124986D+00  0.567786D-01  0.261494D+00
 FormGI is forming the generalized inverse of G from B-inverse, IUseBI=4.
 Force constants in internal coordinates: 
                1             2             3             4             5 
      1 -0.647260D-02
      2  0.125568D+00  0.174569D-01
      3 -0.502762D-03  0.180073D-02  0.347637D+00
      4 -0.502810D-03  0.179941D-02  0.735347D-03  0.347682D+00
      5 -0.502810D-03  0.179941D-02  0.735347D-03  0.730071D-03  0.347682D+00
      6 -0.583742D-03  0.809370D-02 -0.478612D-02  0.121734D-03 -0.151832D-02
      7 -0.574286D-03  0.806591D-02  0.121899D-03 -0.478888D-02 -0.151732D-02
      8 -0.574286D-03  0.806591D-02  0.121899D-03  0.123133D-03 -0.642933D-02
      9 -0.340231D-05  0.451419D-04  0.507709D-02  0.507922D-02 -0.101861D-01
     10  0.656150D-03 -0.917885D-02  0.783387D-02 -0.947353D-02  0.867438D-02
     11  0.657161D-03 -0.918469D-02 -0.947531D-02  0.782979D-02  0.866834D-02
     12  0.250066D-05 -0.222571D-05 -0.219852D-03  0.109526D-03  0.109526D-03
     13  0.000000D+00  0.000000D+00  0.000000D+00 -0.913153D-04  0.913153D-04
     14  0.146840D-02 -0.205359D-01  0.613757D-02  0.613560D-02  0.345489D-02
                6             7             8             9            10 
      6  0.665176D-01
      7 -0.259873D-01  0.664778D-01
      8 -0.263525D-01 -0.263378D-01  0.657474D-01
      9  0.742321D-02  0.742089D-02  0.402227D-02  0.583044D-01
     10 -0.713220D-02 -0.109907D-01 -0.695034D-02 -0.362928D-01  0.838470D-01
     11 -0.109995D-01 -0.713733D-02 -0.695063D-02 -0.362734D-01 -0.285894D-01
     12  0.131047D-02 -0.667505D-03 -0.667505D-03 -0.797224D-04 -0.863569D-04
     13 -0.706956D-05  0.540149D-03 -0.554292D-03 -0.658022D-04  0.782279D-04
     14 -0.868154D-02 -0.868168D-02 -0.927851D-02  0.101888D-01  0.498622D-02
               11            12            13            14 
     11  0.838223D-01
     12  0.184851D-03  0.489202D-02
     13  0.361465D-05  0.000000D+00  0.112553D-02
     14  0.497122D-02 -0.147707D-04 -0.115554D-04  0.271845D-01
 Leave Link  716 at Wed Oct  7 13:20:59 2020, MaxMem=  2684354560 cpu:               5.7 elap:               1.6
 (Enter /udrive/faculty/rpeverati/g16/g16/l103.exe)

 GradGradGradGradGradGradGradGradGradGradGradGradGradGradGradGradGradGrad
 Berny optimization.
 Optmz: redundant internal coordinate code flag= 1
 Red2BG:  D1=  2.44D-01 OD1=  6.40D-15 B2RMS=  0.00D+00 IAprox=1
 Red2BG is reusing G-inverse.
 Internal  Forces:  Max     0.000021457 RMS     0.000009514
 Search for a local minimum.
 Step number   1 out of a maximum of    2
 All quantities printed in internal units (Hartrees-Bohrs-Radians)
 Second derivative matrix not updated -- analytic derivatives used.
 The second derivative matrix:
                          R1        R2        R3        R4        R5
           R1          -0.00647
           R2           0.12557   0.01746
           R3          -0.00050   0.00180   0.34764
           R4          -0.00050   0.00180   0.00074   0.34768
           R5          -0.00050   0.00180   0.00074   0.00073   0.34768
           A1          -0.00058   0.00809  -0.00479   0.00012  -0.00152
           A2          -0.00057   0.00807   0.00012  -0.00479  -0.00152
           A3          -0.00057   0.00807   0.00012   0.00012  -0.00643
           A4          -0.00000   0.00005   0.00508   0.00508  -0.01019
           A5           0.00066  -0.00918   0.00783  -0.00947   0.00867
           A6           0.00066  -0.00918  -0.00948   0.00783   0.00867
           A7           0.00000  -0.00000  -0.00022   0.00011   0.00011
           A8          -0.00000   0.00000   0.00000  -0.00009   0.00009
           D1           0.00147  -0.02054   0.00614   0.00614   0.00345
                          A1        A2        A3        A4        A5
           A1           0.06652
           A2          -0.02599   0.06648
           A3          -0.02635  -0.02634   0.06575
           A4           0.00742   0.00742   0.00402   0.05830
           A5          -0.00713  -0.01099  -0.00695  -0.03629   0.08385
           A6          -0.01100  -0.00714  -0.00695  -0.03627  -0.02859
           A7           0.00131  -0.00067  -0.00067  -0.00008  -0.00009
           A8          -0.00001   0.00054  -0.00055  -0.00007   0.00008
           D1          -0.00868  -0.00868  -0.00928   0.01019   0.00499
                          A6        A7        A8        D1
           A6           0.08382
           A7           0.00018   0.00489
           A8           0.00000   0.00000   0.00113
           D1           0.00497  -0.00001  -0.00001   0.02718
 ITU=  0
 Eigenvectors of the second derivative matrix:
                           1         2         3         4         5
     Eigenvalues --    -0.12307   0.00112   0.00486   0.03980   0.09150
   1         R1        -0.72861   0.00000   0.00004   0.20814   0.02678
   2         R2         0.67462  -0.00000  -0.00002   0.06244   0.01979
   3         R3        -0.00486  -0.00000   0.00031  -0.02415  -0.00852
   4         R4        -0.00486   0.00014  -0.00016  -0.02415   0.02364
   5         R5        -0.00565  -0.00014  -0.00016  -0.01275  -0.02097
   6         A1        -0.03368  -0.00000  -0.01514  -0.25814  -0.21059
   7         A2        -0.03357  -0.00602   0.00754  -0.25829   0.74703
   8         A3        -0.03397   0.00602   0.00754  -0.24276  -0.59449
   9         A4         0.01123   0.00086   0.00111   0.32325  -0.10281
  10         A5         0.03264  -0.00086   0.00110   0.12538   0.17474
  11         A6         0.03267   0.00000  -0.00216   0.12546  -0.02806
  12         A7         0.00001   0.00000   0.99982  -0.00078  -0.00448
  13         A8        -0.00001   0.99996  -0.00000  -0.00057   0.00831
  14         D1         0.09094   0.00039   0.00054   0.78944   0.00305
                           6         7         8         9        10
     Eigenvalues --     0.09155   0.11012   0.11206   0.13779   0.34818
   1         R1         0.02554   0.23054  -0.00160   0.60934  -0.00058
   2         R2         0.01894   0.20846  -0.00148   0.70480  -0.00314
   3         R3         0.02406   0.01400   0.04764  -0.00363  -0.62826
   4         R4        -0.00951   0.01338  -0.04781  -0.00365  -0.37035
   5         R5        -0.02018  -0.06126   0.00046   0.02356   0.68067
   6         A1         0.75591  -0.18668  -0.14709   0.09572   0.00546
   7         A2        -0.24109  -0.18396   0.14909   0.09534   0.00080
   8         A3        -0.57063   0.07567  -0.00011   0.06369  -0.01835
   9         A4        -0.09927  -0.65877   0.00460   0.16089  -0.04923
  10         A5        -0.03537   0.43623  -0.69284  -0.17682   0.01976
  11         A6         0.17697   0.44552   0.68668  -0.17670   0.03861
  12         A7         0.01809  -0.00079  -0.00113  -0.00004   0.00058
  13         A8         0.00204  -0.00062   0.00031  -0.00004   0.00032
  14         D1         0.00287  -0.04573   0.00021  -0.14388  -0.01186
                          11        12
     Eigenvalues --     0.34828   0.34973
   1         R1        -0.00011   0.00029
   2         R2        -0.00054  -0.00527
   3         R3         0.60455  -0.48588
   4         R4        -0.78184  -0.49784
   5         R5         0.13281  -0.71673
   6         A1        -0.01206   0.01170
   7         A2         0.01303   0.01192
   8         A3        -0.00355   0.01559
   9         A4        -0.00928   0.01309
  10         A5         0.05628  -0.02095
  11         A6        -0.04504  -0.02178
  12         A7        -0.00069  -0.00009
  13         A8         0.00028  -0.00007
  14         D1        -0.00196  -0.02739
 Eigenvalue     1 is  -1.23D-01 should be greater than     0.000000 Eigenvector:
                          R1        R2        D1        A3        A1
   1                   -0.72861   0.67462   0.09094  -0.03397  -0.03368
                          A2        A6        A5        A4        R5
   1                   -0.03357   0.03267   0.03264   0.01123  -0.00565
 Angle between quadratic step and forces=  40.33 degrees.
 Linear search not attempted -- first point.
 Iteration  1 RMS(Cart)=  0.00016373 RMS(Int)=  0.00000003
 Iteration  2 RMS(Cart)=  0.00000003 RMS(Int)=  0.00000001
 ITry= 1 IFail=0 DXMaxC= 3.06D-04 DCOld= 1.00D+10 DXMaxT= 3.00D-01 DXLimC= 3.00D+00 Rises=F
 ClnCor:  largest displacement from symmetrization is 1.22D-06 for atom     6.
 Variable       Old X    -DE/DX   Delta X   Delta X   Delta X     New X
                                 (Linear)    (Quad)   (Total)
    R1        2.43049   0.00001   0.00000   0.00010   0.00010   2.43059
    R2        3.19095  -0.00000   0.00000   0.00000   0.00000   3.19095
    R3        2.06845  -0.00001   0.00000  -0.00005  -0.00005   2.06840
    R4        2.06840  -0.00000   0.00000  -0.00000  -0.00000   2.06840
    R5        2.06840  -0.00000   0.00000  -0.00000  -0.00000   2.06840
    A1        1.80872   0.00001   0.00000   0.00006   0.00006   1.80878
    A2        1.80888  -0.00001   0.00000  -0.00012  -0.00012   1.80877
    A3        1.80888  -0.00001   0.00000  -0.00012  -0.00012   1.80877
    A4        2.00039   0.00001   0.00000   0.00015   0.00015   2.00055
    A5        2.00039   0.00001   0.00000   0.00015   0.00015   2.00055
    A6        2.00071  -0.00002   0.00000  -0.00017  -0.00017   2.00055
    A7        3.14137   0.00000   0.00000   0.00026   0.00026   3.14163
    A8        3.14159   0.00000   0.00000   0.00000   0.00000   3.14159
    D1        2.36608   0.00001   0.00000   0.00022   0.00022   2.36630
         Item               Value     Threshold  Converged?
 Maximum Force            0.000021     0.000450     YES
 RMS     Force            0.000010     0.000300     YES
 Maximum Displacement     0.000306     0.001800     YES
 RMS     Displacement     0.000164     0.001200     YES
 Predicted change in Energy=-6.744428D-09
 Optimization completed.
    -- Stationary point found.
                           ----------------------------
                           !   Optimized Parameters   !
                           ! (Angstroms and Degrees)  !
 --------------------------                            --------------------------
 ! Name  Definition              Value          Derivative Info.                !
 --------------------------------------------------------------------------------
 ! R1    R(1,2)                  1.2862         -DE/DX =    0.0                 !
 ! R2    R(2,3)                  1.6886         -DE/DX =    0.0                 !
 ! R3    R(3,4)                  1.0946         -DE/DX =    0.0                 !
 ! R4    R(3,5)                  1.0946         -DE/DX =    0.0                 !
 ! R5    R(3,6)                  1.0946         -DE/DX =    0.0                 !
 ! A1    A(2,3,4)              103.6322         -DE/DX =    0.0                 !
 ! A2    A(2,3,5)              103.6415         -DE/DX =    0.0                 !
 ! A3    A(2,3,6)              103.6415         -DE/DX =    0.0                 !
 ! A4    A(4,3,5)              114.6142         -DE/DX =    0.0                 !
 ! A5    A(4,3,6)              114.6142         -DE/DX =    0.0                 !
 ! A6    A(5,3,6)              114.6325         -DE/DX =    0.0                 !
 ! A7    L(1,2,3,4,-1)         179.9871         -DE/DX =    0.0                 !
 ! A8    L(1,2,3,4,-2)         180.0            -DE/DX =    0.0                 !
 ! D1    D(4,3,6,5)            135.5665         -DE/DX =    0.0                 !
 --------------------------------------------------------------------------------
 GradGradGradGradGradGradGradGradGradGradGradGradGradGradGradGradGradGrad

 Leave Link  103 at Wed Oct  7 13:21:02 2020, MaxMem=  2684354560 cpu:              16.7 elap:               2.5
 (Enter /udrive/faculty/rpeverati/g16/g16/l9999.exe)

 ----------------------------------------------------------------------

 Electric dipole moment (input orientation):
 (Debye = 10**-18 statcoulomb cm , SI units = C m)
                  (au)            (Debye)         (10**-30 SI)
   Tot        0.542342D+00      0.137850D+01      0.459817D+01
   x         -0.376805D-03     -0.957743D-03     -0.319469D-02
   y         -0.542342D+00     -0.137850D+01     -0.459817D+01
   z          0.000000D+00      0.000000D+00      0.000000D+00

 Dipole polarizability, Alpha (input orientation).
 (esu units = cm**3 , SI units = C**2 m**2 J**-1)
 Alpha(0;0):
               (au)            (10**-24 esu)      (10**-40 SI)
   iso        0.251420D+02      0.372567D+01      0.414536D+01
   aniso      0.354583D+02      0.525437D+01      0.584628D+01
   xx         0.133222D+02      0.197415D+01      0.219654D+01
   yx         0.333421D-01      0.494078D-02      0.549736D-02
   yy         0.487809D+02      0.722858D+01      0.804288D+01
   zx         0.000000D+00      0.000000D+00      0.000000D+00
   zy         0.000000D+00      0.000000D+00      0.000000D+00
   zz         0.133231D+02      0.197427D+01      0.219668D+01

 ----------------------------------------------------------------------

 Dipole orientation:
     1          0.00133876         -0.00000093         -3.90739383
     9          0.00047155         -0.00000033         -1.47690731
     6          0.00004877         -0.00000003          1.71404012
     1          2.01016309         -0.00139661          2.20181730
     1         -1.00358752          1.74159627          2.20172962
     1         -1.00600658         -1.74020006          2.20172962

 Electric dipole moment (dipole orientation):
 (Debye = 10**-18 statcoulomb cm , SI units = C m)
                  (au)            (Debye)         (10**-30 SI)
   Tot        0.542342D+00      0.137850D+01      0.459817D+01
   x          0.000000D+00      0.000000D+00      0.000000D+00
   y          0.000000D+00      0.000000D+00      0.000000D+00
   z          0.542342D+00      0.137850D+01      0.459817D+01

 Dipole polarizability, Alpha (dipole orientation).
 (esu units = cm**3 , SI units = C**2 m**2 J**-1)
 Alpha(0;0):
               (au)            (10**-24 esu)      (10**-40 SI)
   iso        0.251420D+02      0.372567D+01      0.414536D+01
   aniso      0.354583D+02      0.525437D+01      0.584628D+01
   xx         0.133222D+02      0.197415D+01      0.219653D+01
   yx         0.000000D+00      0.000000D+00      0.000000D+00
   yy         0.133231D+02      0.197427D+01      0.219668D+01
   zx        -0.870632D-02     -0.129014D-02     -0.143548D-02
   zy         0.000000D+00      0.000000D+00      0.000000D+00
   zz         0.487809D+02      0.722858D+01      0.804288D+01

 ----------------------------------------------------------------------

 Test job not archived.
 1\1\GINC-NODE62\Freq\UBP86\6-31G(d)\C1H4F1(2)\RPEVERATI\07-Oct-2020\0\
 \#P Freq BP86/6-31G* 5D 7F Integral=UltraFineGrid SCF=(NoSymm,XQC,MaxC
 yc=120) IOp(1/33=1) Geom=Check Guess=Read\\TS search on BH76.\\0,2\H,0
 .0021450245,2.0677027788,0.\F,0.0007925327,0.7815453316,0.\C,-0.000604
 3704,-0.9070307695,0.\H,1.0629229824,-1.1658903083,0.\H,-0.5325251863,
 -1.1647354384,0.9212438562\H,-0.5325251863,-1.1647354384,-0.9212438562
 \\Version=ES64L-G16RevA.03\State=2-A'\HF=-140.1891133\S2=0.757576\S2-1
 =0.\S2A=0.750012\RMSD=1.965e-09\RMSF=1.328e-05\ZeroPoint=0.0371379\The
 rmal=0.0414613\Dipole=-0.0003768,-0.5423422,0.\DipoleDeriv=0.0636878,-
 0.0012106,0.,-0.0010267,-1.0625691,0.,0.,0.,0.0636884,-0.238823,0.0021
 136,0.,0.0020436,1.9073898,0.,0.,0.,-0.2388285,0.1980101,-0.0009498,0.
 ,-0.0009709,-0.8237592,0.,0.,0.,0.1979997,-0.080462,0.0298158,0.,0.049
 6011,-0.0070347,0.,0.,0.,0.0652158,0.0287935,-0.0148845,0.0630897,-0.0
 248235,-0.0070134,0.0428647,0.0631044,0.02568,-0.0440377,0.0287935,-0.
 0148845,-0.0630897,-0.0248235,-0.0070134,-0.0428647,-0.0631044,-0.0256
 8,-0.0440377\Polar=13.3222248,0.0333421,48.7808596,0.,0.,13.3230628\Qu
 adrupole=-0.2037587,0.4069553,-0.2031965,0.0006837,0.,0.\PG=CS [SG(C1H
 2F1),X(H2)]\NImag=1\\0.00082706,-0.00000898,-0.00647259,0.,0.,0.000827
 70,-0.00120096,0.00011700,0.,0.01529131,0.00014255,0.13204085,0.,-0.00
 025869,-0.24015218,0.,0.,-0.00120169,0.,0.,0.01529090,0.00023311,-0.00
 011207,0.,-0.02236388,0.00016413,0.,0.57979327,-0.00013794,-0.12919380
 ,0.,0.00018619,0.15873904,0.,-0.00036387,0.09103913,0.,0.,0.00023270,0
 .,0.,-0.02236505,0.,0.,0.57996550,0.00015221,-0.00022273,0.,0.00448544
 ,-0.00174269,0.,-0.31960673,0.06128741,0.,0.33348105,0.00024832,0.0012
 1118,0.,0.01258988,-0.01689495,0.,0.06717039,-0.04028859,0.,-0.0658584
 6,0.04543490,0.,0.,-0.00005780,0.,0.,0.00103794,0.,0.,-0.05211100,0.,0
 .,0.04506483,-0.00000571,0.00011339,-0.00009077,0.00189404,0.00084735,
 -0.00148013,-0.11902788,-0.03048589,0.11592299,-0.00925598,-0.00707507
 ,0.02425336,0.11721337,-0.00012198,0.00120718,0.00021378,-0.00631719,-
 0.01686638,0.01091532,-0.03342929,-0.04014789,0.05792893,0.00326823,0.
 00526874,-0.00631799,0.03277443,0.04528087,-0.00009115,-0.00019419,0.0
 0009954,-0.00149058,-0.00149284,0.00361895,0.11592385,0.05283017,-0.25
 286107,-0.00297483,-0.00032593,0.00303301,-0.12498637,-0.05677862,0.26
 149389,-0.00000571,0.00011339,0.00009077,0.00189404,0.00084735,0.00148
 013,-0.11902788,-0.03048589,-0.11592299,-0.00925598,-0.00707507,-0.024
 25336,0.00918217,0.00382580,0.01361908,0.11721337,-0.00012198,0.001207
 18,-0.00021378,-0.00631719,-0.01686638,-0.01091532,-0.03342929,-0.0401
 4789,-0.05792893,0.00326823,0.00526874,0.00631799,0.00382580,0.0052574
 8,0.00596142,0.03277443,0.04528087,0.00009115,0.00019419,0.00009954,0.
 00149058,0.00149284,0.00361895,-0.11592385,-0.05283017,-0.25286107,0.0
 0297483,0.00032593,0.00303301,-0.01361908,-0.00596142,-0.01538431,0.12
 498637,0.05677862,0.26149389\\0.00000055,-0.00000779,0.,0.00000459,0.0
 0000820,0.,-0.00004508,0.00001622,0.,0.00001150,-0.00000600,0.,0.00001
 422,-0.00000531,0.00000707,0.00001422,-0.00000531,-0.00000707\\\@


 ALTHOUGH J.J. COULD DIAGNOSE THE FAULTS OF AN
 APPARATUS WITH UNCANNY ACCURACY, IT WAS JUST AS
 WELL NOT TO LET HIM HANDLE IT.
   -- GEORGE THOMPSON, ABOUT HIS FATHER
 Job cpu time:       0 days  0 hours  3 minutes 12.7 seconds.
 Elapsed time:       0 days  0 hours  0 minutes 32.1 seconds.
 File lengths (MBytes):  RWF=      7 Int=      0 D2E=      0 Chk=      1 Scr=      1
 Normal termination of Gaussian 16 at Wed Oct  7 13:21:04 2020.
