 Entering Gaussian System, Link 0=g16
 Input=MN_62_hoch3fcomp2_BH76_BP86_631Gs.in
 Output=MN_62_hoch3fcomp2_BH76_BP86_631Gs.log
 Initial command:
 /udrive/faculty/rpeverati/g16/g16/l1.exe "/udrive/scratch-directories/gaussian09/rpeverati/Gau-14674.inp" -scrdir="/udrive/scratch-directories/gaussian09/rpeverati/"
 Entering Link 1 = /udrive/faculty/rpeverati/g16/g16/l1.exe PID=     14688.
  
 Copyright (c) 1988,1990,1992,1993,1995,1998,2003,2009,2016,
            Gaussian, Inc.  All Rights Reserved.
  
 This is part of the Gaussian(R) 16 program.  It is based on
 the Gaussian(R) 09 system (copyright 2009, Gaussian, Inc.),
 the Gaussian(R) 03 system (copyright 2003, Gaussian, Inc.),
 the Gaussian(R) 98 system (copyright 1998, Gaussian, Inc.),
 the Gaussian(R) 94 system (copyright 1995, Gaussian, Inc.),
 the Gaussian 92(TM) system (copyright 1992, Gaussian, Inc.),
 the Gaussian 90(TM) system (copyright 1990, Gaussian, Inc.),
 the Gaussian 88(TM) system (copyright 1988, Gaussian, Inc.),
 the Gaussian 86(TM) system (copyright 1986, Carnegie Mellon
 University), and the Gaussian 82(TM) system (copyright 1983,
 Carnegie Mellon University). Gaussian is a federally registered
 trademark of Gaussian, Inc.
  
 This software contains proprietary and confidential information,
 including trade secrets, belonging to Gaussian, Inc.
  
 This software is provided under written license and may be
 used, copied, transmitted, or stored only in accord with that
 written license.
  
 The following legend is applicable only to US Government
 contracts under FAR:
  
                    RESTRICTED RIGHTS LEGEND
  
 Use, reproduction and disclosure by the US Government is
 subject to restrictions as set forth in subparagraphs (a)
 and (c) of the Commercial Computer Software - Restricted
 Rights clause in FAR 52.227-19.
  
 Gaussian, Inc.
 340 Quinnipiac St., Bldg. 40, Wallingford CT 06492
  
  
 ---------------------------------------------------------------
 Warning -- This program may not be used in any manner that
 competes with the business of Gaussian, Inc. or will provide
 assistance to any competitor of Gaussian, Inc.  The licensee
 of this program is prohibited from giving any competitor of
 Gaussian, Inc. access to this program.  By using this program,
 the user acknowledges that Gaussian, Inc. is engaged in the
 business of creating and licensing software in the field of
 computational chemistry and represents and warrants to the
 licensee that it is not a competitor of Gaussian, Inc. and that
 it will not use this program in any manner prohibited above.
 ---------------------------------------------------------------
  

 Cite this work as:
 Gaussian 16, Revision A.03,
 M. J. Frisch, G. W. Trucks, H. B. Schlegel, G. E. Scuseria, 
 M. A. Robb, J. R. Cheeseman, G. Scalmani, V. Barone, 
 G. A. Petersson, H. Nakatsuji, X. Li, M. Caricato, A. V. Marenich, 
 J. Bloino, B. G. Janesko, R. Gomperts, B. Mennucci, H. P. Hratchian, 
 J. V. Ortiz, A. F. Izmaylov, J. L. Sonnenberg, D. Williams-Young, 
 F. Ding, F. Lipparini, F. Egidi, J. Goings, B. Peng, A. Petrone, 
 T. Henderson, D. Ranasinghe, V. G. Zakrzewski, J. Gao, N. Rega, 
 G. Zheng, W. Liang, M. Hada, M. Ehara, K. Toyota, R. Fukuda, 
 J. Hasegawa, M. Ishida, T. Nakajima, Y. Honda, O. Kitao, H. Nakai, 
 T. Vreven, K. Throssell, J. A. Montgomery, Jr., J. E. Peralta, 
 F. Ogliaro, M. J. Bearpark, J. J. Heyd, E. N. Brothers, K. N. Kudin, 
 V. N. Staroverov, T. A. Keith, R. Kobayashi, J. Normand, 
 K. Raghavachari, A. P. Rendell, J. C. Burant, S. S. Iyengar, 
 J. Tomasi, M. Cossi, J. M. Millam, M. Klene, C. Adamo, R. Cammi, 
 J. W. Ochterski, R. L. Martin, K. Morokuma, O. Farkas, 
 J. B. Foresman, and D. J. Fox, Gaussian, Inc., Wallingford CT, 2016.
 
 ******************************************
 Gaussian 16:  ES64L-G16RevA.03 25-Dec-2016
                 7-Oct-2020 
 ******************************************
 %NoSave
 %nproc=12
 Will use up to   12 processors via shared memory.
 %mem=20GB
 %chk=MN_62_hoch3fcomp2_BH76_BP86_631Gs
 ----------------------------------------------------------------------
 #P Opt(MaxCyc=100) BP86/6-31G* 5D 7F Integral=UltraFineGrid SCF=(NoSym
 m,XQC,MaxCyc=120) IOp(1/33=1)
 ----------------------------------------------------------------------
 1/6=100,18=20,19=15,26=4,33=1,38=1/1,3;
 2/9=110,12=2,17=6,18=5,40=1/2;
 3/5=1,6=6,7=1,8=11,11=2,25=1,30=1,71=1,74=404,75=-5/1,2,3;
 4/9=2/1;
 5/5=2,7=120,8=3,13=1,38=5/2,8;
 6/7=2,8=2,9=2,10=2,28=1/1;
 7//1,2,3,16;
 1/6=100,18=20,19=15,26=4,33=1/3(2);
 2/9=110/2;
 99//99;
 2/9=110/2;
 3/5=1,6=6,7=1,8=11,11=2,25=1,30=1,71=1,74=404,75=-5/1,2,3;
 4/5=5,9=2,16=3,69=1/1;
 5/5=2,7=120,8=3,13=1,38=5/2,8;
 7//1,2,3,16;
 1/6=100,18=20,19=15,26=4,33=1/3(-5);
 2/9=110/2;
 6/7=2,8=2,9=2,10=2,19=2,28=1/1;
 99/9=1/99;
 Leave Link    1 at Wed Oct  7 13:18:24 2020, MaxMem=  2684354560 cpu:               5.7 elap:               0.6
 (Enter /udrive/faculty/rpeverati/g16/g16/l101.exe)
 ONIOM data not found on unit 2.
 ------------------
 TS search on BH76.
 ------------------
 TstMul:  ICh=    -1
 TstMul:  Mul=     1
 TstMul:  ICh=    -1
 TstMul:  Mul=     1
 Symbolic Z-matrix:
 Charge = -1 Multiplicity = 1
 F                     1.89905  -0.07646  -0.0054 
 C                     0.48941   0.10548   0.00677 
 H                     0.0013   -0.78617  -0.36115 
 H                     0.17194   0.29836   1.02324 
 H                     0.24974   0.94747  -0.63089 
 O                    -2.16945  -0.07314  -0.00232 
 H                    -3.09537   0.1807   -0.00462 
 
 RdStrC is calling ZToCFu for IStruc=1 NZ=     7.
 PrtBox:  NBox=     2 Levels=  1 BoxLen=    8.00 SMaxX=        9.44
          Shift=            5.849400            1.485640            1.192200
 Box      1 Number                   0 centers from      1 to      6:
 Box      2 Number                   4 centers from      7 to      7:
 After GenITR:
 ITRead=  0  0  0  0  0  0  0
 MicOpt= -1 -1 -1 -1 -1 -1 -1
 Add virtual bond connecting atoms O6         and H3         Dist= 4.37D+00.
 ITRead=  0  0  0  0  0  0  0
 MicOpt= -1 -1 -1 -1 -1 -1 -1
 NAtoms=      7 NQM=        7 NQMF=       0 NMMI=      0 NMMIF=      0
                NMic=       0 NMicF=      0.
                    Isotopes and Nuclear Properties:
 (Nuclear quadrupole moments (NQMom) in fm**2, nuclear magnetic moments (NMagM)
  in nuclear magnetons)

  Atom         1           2           3           4           5           6           7
 IAtWgt=          19          12           1           1           1          16           1
 AtmWgt=  18.9984033  12.0000000   1.0078250   1.0078250   1.0078250  15.9949146   1.0078250
 NucSpn=           1           0           1           1           1           0           1
 AtZEff=   0.0000000   0.0000000   0.0000000   0.0000000   0.0000000   0.0000000   0.0000000
 NQMom=    0.0000000   0.0000000   0.0000000   0.0000000   0.0000000   0.0000000   0.0000000
 NMagM=    2.6288670   0.0000000   2.7928460   2.7928460   2.7928460   0.0000000   2.7928460
 AtZNuc=   9.0000000   6.0000000   1.0000000   1.0000000   1.0000000   8.0000000   1.0000000
 No MM parameters found.
 Leave Link  101 at Wed Oct  7 13:18:25 2020, MaxMem=  2684354560 cpu:               9.9 elap:               1.0
 (Enter /udrive/faculty/rpeverati/g16/g16/l103.exe)

 GradGradGradGradGradGradGradGradGradGradGradGradGradGradGradGradGradGrad
 Berny optimization.
 Optmz: redundant internal coordinate code flag= 1
 Initialization pass.
                           ----------------------------
                           !    Initial Parameters    !
                           ! (Angstroms and Degrees)  !
 --------------------------                            --------------------------
 ! Name  Definition              Value          Derivative Info.                !
 --------------------------------------------------------------------------------
 ! R1    R(1,2)                  1.4214         estimate D2E/DX2                !
 ! R2    R(2,3)                  1.081          estimate D2E/DX2                !
 ! R3    R(2,4)                  1.0822         estimate D2E/DX2                !
 ! R4    R(2,5)                  1.083          estimate D2E/DX2                !
 ! R5    R(3,6)                  2.3129         estimate D2E/DX2                !
 ! R6    R(6,7)                  0.9601         estimate D2E/DX2                !
 ! A1    A(1,2,3)              109.8338         estimate D2E/DX2                !
 ! A2    A(1,2,4)              108.7707         estimate D2E/DX2                !
 ! A3    A(1,2,5)              108.2965         estimate D2E/DX2                !
 ! A4    A(3,2,4)              109.5244         estimate D2E/DX2                !
 ! A5    A(3,2,5)              109.9335         estimate D2E/DX2                !
 ! A6    A(4,2,5)              110.4581         estimate D2E/DX2                !
 ! A7    A(2,3,6)               96.7014         estimate D2E/DX2                !
 ! A8    L(3,6,7,5,-1)         180.2727         estimate D2E/DX2                !
 ! A9    L(3,6,7,5,-2)         165.3128         estimate D2E/DX2                !
 ! D1    D(1,2,3,6)            176.0174         estimate D2E/DX2                !
 ! D2    D(4,2,3,6)             56.6215         estimate D2E/DX2                !
 ! D3    D(5,2,3,6)            -64.9173         estimate D2E/DX2                !
 --------------------------------------------------------------------------------
 Maximum allowed force set to 1.00D+20.
 Trust Radius=3.00D-01 FncErr=1.00D-07 GrdErr=1.00D-06 EigMax=2.50D+02 EigMin=1.00D-04
 Number of steps in this run=    100 maximum allowed number of steps=    100.
 GradGradGradGradGradGradGradGradGradGradGradGradGradGradGradGradGradGrad

 Leave Link  103 at Wed Oct  7 13:18:26 2020, MaxMem=  2684354560 cpu:               0.8 elap:               0.5
 (Enter /udrive/faculty/rpeverati/g16/g16/l202.exe)
                          Input orientation:                          
 ---------------------------------------------------------------------
 Center     Atomic      Atomic             Coordinates (Angstroms)
 Number     Number       Type             X           Y           Z
 ---------------------------------------------------------------------
      1          9           0        1.899053   -0.076457   -0.005404
      2          6           0        0.489413    0.105484    0.006768
      3          1           0        0.001304   -0.786167   -0.361155
      4          1           0        0.171943    0.298358    1.023244
      5          1           0        0.249744    0.947471   -0.630885
      6          8           0       -2.169447   -0.073143   -0.002320
      7          1           0       -3.095369    0.180697   -0.004624
 ---------------------------------------------------------------------
                    Distance matrix (angstroms):
                    1          2          3          4          5
     1  F    0.000000
     2  C    1.421385   0.000000
     3  H    2.057109   1.081045   0.000000
     4  H    2.044874   1.082225   1.766882   0.000000
     5  H    2.039577   1.083044   1.771998   1.778635   0.000000
     6  O    4.068502   2.664869   2.312861   2.583002   2.699857
     7  H    5.001038   3.585589   3.263637   3.427198   3.488542
                    6          7
     6  O    0.000000
     7  H    0.960090   0.000000
 Stoichiometry    CH4FO(1-)
 Framework group  C1[X(CH4FO)]
 Deg. of freedom    15
 Full point group                 C1      NOp   1
 Largest Abelian subgroup         C1      NOp   1
 Largest concise Abelian subgroup C1      NOp   1
                         Standard orientation:                         
 ---------------------------------------------------------------------
 Center     Atomic      Atomic             Coordinates (Angstroms)
 Number     Number       Type             X           Y           Z
 ---------------------------------------------------------------------
      1          9           0        1.899053   -0.076457   -0.005404
      2          6           0        0.489413    0.105484    0.006768
      3          1           0        0.001304   -0.786167   -0.361155
      4          1           0        0.171943    0.298358    1.023244
      5          1           0        0.249744    0.947470   -0.630885
      6          8           0       -2.169447   -0.073143   -0.002320
      7          1           0       -3.095369    0.180697   -0.004624
 ---------------------------------------------------------------------
 Rotational constants (GHZ):         141.9909320           3.2067010           3.1989530
 Leave Link  202 at Wed Oct  7 13:18:26 2020, MaxMem=  2684354560 cpu:               1.2 elap:               0.4
 (Enter /udrive/faculty/rpeverati/g16/g16/l301.exe)
 Standard basis: 6-31G(d) (5D, 7F)
 Ernie: Thresh=  0.10000D-02 Tol=  0.10000D-05 Strict=F.
 There are    53 symmetry adapted cartesian basis functions of A   symmetry.
 There are    50 symmetry adapted basis functions of A   symmetry.
    50 basis functions,   100 primitive gaussians,    53 cartesian basis functions
    14 alpha electrons       14 beta electrons
       nuclear repulsion energy        67.4307148412 Hartrees.
 IExCor=  404 DFT=T Ex=B Corr=P86 ExCW=0 ScaHFX=  0.000000
 ScaDFX=  1.000000  1.000000  1.000000  1.000000 ScalE2=  1.000000  1.000000
 IRadAn=      5 IRanWt=     -1 IRanGd=            0 ICorTp=0 IEmpDi=  4
 NAtoms=    7 NActive=    7 NUniq=    7 SFac= 1.00D+00 NAtFMM=   60 NAOKFM=F Big=F
 Integral buffers will be    131072 words long.
 Raffenetti 2 integral format.
 Two-electron integral symmetry is turned on.
 Leave Link  301 at Wed Oct  7 13:18:27 2020, MaxMem=  2684354560 cpu:               1.8 elap:               0.5
 (Enter /udrive/faculty/rpeverati/g16/g16/l302.exe)
 NPDir=0 NMtPBC=     1 NCelOv=     1 NCel=       1 NClECP=     1 NCelD=      1
         NCelK=      1 NCelE2=     1 NClLst=     1 CellRange=     0.0.
 One-electron integrals computed using PRISM.
 One-electron integral symmetry used in STVInt
 NBasis=    50 RedAO= T EigKep=  1.87D-02  NBF=    50
 NBsUse=    50 1.00D-06 EigRej= -1.00D+00 NBFU=    50
 Precomputing XC quadrature grid using
 IXCGrd= 4 IRadAn=           5 IRanWt=          -1 IRanGd=           0 AccXCQ= 0.00D+00.
 Generated NRdTot=       0 NPtTot=           0 NUsed=           0 NTot=          32
 NSgBfM=    53    53    53    53    53 MxSgAt=     7 MxSgA2=     7.
 Leave Link  302 at Wed Oct  7 13:18:28 2020, MaxMem=  2684354560 cpu:               3.9 elap:               0.7
 (Enter /udrive/faculty/rpeverati/g16/g16/l303.exe)
 DipDrv:  MaxL=1.
 Leave Link  303 at Wed Oct  7 13:18:29 2020, MaxMem=  2684354560 cpu:               1.8 elap:               0.5
 (Enter /udrive/faculty/rpeverati/g16/g16/l401.exe)
 SCF N**3 symmetry information disabled.
 ExpMin= 1.61D-01 ExpMax= 7.00D+03 ExpMxC= 1.05D+03 IAcc=3 IRadAn=         5 AccDes= 0.00D+00
 Harris functional with IExCor=  404 and IRadAn=       5 diagonalized for initial guess.
 HarFok:  IExCor=  404 AccDes= 0.00D+00 IRadAn=         5 IDoV= 1 UseB2=F ITyADJ=14
 ICtDFT=  3500011 ScaDFX=  1.000000  1.000000  1.000000  1.000000
 FoFCou: FMM=F IPFlag=           0 FMFlag=      100000 FMFlg1=           0
         NFxFlg=           0 DoJE=T BraDBF=F KetDBF=T FulRan=T
         wScrn=  0.000000 ICntrl=       500 IOpCl=  0 I1Cent=   200000004 NGrid=           0
         NMat0=    1 NMatS0=      1 NMatT0=    0 NMatD0=    1 NMtDS0=    0 NMtDT0=    0
 Petite list used in FoFCou.
 Harris En= -215.808333668043    
 JPrj=0 DoOrth=F DoCkMO=F.
 Leave Link  401 at Wed Oct  7 13:18:30 2020, MaxMem=  2684354560 cpu:               6.9 elap:               0.9
 (Enter /udrive/faculty/rpeverati/g16/g16/l502.exe)
 Keep J ints in memory in canonical form, NReq=11319949.
 FoFCou: FMM=F IPFlag=           0 FMFlag=           0 FMFlg1=           0
         NFxFlg=           0 DoJE=F BraDBF=F KetDBF=F FulRan=T
         wScrn=  0.000000 ICntrl=       600 IOpCl=  0 I1Cent=           0 NGrid=           0
         NMat0=    1 NMatS0=   1275 NMatT0=    0 NMatD0=    1 NMtDS0=    0 NMtDT0=    0
 Symmetry not used in FoFCou.
 Two-electron integral symmetry not used.
 Closed shell SCF:
 Using DIIS extrapolation, IDIIS=  1040.
 NGot=  2684354560 LenX=  2683534079 LenY=  2683530829
 Requested convergence on RMS density matrix=1.00D-08 within 120 cycles.
 Requested convergence on MAX density matrix=1.00D-06.
 Requested convergence on             energy=1.00D-06.
 No special actions if energy rises.
 Integral accuracy reduced to 1.0D-05 until final iterations.

 Cycle   1  Pass 0  IDiag  1:
 E= -215.247870530615    
 DIIS: error= 1.11D-01 at cycle   1 NSaved=   1.
 NSaved= 1 IEnMin= 1 EnMin= -215.247870530615     IErMin= 1 ErrMin= 1.11D-01
 ErrMax= 1.11D-01  0.00D+00 EMaxC= 1.00D-01 BMatC= 2.71D-01 BMatP= 2.71D-01
 IDIUse=3 WtCom= 0.00D+00 WtEn= 1.00D+00
 Coeff-Com:  0.100D+01
 Coeff-En:   0.100D+01
 Coeff:      0.100D+01
 Gap=    -0.123 Goal=   None    Shift=    0.000
 GapD=   -0.123 DampG=0.250 DampE=0.250 DampFc=0.2500 IDamp=-1.
 Damping current iteration by 2.50D-01
 RMSDP=2.06D-01 MaxDP=4.93D+00              OVMax= 9.90D-01

 Cycle   2  Pass 0  IDiag  1:
 E= -215.089971852815     Delta-E=        0.157898677799 Rises=F Damp=T
 DIIS: error= 3.81D-02 at cycle   2 NSaved=   2.
 NSaved= 2 IEnMin= 1 EnMin= -215.247870530615     IErMin= 2 ErrMin= 3.81D-02
 ErrMax= 3.81D-02  0.00D+00 EMaxC= 1.00D-01 BMatC= 4.90D-02 BMatP= 2.71D-01
 IDIUse=3 WtCom= 6.19D-01 WtEn= 3.81D-01
 Coeff-Com:  0.111D+00 0.889D+00
 Coeff-En:   0.704D+00 0.296D+00
 Coeff:      0.337D+00 0.663D+00
 Gap=     0.019 Goal=   None    Shift=    0.000
 RMSDP=5.28D-02 MaxDP=1.29D+00 DE= 1.58D-01 OVMax= 8.99D-01

 Cycle   3  Pass 0  IDiag  1:
 E= -215.353887300737     Delta-E=       -0.263915447921 Rises=F Damp=F
 DIIS: error= 6.00D-02 at cycle   3 NSaved=   3.
 NSaved= 3 IEnMin= 3 EnMin= -215.353887300737     IErMin= 2 ErrMin= 3.81D-02
 ErrMax= 6.00D-02  0.00D+00 EMaxC= 1.00D-01 BMatC= 1.09D-01 BMatP= 4.90D-02
 IDIUse=2 WtCom= 0.00D+00 WtEn= 1.00D+00
 EnCoef did     1 forward-backward iterations
 Coeff-En:   0.261D+00 0.649D-01 0.674D+00
 Coeff:      0.261D+00 0.649D-01 0.674D+00
 Gap=     0.211 Goal=   None    Shift=    0.000
 RMSDP=4.27D-02 MaxDP=6.22D-01 DE=-2.64D-01 OVMax= 9.12D-01

 Cycle   4  Pass 0  IDiag  1:
 E= -213.554651397778     Delta-E=        1.799235902959 Rises=F Damp=F
 DIIS: error= 1.80D-01 at cycle   4 NSaved=   4.
 NSaved= 4 IEnMin= 3 EnMin= -215.353887300737     IErMin= 2 ErrMin= 3.81D-02
 ErrMax= 1.80D-01  0.00D+00 EMaxC= 1.00D-01 BMatC= 1.39D+00 BMatP= 4.90D-02
 IDIUse=2 WtCom= 0.00D+00 WtEn= 1.00D+00
 EnCoef did     5 forward-backward iterations
 Coeff-En:   0.267D+00 0.000D+00 0.658D+00 0.745D-01
 Coeff:      0.267D+00 0.000D+00 0.658D+00 0.745D-01
 Gap=     0.009 Goal=   None    Shift=    0.000
 RMSDP=3.75D-02 MaxDP=5.70D-01 DE= 1.80D+00 OVMax= 7.90D-01

 Cycle   5  Pass 0  IDiag  1:
 E= -215.428919361002     Delta-E=       -1.874267963224 Rises=F Damp=F
 DIIS: error= 2.96D-02 at cycle   5 NSaved=   5.
 NSaved= 5 IEnMin= 5 EnMin= -215.428919361002     IErMin= 5 ErrMin= 2.96D-02
 ErrMax= 2.96D-02  0.00D+00 EMaxC= 1.00D-01 BMatC= 4.68D-02 BMatP= 4.90D-02
 IDIUse=3 WtCom= 7.04D-01 WtEn= 2.96D-01
 EnCoef did     1 forward-backward iterations
 Coeff-Com:  0.113D+00 0.133D+00 0.316D+00-0.238D-01 0.463D+00
 Coeff-En:   0.256D-02 0.000D+00 0.270D+00 0.000D+00 0.728D+00
 Coeff:      0.803D-01 0.933D-01 0.302D+00-0.168D-01 0.541D+00
 Gap=     0.151 Goal=   None    Shift=    0.000
 RMSDP=7.59D-03 MaxDP=6.45D-02 DE=-1.87D+00 OVMax= 1.51D-01

 Cycle   6  Pass 0  IDiag  1:
 E= -215.465814782507     Delta-E=       -0.036895421506 Rises=F Damp=F
 DIIS: error= 1.91D-02 at cycle   6 NSaved=   6.
 NSaved= 6 IEnMin= 6 EnMin= -215.465814782507     IErMin= 6 ErrMin= 1.91D-02
 ErrMax= 1.91D-02  0.00D+00 EMaxC= 1.00D-01 BMatC= 8.47D-03 BMatP= 4.68D-02
 IDIUse=3 WtCom= 8.09D-01 WtEn= 1.91D-01
 Coeff-Com: -0.655D-01 0.687D-01 0.591D-01-0.997D-02 0.241D+00 0.706D+00
 Coeff-En:   0.000D+00 0.000D+00 0.000D+00 0.000D+00 0.161D+00 0.839D+00
 Coeff:     -0.530D-01 0.556D-01 0.478D-01-0.806D-02 0.226D+00 0.732D+00
 Gap=     0.115 Goal=   None    Shift=    0.000
 RMSDP=2.20D-03 MaxDP=2.24D-02 DE=-3.69D-02 OVMax= 3.36D-02

 Cycle   7  Pass 0  IDiag  1:
 E= -215.472823138106     Delta-E=       -0.007008355598 Rises=F Damp=F
 DIIS: error= 2.23D-03 at cycle   7 NSaved=   7.
 NSaved= 7 IEnMin= 7 EnMin= -215.472823138106     IErMin= 7 ErrMin= 2.23D-03
 ErrMax= 2.23D-03  0.00D+00 EMaxC= 1.00D-01 BMatC= 2.67D-04 BMatP= 8.47D-03
 IDIUse=3 WtCom= 9.78D-01 WtEn= 2.23D-02
 Coeff-Com: -0.541D-01 0.350D-01-0.174D-01-0.134D-02 0.668D-01 0.434D+00
 Coeff-Com:  0.537D+00
 Coeff-En:   0.000D+00 0.000D+00 0.000D+00 0.000D+00 0.000D+00 0.000D+00
 Coeff-En:   0.100D+01
 Coeff:     -0.529D-01 0.342D-01-0.170D-01-0.131D-02 0.653D-01 0.425D+00
 Coeff:      0.547D+00
 Gap=     0.117 Goal=   None    Shift=    0.000
 RMSDP=3.45D-04 MaxDP=4.73D-03 DE=-7.01D-03 OVMax= 5.07D-03

 Cycle   8  Pass 0  IDiag  1:
 E= -215.472851551560     Delta-E=       -0.000028413454 Rises=F Damp=F
 DIIS: error= 2.60D-03 at cycle   8 NSaved=   8.
 NSaved= 8 IEnMin= 8 EnMin= -215.472851551560     IErMin= 7 ErrMin= 2.23D-03
 ErrMax= 2.60D-03  0.00D+00 EMaxC= 1.00D-01 BMatC= 1.88D-04 BMatP= 2.67D-04
 IDIUse=3 WtCom= 9.78D-01 WtEn= 2.23D-02
 Coeff-Com: -0.241D-01 0.126D-01-0.155D-01 0.243D-03 0.198D-01 0.912D-01
 Coeff-Com:  0.258D+00 0.658D+00
 Coeff-En:   0.000D+00 0.000D+00 0.000D+00 0.000D+00 0.000D+00 0.000D+00
 Coeff-En:   0.444D+00 0.556D+00
 Coeff:     -0.236D-01 0.123D-01-0.151D-01 0.238D-03 0.194D-01 0.892D-01
 Coeff:      0.262D+00 0.656D+00
 Gap=     0.111 Goal=   None    Shift=    0.000
 RMSDP=3.88D-04 MaxDP=3.97D-03 DE=-2.84D-05 OVMax= 6.70D-03

 Cycle   9  Pass 0  IDiag  1:
 E= -215.473030087211     Delta-E=       -0.000178535651 Rises=F Damp=F
 DIIS: error= 8.31D-04 at cycle   9 NSaved=   9.
 NSaved= 9 IEnMin= 9 EnMin= -215.473030087211     IErMin= 9 ErrMin= 8.31D-04
 ErrMax= 8.31D-04  0.00D+00 EMaxC= 1.00D-01 BMatC= 1.78D-05 BMatP= 1.88D-04
 IDIUse=3 WtCom= 9.92D-01 WtEn= 8.31D-03
 Coeff-Com: -0.110D-03 0.719D-03 0.494D-03 0.170D-03 0.162D-02-0.455D-01
 Coeff-Com: -0.356D-01 0.931D-02 0.107D+01
 Coeff-En:   0.000D+00 0.000D+00 0.000D+00 0.000D+00 0.000D+00 0.000D+00
 Coeff-En:   0.000D+00 0.000D+00 0.100D+01
 Coeff:     -0.109D-03 0.713D-03 0.489D-03 0.168D-03 0.160D-02-0.451D-01
 Coeff:     -0.353D-01 0.923D-02 0.107D+01
 Gap=     0.108 Goal=   None    Shift=    0.000
 RMSDP=1.46D-04 MaxDP=1.35D-03 DE=-1.79D-04 OVMax= 2.44D-03

 Cycle  10  Pass 0  IDiag  1:
 E= -215.473047557465     Delta-E=       -0.000017470254 Rises=F Damp=F
 DIIS: error= 3.85D-05 at cycle  10 NSaved=  10.
 NSaved=10 IEnMin=10 EnMin= -215.473047557465     IErMin=10 ErrMin= 3.85D-05
 ErrMax= 3.85D-05  0.00D+00 EMaxC= 1.00D-01 BMatC= 6.53D-08 BMatP= 1.78D-05
 IDIUse=1 WtCom= 1.00D+00 WtEn= 0.00D+00
 Coeff-Com:  0.581D-03 0.162D-04 0.601D-03 0.224D-04-0.411D-03-0.136D-01
 Coeff-Com: -0.155D-01-0.349D-01 0.296D+00 0.767D+00
 Coeff:      0.581D-03 0.162D-04 0.601D-03 0.224D-04-0.411D-03-0.136D-01
 Coeff:     -0.155D-01-0.349D-01 0.296D+00 0.767D+00
 Gap=     0.108 Goal=   None    Shift=    0.000
 RMSDP=7.61D-06 MaxDP=7.02D-05 DE=-1.75D-05 OVMax= 1.23D-04

 Initial convergence to 1.0D-05 achieved.  Increase integral accuracy.
 Cycle  11  Pass 1  IDiag  1:
 E= -215.473047597841     Delta-E=       -0.000000040375 Rises=F Damp=F
 DIIS: error= 3.46D-06 at cycle   1 NSaved=   1.
 NSaved= 1 IEnMin= 1 EnMin= -215.473047597841     IErMin= 1 ErrMin= 3.46D-06
 ErrMax= 3.46D-06  0.00D+00 EMaxC= 1.00D-01 BMatC= 6.11D-10 BMatP= 6.11D-10
 IDIUse=1 WtCom= 1.00D+00 WtEn= 0.00D+00
 Coeff-Com:  0.100D+01
 Coeff:      0.100D+01
 Gap=     0.108 Goal=   None    Shift=    0.000
 RMSDP=7.61D-06 MaxDP=7.02D-05 DE=-4.04D-08 OVMax= 1.31D-05

 Cycle  12  Pass 1  IDiag  1:
 E= -215.473047598252     Delta-E=       -0.000000000411 Rises=F Damp=F
 DIIS: error= 2.21D-06 at cycle   2 NSaved=   2.
 NSaved= 2 IEnMin= 2 EnMin= -215.473047598252     IErMin= 2 ErrMin= 2.21D-06
 ErrMax= 2.21D-06  0.00D+00 EMaxC= 1.00D-01 BMatC= 2.41D-10 BMatP= 6.11D-10
 IDIUse=1 WtCom= 1.00D+00 WtEn= 0.00D+00
 Coeff-Com:  0.379D+00 0.621D+00
 Coeff:      0.379D+00 0.621D+00
 Gap=     0.108 Goal=   None    Shift=    0.000
 RMSDP=4.47D-07 MaxDP=7.36D-06 DE=-4.11D-10 OVMax= 7.66D-06

 Cycle  13  Pass 1  IDiag  1:
 E= -215.473047598441     Delta-E=       -0.000000000189 Rises=F Damp=F
 DIIS: error= 1.33D-06 at cycle   3 NSaved=   3.
 NSaved= 3 IEnMin= 3 EnMin= -215.473047598441     IErMin= 3 ErrMin= 1.33D-06
 ErrMax= 1.33D-06  0.00D+00 EMaxC= 1.00D-01 BMatC= 4.07D-11 BMatP= 2.41D-10
 IDIUse=1 WtCom= 1.00D+00 WtEn= 0.00D+00
 Coeff-Com:  0.205D+00 0.378D+00 0.417D+00
 Coeff:      0.205D+00 0.378D+00 0.417D+00
 Gap=     0.108 Goal=   None    Shift=    0.000
 RMSDP=1.84D-07 MaxDP=1.90D-06 DE=-1.89D-10 OVMax= 3.02D-06

 Cycle  14  Pass 1  IDiag  1:
 E= -215.473047598470     Delta-E=       -0.000000000029 Rises=F Damp=F
 DIIS: error= 3.60D-07 at cycle   4 NSaved=   4.
 NSaved= 4 IEnMin= 4 EnMin= -215.473047598470     IErMin= 4 ErrMin= 3.60D-07
 ErrMax= 3.60D-07  0.00D+00 EMaxC= 1.00D-01 BMatC= 2.79D-12 BMatP= 4.07D-11
 IDIUse=1 WtCom= 1.00D+00 WtEn= 0.00D+00
 Coeff-Com:  0.329D-01 0.754D-01 0.230D+00 0.662D+00
 Coeff:      0.329D-01 0.754D-01 0.230D+00 0.662D+00
 Gap=     0.108 Goal=   None    Shift=    0.000
 RMSDP=5.15D-08 MaxDP=5.40D-07 DE=-2.93D-11 OVMax= 9.13D-07

 Cycle  15  Pass 1  IDiag  1:
 E= -215.473047598474     Delta-E=       -0.000000000003 Rises=F Damp=F
 DIIS: error= 3.47D-08 at cycle   5 NSaved=   5.
 NSaved= 5 IEnMin= 5 EnMin= -215.473047598474     IErMin= 5 ErrMin= 3.47D-08
 ErrMax= 3.47D-08  0.00D+00 EMaxC= 1.00D-01 BMatC= 7.43D-14 BMatP= 2.79D-12
 IDIUse=1 WtCom= 1.00D+00 WtEn= 0.00D+00
 Coeff-Com:  0.333D-02 0.118D-01 0.738D-01 0.271D+00 0.640D+00
 Coeff:      0.333D-02 0.118D-01 0.738D-01 0.271D+00 0.640D+00
 Gap=     0.108 Goal=   None    Shift=    0.000
 RMSDP=7.26D-09 MaxDP=8.07D-08 DE=-3.07D-12 OVMax= 9.98D-08

 SCF Done:  E(RB-P86) =  -215.473047598     A.U. after   15 cycles
            NFock= 15  Conv=0.73D-08     -V/T= 2.0047
 KE= 2.144658622163D+02 PE=-6.526236270247D+02 EE= 1.552540023687D+02
 Leave Link  502 at Wed Oct  7 13:18:33 2020, MaxMem=  2684354560 cpu:              30.9 elap:               3.1
 (Enter /udrive/faculty/rpeverati/g16/g16/l508.exe)
 QCSCF skips out because SCF is already converged.
 Leave Link  508 at Wed Oct  7 13:18:34 2020, MaxMem=  2684354560 cpu:               0.2 elap:               0.5
 (Enter /udrive/faculty/rpeverati/g16/g16/l601.exe)
 Copying SCF densities to generalized density rwf, IOpCl= 0 IROHF=0.

 **********************************************************************

            Population analysis using the SCF density.

 **********************************************************************

 Orbital symmetries:
       Occupied  (A) (A) (A) (A) (A) (A) (A) (A) (A) (A) (A) (A)
                 (A) (A)
       Virtual   (A) (A) (A) (A) (A) (A) (A) (A) (A) (A) (A) (A)
                 (A) (A) (A) (A) (A) (A) (A) (A) (A) (A) (A) (A)
                 (A) (A) (A) (A) (A) (A) (A) (A) (A) (A) (A) (A)
 The electronic state is 1-A.
 Alpha  occ. eigenvalues --  -24.07000 -18.35765  -9.75496  -0.87342  -0.45707
 Alpha  occ. eigenvalues --   -0.42012  -0.22100  -0.21445  -0.21048  -0.08699
 Alpha  occ. eigenvalues --   -0.08455   0.00641   0.16207   0.16533
 Alpha virt. eigenvalues --    0.27364   0.30442   0.33930   0.35352   0.37658
 Alpha virt. eigenvalues --    0.70030   0.70647   0.71129   1.00295   1.00708
 Alpha virt. eigenvalues --    1.03236   1.09791   1.14818   1.20617   1.23189
 Alpha virt. eigenvalues --    1.35843   1.36617   1.37020   1.56932   1.59425
 Alpha virt. eigenvalues --    1.64636   1.66848   1.94975   1.95045   2.03838
 Alpha virt. eigenvalues --    2.08206   2.10161   2.14356   2.14515   2.21147
 Alpha virt. eigenvalues --    2.30955   2.32178   2.50966   2.52176   2.76877
 Alpha virt. eigenvalues --    3.10650
          Condensed to atoms (all electrons):
               1          2          3          4          5          6
     1  F    9.298854   0.184210  -0.034430  -0.030103  -0.029865   0.000140
     2  C    0.184210   4.911160   0.337130   0.356666   0.359368   0.007981
     3  H   -0.034430   0.337130   0.599939  -0.045198  -0.041050   0.025175
     4  H   -0.030103   0.356666  -0.045198   0.616427  -0.042865   0.015515
     5  H   -0.029865   0.359368  -0.041050  -0.042865   0.625788   0.010404
     6  O    0.000140   0.007981   0.025175   0.015515   0.010404   8.880029
     7  H   -0.000008  -0.001187  -0.001948  -0.000431  -0.000261   0.133772
               7
     1  F   -0.000008
     2  C   -0.001187
     3  H   -0.001948
     4  H   -0.000431
     5  H   -0.000261
     6  O    0.133772
     7  H    0.661771
 Mulliken charges:
               1
     1  F   -0.388799
     2  C   -0.155328
     3  H    0.160381
     4  H    0.129990
     5  H    0.118481
     6  O   -1.073017
     7  H    0.208292
 Sum of Mulliken charges =  -1.00000
 Mulliken charges with hydrogens summed into heavy atoms:
               1
     1  F   -0.388799
     2  C    0.253524
     6  O   -0.864725
 Electronic spatial extent (au):  <R**2>=            361.4513
 Charge=             -1.0000 electrons
 Dipole moment (field-independent basis, Debye):
    X=              5.6684    Y=              0.6647    Z=              0.0124  Tot=              5.7072
 Quadrupole moment (field-independent basis, Debye-Ang):
   XX=            -40.1877   YY=            -19.8122   ZZ=            -19.8341
   XY=             -1.2346   XZ=              0.0132   YZ=             -0.0009
 Traceless Quadrupole moment (field-independent basis, Debye-Ang):
   XX=            -13.5764   YY=              6.7991   ZZ=              6.7772
   XY=             -1.2346   XZ=              0.0132   YZ=             -0.0009
 Octapole moment (field-independent basis, Debye-Ang**2):
  XXX=             26.3051  YYY=             -0.6814  ZZZ=              0.3280  XYY=              5.2080
  XXY=              4.1047  XXZ=             -0.0053  XZZ=              5.4308  YZZ=              0.0089
  YYZ=             -0.3683  XYZ=             -0.0791
 Hexadecapole moment (field-independent basis, Debye-Ang**3):
 XXXX=           -395.9302 YYYY=            -24.1962 ZZZZ=            -22.9848 XXXY=            -11.2089
 XXXZ=             -0.0055 YYYX=             -1.5423 YYYZ=             -0.1865 ZZZX=             -0.0492
 ZZZY=              0.0642 XXYY=            -65.2878 XXZZ=            -65.3851 YYZZ=             -7.7964
 XXYZ=             -0.0014 YYXZ=             -0.0799 ZZXY=             -0.4889
 N-N= 6.743071484120D+01 E-N=-6.526236289526D+02  KE= 2.144658622163D+02
 No NMR shielding tensors so no spin-rotation constants.
 Leave Link  601 at Wed Oct  7 13:18:35 2020, MaxMem=  2684354560 cpu:               3.3 elap:               0.7
 (Enter /udrive/faculty/rpeverati/g16/g16/l701.exe)
 ... and contract with generalized density number  0.
 Compute integral first derivatives.
 Leave Link  701 at Wed Oct  7 13:18:36 2020, MaxMem=  2684354560 cpu:               3.6 elap:               0.6
 (Enter /udrive/faculty/rpeverati/g16/g16/l702.exe)
 L702 exits ... SP integral derivatives will be done elsewhere.
 Leave Link  702 at Wed Oct  7 13:18:37 2020, MaxMem=  2684354560 cpu:               1.6 elap:               0.5
 (Enter /udrive/faculty/rpeverati/g16/g16/l703.exe)
 Integral derivatives from FoFJK, PRISM(SPDF).
 Compute integral first derivatives, UseDBF=F ICtDFT=           0.
 Calling FoFJK, ICntrl=      2527 FMM=F ISym2X=0 I1Cent= 0 IOpClX= 0 NMat=1 NMatS=1 NMatT=0.
 FoFJK:  IHMeth= 1 ICntrl=    2527 DoSepK=F KAlg= 0 I1Cent=           0 FoldK=F
 IRaf=         0 NMat=       1 IRICut=       1 DoRegI=T DoRafI=F ISym2E= 0 IDoP0=0 IntGTp=1.
 FoFCou: FMM=F IPFlag=           0 FMFlag=      100000 FMFlg1=         800
         NFxFlg=           0 DoJE=F BraDBF=F KetDBF=F FulRan=T
         wScrn=  0.000000 ICntrl=      2527 IOpCl=  0 I1Cent=           0 NGrid=           0
         NMat0=    1 NMatS0=      1 NMatT0=    0 NMatD0=    1 NMtDS0=    0 NMtDT0=    0
 Symmetry not used in FoFCou.
 Leave Link  703 at Wed Oct  7 13:18:38 2020, MaxMem=  2684354560 cpu:              10.6 elap:               1.3
 (Enter /udrive/faculty/rpeverati/g16/g16/l716.exe)
 Dipole        = 2.23010545D+00 2.61525245D-01 4.88938020D-03
 ***** Axes restored to original set *****
 -------------------------------------------------------------------
 Center     Atomic                   Forces (Hartrees/Bohr)
 Number     Number              X              Y              Z
 -------------------------------------------------------------------
      1        9           0.014345644   -0.002429381   -0.000184850
      2        6           0.006588941    0.001283202    0.000063267
      3        1          -0.011626856   -0.008127658   -0.003660714
      4        1          -0.008828791    0.002282585    0.009626969
      5        1          -0.007050224    0.008681964   -0.006145423
      6        8           0.030590353   -0.011825468    0.000814407
      7        1          -0.024019067    0.010134756   -0.000513656
 -------------------------------------------------------------------
 Cartesian Forces:  Max     0.030590353 RMS     0.011054613
 Leave Link  716 at Wed Oct  7 13:18:39 2020, MaxMem=  2684354560 cpu:               1.8 elap:               0.6
 (Enter /udrive/faculty/rpeverati/g16/g16/l103.exe)

 GradGradGradGradGradGradGradGradGradGradGradGradGradGradGradGradGradGrad
 Berny optimization.
 Optmz: redundant internal coordinate code flag= 1
 FormGI is forming the generalized inverse of G from B-inverse, IUseBI=4.
 Internal  Forces:  Max     0.025845110 RMS     0.009344277
 Search for a local minimum.
 Step number   1 out of a maximum of  100
 All quantities printed in internal units (Hartrees-Bohrs-Radians)
 RMS Force = .93443D-02 SwitMx=.10000D-02 MixMth= 1
 Mixed Optimization -- RFO/linear search
 Second derivative matrix not updated -- first step.
 The second derivative matrix:
                          R1        R2        R3        R4        R5
           R1           0.42252
           R2           0.00000   0.35868
           R3           0.00000   0.00000   0.35727
           R4           0.00000   0.00000   0.00000   0.35629
           R5           0.00000   0.00000   0.00000   0.00000   0.02672
           R6           0.00000   0.00000   0.00000   0.00000   0.00000
           A1           0.00000   0.00000   0.00000   0.00000   0.00000
           A2           0.00000   0.00000   0.00000   0.00000   0.00000
           A3           0.00000   0.00000   0.00000   0.00000   0.00000
           A4           0.00000   0.00000   0.00000   0.00000   0.00000
           A5           0.00000   0.00000   0.00000   0.00000   0.00000
           A6           0.00000   0.00000   0.00000   0.00000   0.00000
           A7           0.00000   0.00000   0.00000   0.00000   0.00000
           A8           0.00000   0.00000   0.00000   0.00000   0.00000
           A9           0.00000   0.00000   0.00000   0.00000   0.00000
           D1           0.00000   0.00000   0.00000   0.00000   0.00000
           D2           0.00000   0.00000   0.00000   0.00000   0.00000
           D3           0.00000   0.00000   0.00000   0.00000   0.00000
                          R6        A1        A2        A3        A4
           R6           0.55454
           A1           0.00000   0.16000
           A2           0.00000   0.00000   0.16000
           A3           0.00000   0.00000   0.00000   0.16000
           A4           0.00000   0.00000   0.00000   0.00000   0.16000
           A5           0.00000   0.00000   0.00000   0.00000   0.00000
           A6           0.00000   0.00000   0.00000   0.00000   0.00000
           A7           0.00000   0.00000   0.00000   0.00000   0.00000
           A8           0.00000   0.00000   0.00000   0.00000   0.00000
           A9           0.00000   0.00000   0.00000   0.00000   0.00000
           D1           0.00000   0.00000   0.00000   0.00000   0.00000
           D2           0.00000   0.00000   0.00000   0.00000   0.00000
           D3           0.00000   0.00000   0.00000   0.00000   0.00000
                          A5        A6        A7        A8        A9
           A5           0.16000
           A6           0.00000   0.16000
           A7           0.00000   0.00000   0.25000
           A8           0.00000   0.00000   0.00000   0.01556
           A9           0.00000   0.00000   0.00000   0.00000   0.01556
           D1           0.00000   0.00000   0.00000   0.00000   0.00000
           D2           0.00000   0.00000   0.00000   0.00000   0.00000
           D3           0.00000   0.00000   0.00000   0.00000   0.00000
                          D1        D2        D3
           D1           0.00353
           D2           0.00000   0.00353
           D3           0.00000   0.00000   0.00353
 ITU=  0
 Eigenvectors of the second derivative matrix:
                           1         2         3         4         5
     Eigenvalues --     0.00353   0.01556   0.01556   0.02672   0.09881
   1         R1         0.00000   0.00000  -0.00000  -0.00000  -0.00000
   2         R2         0.00000   0.00000   0.00000   0.00000   0.00000
   3         R3         0.00000  -0.00000  -0.00000  -0.00000   0.00000
   4         R4        -0.00000  -0.00000   0.00000  -0.00000  -0.00000
   5         R5        -0.00000  -0.00000  -0.00000   1.00000   0.00000
   6         R6         0.00000   0.00000  -0.00000   0.00000   0.00000
   7         A1         0.00000   0.00000  -0.00000   0.00000   0.28675
   8         A2        -0.00000  -0.00000   0.00000  -0.00000   0.22801
   9         A3        -0.00000   0.00000   0.00000  -0.00000   0.34580
  10         A4         0.00000   0.00000  -0.00000   0.00000  -0.17509
  11         A5         0.00000  -0.00000   0.00000   0.00000  -0.11432
  12         A6         0.00000   0.00000  -0.00000   0.00000  -0.55804
  13         A7        -0.00000  -0.00000   0.00000  -0.00000   0.00000
  14         A8         0.00000   0.71649  -0.69760  -0.00000   0.00000
  15         A9        -0.00000   0.69760   0.71649   0.00000  -0.00000
  16         D1        -0.57735  -0.00000  -0.00000  -0.00000  -0.06133
  17         D2        -0.57735  -0.00000  -0.00000   0.00000  -0.40833
  18         D3        -0.57735  -0.00000  -0.00000  -0.00000   0.46966
                           6         7         8         9        10
     Eigenvalues --     0.09968   0.16000   0.16000   0.16000   0.25000
   1         R1        -0.00000  -0.00000   0.00000  -0.00000   0.00000
   2         R2        -0.00000  -0.00000   0.00000   0.00000  -0.00000
   3         R3        -0.00000  -0.00000   0.00000  -0.00000  -0.00000
   4         R4        -0.00000  -0.00000   0.00000  -0.00000  -0.00000
   5         R5        -0.00000   0.00000  -0.00000  -0.00000  -0.00000
   6         R6         0.00000   0.00000   0.00000  -0.00000  -0.00000
   7         A1        -0.03374   0.00308   0.80990  -0.20961  -0.00000
   8         A2        -0.52751  -0.25676  -0.42698  -0.22426   0.00000
   9         A3         0.45682   0.36266  -0.39875  -0.09769   0.00000
  10         A4        -0.22887   0.50971   0.04751   0.65626  -0.00000
  11         A5         0.26345  -0.72835  -0.01401   0.40538   0.00000
  12         A6         0.06804   0.11069  -0.01742  -0.54884  -0.00000
  13         A7         0.00000  -0.00000  -0.00000   0.00000  -1.00000
  14         A8        -0.00000  -0.00000  -0.00000   0.00000  -0.00000
  15         A9        -0.00000  -0.00000   0.00000  -0.00000   0.00000
  16         D1        -0.50328  -0.00000   0.00000   0.00000  -0.00000
  17         D2         0.30437  -0.00000   0.00000  -0.00000   0.00000
  18         D3         0.19890  -0.00000  -0.00000   0.00000   0.00000
                          11        12        13        14        15
     Eigenvalues --     0.35629   0.35727   0.35868   0.42252   0.55454
   1         R1         0.00000  -0.00000   0.00000  -1.00000  -0.00000
   2         R2         0.00000   0.00000  -1.00000  -0.00000   0.00000
   3         R3        -0.00000   1.00000   0.00000  -0.00000   0.00000
   4         R4        -1.00000  -0.00000  -0.00000  -0.00000  -0.00000
   5         R5        -0.00000   0.00000   0.00000   0.00000   0.00000
   6         R6        -0.00000   0.00000  -0.00000   0.00000  -1.00000
   7         A1         0.00000  -0.00000   0.00000   0.00000   0.00000
   8         A2        -0.00000  -0.00000  -0.00000  -0.00000  -0.00000
   9         A3        -0.00000   0.00000  -0.00000  -0.00000   0.00000
  10         A4        -0.00000   0.00000   0.00000  -0.00000   0.00000
  11         A5         0.00000  -0.00000   0.00000  -0.00000  -0.00000
  12         A6         0.00000   0.00000  -0.00000   0.00000  -0.00000
  13         A7         0.00000  -0.00000  -0.00000  -0.00000   0.00000
  14         A8         0.00000  -0.00000   0.00000   0.00000   0.00000
  15         A9        -0.00000   0.00000   0.00000   0.00000  -0.00000
  16         D1         0.00000  -0.00000   0.00000   0.00000  -0.00000
  17         D2         0.00000   0.00000  -0.00000   0.00000  -0.00000
  18         D3         0.00000  -0.00000  -0.00000  -0.00000  -0.00000
 Iter=   1 RLamda= 0.00000000D+00 Sum=-8.49361082D-03.
 Iter=   2 RLamda=-8.49361082D-03 Sum=-6.92009368D-03.
 Iter=   3 RLamda=-6.92009368D-03 Sum=-7.12417446D-03.
 Iter=   4 RLamda=-7.12417446D-03 Sum=-7.09632155D-03.
 Iter=   5 RLamda=-7.09632155D-03 Sum=-7.10009700D-03.
 Iter=   6 RLamda=-7.10009700D-03 Sum=-7.09958477D-03.
 Iter=   7 RLamda=-7.09958477D-03 Sum=-7.09965426D-03.
 Iter=   8 RLamda=-7.09965426D-03 Sum=-7.09964483D-03.
 RFO step:  Lambda=-7.09965426D-03 EMin= 3.53281448D-03
 Linear search not attempted -- first point.
 Maximum step size (   0.300) exceeded in Quadratic search.
    -- Step size scaled by   0.848
 Iteration  1 RMS(Cart)=  0.10364978 RMS(Int)=  0.01111349
 Iteration  2 RMS(Cart)=  0.01516340 RMS(Int)=  0.00041964
 Iteration  3 RMS(Cart)=  0.00023429 RMS(Int)=  0.00033301
 Iteration  4 RMS(Cart)=  0.00000009 RMS(Int)=  0.00033301
 ITry= 1 IFail=0 DXMaxC= 2.55D-01 DCOld= 1.00D+10 DXMaxT= 3.00D-01 DXLimC= 3.00D+00 Rises=F
 Variable       Old X    -DE/DX   Delta X   Delta X   Delta X     New X
                                 (Linear)    (Quad)   (Total)
    R1        2.68603   0.01454   0.00000   0.02869   0.02869   2.71472
    R2        2.04288   0.01167   0.00000   0.02706   0.02706   2.06994
    R3        2.04511   0.01204   0.00000   0.02801   0.02801   2.07312
    R4        2.04666   0.01175   0.00000   0.02742   0.02742   2.07407
    R5        4.37067  -0.00663   0.00000  -0.16621  -0.16621   4.20446
    R6        1.81431   0.02585   0.00000   0.03901   0.03901   1.85332
    A1        1.91696   0.00243   0.00000   0.01953   0.01945   1.93641
    A2        1.89841   0.00414   0.00000   0.02767   0.02763   1.92603
    A3        1.89013   0.00372   0.00000   0.02660   0.02649   1.91662
    A4        1.91156  -0.00502   0.00000  -0.02935  -0.02977   1.88179
    A5        1.91870  -0.00332   0.00000  -0.02020  -0.02065   1.89805
    A6        1.92786  -0.00174   0.00000  -0.02281  -0.02367   1.90419
    A7        1.68776  -0.00926   0.00000  -0.03053  -0.03053   1.65722
    A8        3.14635  -0.00609   0.00000  -0.22761  -0.22761   2.91874
    A9        2.88525   0.00096   0.00000   0.03608   0.03608   2.92133
    D1        3.07208  -0.00073   0.00000  -0.04529  -0.04534   3.02674
    D2        0.98823  -0.00421   0.00000  -0.07310  -0.07241   0.91582
    D3       -1.13302   0.00330   0.00000  -0.01301  -0.01364  -1.14666
         Item               Value     Threshold  Converged?
 Maximum Force            0.025845     0.000450     NO 
 RMS     Force            0.009344     0.000300     NO 
 Maximum Displacement     0.255319     0.001800     NO 
 RMS     Displacement     0.115925     0.001200     NO 
 Predicted change in Energy=-3.807337D-03
 Lowest energy point so far.  Saving SCF results.
 Largest change from initial coordinates is atom    7       0.175 Angstoms.
 GradGradGradGradGradGradGradGradGradGradGradGradGradGradGradGradGradGrad

 Leave Link  103 at Wed Oct  7 13:18:40 2020, MaxMem=  2684354560 cpu:               3.5 elap:               0.6
 (Enter /udrive/faculty/rpeverati/g16/g16/l202.exe)
                          Input orientation:                          
 ---------------------------------------------------------------------
 Center     Atomic      Atomic             Coordinates (Angstroms)
 Number     Number       Type             X           Y           Z
 ---------------------------------------------------------------------
      1          9           0        1.891898   -0.028808    0.024208
      2          6           0        0.461172    0.097560   -0.003665
      3          1           0       -0.005338   -0.816636   -0.386333
      4          1           0        0.073945    0.274142    1.007465
      5          1           0        0.174355    0.937108   -0.649819
      6          8           0       -2.089131   -0.158341    0.031598
      7          1           0       -2.960260    0.291218    0.002169
 ---------------------------------------------------------------------
                    Distance matrix (angstroms):
                    1          2          3          4          5
     1  F    0.000000
     2  C    1.436566   0.000000
     3  H    2.094928   1.095363   0.000000
     4  H    2.088905   1.097046   1.771653   0.000000
     5  H    2.082610   1.097552   1.782508   1.787791   0.000000
     6  O    3.983143   2.563352   2.224907   2.412106   2.605322
     7  H    4.862751   3.426914   3.179597   3.196454   3.266202
                    6          7
     6  O    0.000000
     7  H    0.980733   0.000000
 Stoichiometry    CH4FO(1-)
 Framework group  C1[X(CH4FO)]
 Deg. of freedom    15
 Full point group                 C1      NOp   1
 RotChk:  IX=0 Diff= 2.35D-01
 Largest Abelian subgroup         C1      NOp   1
 Largest concise Abelian subgroup C1      NOp   1
                         Standard orientation:                         
 ---------------------------------------------------------------------
 Center     Atomic      Atomic             Coordinates (Angstroms)
 Number     Number       Type             X           Y           Z
 ---------------------------------------------------------------------
      1          9           0        1.877438   -0.064424    0.002432
      2          6           0        0.450116    0.098216   -0.002200
      3          1           0       -0.036688   -0.729825   -0.528689
      4          1           0        0.064756    0.115860    1.024785
      5          1           0        0.184455    1.038707   -0.501723
      6          8           0       -2.105535   -0.100308   -0.005441
      7          1           0       -2.965877    0.368245    0.040464
 ---------------------------------------------------------------------
 Rotational constants (GHZ):         136.3253782           3.3603628           3.3488894
 Leave Link  202 at Wed Oct  7 13:18:41 2020, MaxMem=  2684354560 cpu:               0.8 elap:               0.4
 (Enter /udrive/faculty/rpeverati/g16/g16/l301.exe)
 Standard basis: 6-31G(d) (5D, 7F)
 Ernie: Thresh=  0.10000D-02 Tol=  0.10000D-05 Strict=F.
 There are    53 symmetry adapted cartesian basis functions of A   symmetry.
 There are    50 symmetry adapted basis functions of A   symmetry.
    50 basis functions,   100 primitive gaussians,    53 cartesian basis functions
    14 alpha electrons       14 beta electrons
       nuclear repulsion energy        67.7828227744 Hartrees.
 IExCor=  404 DFT=T Ex=B Corr=P86 ExCW=0 ScaHFX=  0.000000
 ScaDFX=  1.000000  1.000000  1.000000  1.000000 ScalE2=  1.000000  1.000000
 IRadAn=      5 IRanWt=     -1 IRanGd=            0 ICorTp=0 IEmpDi=  4
 NAtoms=    7 NActive=    7 NUniq=    7 SFac= 1.00D+00 NAtFMM=   60 NAOKFM=F Big=F
 Integral buffers will be    131072 words long.
 Raffenetti 2 integral format.
 Two-electron integral symmetry is turned on.
 Leave Link  301 at Wed Oct  7 13:18:42 2020, MaxMem=  2684354560 cpu:               2.1 elap:               0.6
 (Enter /udrive/faculty/rpeverati/g16/g16/l302.exe)
 NPDir=0 NMtPBC=     1 NCelOv=     1 NCel=       1 NClECP=     1 NCelD=      1
         NCelK=      1 NCelE2=     1 NClLst=     1 CellRange=     0.0.
 One-electron integrals computed using PRISM.
 One-electron integral symmetry used in STVInt
 NBasis=    50 RedAO= T EigKep=  1.96D-02  NBF=    50
 NBsUse=    50 1.00D-06 EigRej= -1.00D+00 NBFU=    50
 Precomputing XC quadrature grid using
 IXCGrd= 4 IRadAn=           5 IRanWt=          -1 IRanGd=           0 AccXCQ= 0.00D+00.
 Generated NRdTot=       0 NPtTot=           0 NUsed=           0 NTot=          32
 NSgBfM=    53    53    53    53    53 MxSgAt=     7 MxSgA2=     7.
 Leave Link  302 at Wed Oct  7 13:18:42 2020, MaxMem=  2684354560 cpu:               4.0 elap:               0.6
 (Enter /udrive/faculty/rpeverati/g16/g16/l303.exe)
 DipDrv:  MaxL=1.
 Leave Link  303 at Wed Oct  7 13:18:43 2020, MaxMem=  2684354560 cpu:               1.4 elap:               0.6
 (Enter /udrive/faculty/rpeverati/g16/g16/l401.exe)
 Initial guess from the checkpoint file:  "MN_62_hoch3fcomp2_BH76_BP86_631Gs.chk"
 SCF N**3 symmetry information disabled.
 B after Tr=    -0.000000   -0.000000   -0.000000
         Rot=    0.997095   -0.076156    0.000699   -0.000951 Ang=  -8.74 deg.
 Guess basis will be translated and rotated to current coordinates.
 JPrj=2 DoOrth=T DoCkMO=T.
 Generating alternative initial guess.
 ExpMin= 1.61D-01 ExpMax= 7.00D+03 ExpMxC= 1.05D+03 IAcc=2 IRadAn=         4 AccDes= 0.00D+00
 Harris functional with IExCor=  404 and IRadAn=       4 diagonalized for initial guess.
 HarFok:  IExCor=  404 AccDes= 0.00D+00 IRadAn=         4 IDoV= 1 UseB2=F ITyADJ=14
 ICtDFT=  3500011 ScaDFX=  1.000000  1.000000  1.000000  1.000000
 FoFCou: FMM=F IPFlag=           0 FMFlag=      100000 FMFlg1=           0
         NFxFlg=           0 DoJE=T BraDBF=F KetDBF=T FulRan=T
         wScrn=  0.000000 ICntrl=       500 IOpCl=  0 I1Cent=   200000004 NGrid=           0
         NMat0=    1 NMatS0=      1 NMatT0=    0 NMatD0=    1 NMtDS0=    0 NMtDT0=    0
 Petite list used in FoFCou.
 Harris En= -215.803044956182    
 Leave Link  401 at Wed Oct  7 13:18:45 2020, MaxMem=  2684354560 cpu:               8.2 elap:               1.1
 (Enter /udrive/faculty/rpeverati/g16/g16/l502.exe)
 Keep J ints in memory in canonical form, NReq=11319949.
 FoFCou: FMM=F IPFlag=           0 FMFlag=           0 FMFlg1=           0
         NFxFlg=           0 DoJE=F BraDBF=F KetDBF=F FulRan=T
         wScrn=  0.000000 ICntrl=       600 IOpCl=  0 I1Cent=           0 NGrid=           0
         NMat0=    1 NMatS0=   1275 NMatT0=    0 NMatD0=    1 NMtDS0=    0 NMtDT0=    0
 Symmetry not used in FoFCou.
 Two-electron integral symmetry not used.
 Closed shell SCF:
 Using DIIS extrapolation, IDIIS=  1040.
 NGot=  2684354560 LenX=  2683534079 LenY=  2683530829
 Requested convergence on RMS density matrix=1.00D-08 within 120 cycles.
 Requested convergence on MAX density matrix=1.00D-06.
 Requested convergence on             energy=1.00D-06.
 No special actions if energy rises.
 Integral accuracy reduced to 1.0D-05 until final iterations.

 Cycle   1  Pass 0  IDiag  1:
 E= -215.469072143231    
 DIIS: error= 1.29D-02 at cycle   1 NSaved=   1.
 NSaved= 1 IEnMin= 1 EnMin= -215.469072143231     IErMin= 1 ErrMin= 1.29D-02
 ErrMax= 1.29D-02  0.00D+00 EMaxC= 1.00D-01 BMatC= 4.47D-03 BMatP= 4.47D-03
 IDIUse=3 WtCom= 8.71D-01 WtEn= 1.29D-01
 Coeff-Com:  0.100D+01
 Coeff-En:   0.100D+01
 Coeff:      0.100D+01
 Recover alternate guess density for next cycle.
 RMSDP=1.09D-02 MaxDP=1.16D-01              OVMax= 0.00D+00

 Cycle   2  Pass 0  IDiag  1:
 E= -215.255103500788     Delta-E=        0.213968642442 Rises=F Damp=F
 Switch densities from cycles 1 and 2 for lowest energy.
 DIIS: error= 1.05D-01 at cycle   2 NSaved=   2.
 NSaved= 2 IEnMin= 1 EnMin= -215.469072143231     IErMin= 1 ErrMin= 1.29D-02
 ErrMax= 1.05D-01  0.00D+00 EMaxC= 1.00D+00 BMatC= 2.64D-01 BMatP= 4.47D-03
 IDIUse=1 WtCom= 1.00D+00 WtEn= 0.00D+00
 Coeff-Com:  0.991D+00 0.938D-02
 Coeff:      0.991D+00 0.938D-02
 Gap=     0.123 Goal=   None    Shift=    0.000
 RMSDP=4.22D-03 MaxDP=5.15D-02 DE= 2.14D-01 OVMax= 1.70D-01

 Cycle   3  Pass 0  IDiag  1:
 E= -215.477142827338     Delta-E=       -0.222039326550 Rises=F Damp=F
 DIIS: error= 5.21D-03 at cycle   3 NSaved=   3.
 NSaved= 3 IEnMin= 3 EnMin= -215.477142827338     IErMin= 3 ErrMin= 5.21D-03
 ErrMax= 5.21D-03  0.00D+00 EMaxC= 1.00D+00 BMatC= 8.54D-04 BMatP= 4.47D-03
 IDIUse=1 WtCom= 1.00D+00 WtEn= 0.00D+00
 Coeff-Com:  0.516D-01 0.430D-01 0.905D+00
 Coeff:      0.516D-01 0.430D-01 0.905D+00
 Gap=     0.129 Goal=   None    Shift=    0.000
 RMSDP=1.08D-03 MaxDP=8.81D-03 DE=-2.22D-01 OVMax= 1.92D-02

 Cycle   4  Pass 0  IDiag  1:
 E= -215.477501512353     Delta-E=       -0.000358685015 Rises=F Damp=F
 DIIS: error= 3.46D-03 at cycle   4 NSaved=   4.
 NSaved= 4 IEnMin= 4 EnMin= -215.477501512353     IErMin= 4 ErrMin= 3.46D-03
 ErrMax= 3.46D-03  0.00D+00 EMaxC= 1.00D+00 BMatC= 6.11D-04 BMatP= 8.54D-04
 IDIUse=1 WtCom= 1.00D+00 WtEn= 0.00D+00
 Coeff-Com: -0.226D-03 0.257D-01 0.589D+00 0.385D+00
 Coeff:     -0.226D-03 0.257D-01 0.589D+00 0.385D+00
 Gap=     0.127 Goal=   None    Shift=    0.000
 RMSDP=3.65D-04 MaxDP=5.62D-03 DE=-3.59D-04 OVMax= 6.89D-03

 Cycle   5  Pass 0  IDiag  1:
 E= -215.477911202625     Delta-E=       -0.000409690272 Rises=F Damp=F
 DIIS: error= 3.31D-04 at cycle   5 NSaved=   5.
 NSaved= 5 IEnMin= 5 EnMin= -215.477911202625     IErMin= 5 ErrMin= 3.31D-04
 ErrMax= 3.31D-04  0.00D+00 EMaxC= 1.00D+00 BMatC= 7.01D-06 BMatP= 6.11D-04
 IDIUse=1 WtCom= 1.00D+00 WtEn= 0.00D+00
 Coeff-Com:  0.928D-03 0.563D-02 0.160D+00 0.143D+00 0.690D+00
 Coeff:      0.928D-03 0.563D-02 0.160D+00 0.143D+00 0.690D+00
 Gap=     0.127 Goal=   None    Shift=    0.000
 RMSDP=6.58D-05 MaxDP=7.56D-04 DE=-4.10D-04 OVMax= 1.11D-03

 Cycle   6  Pass 0  IDiag  1:
 E= -215.477916934444     Delta-E=       -0.000005731819 Rises=F Damp=F
 DIIS: error= 3.14D-05 at cycle   6 NSaved=   6.
 NSaved= 6 IEnMin= 6 EnMin= -215.477916934444     IErMin= 6 ErrMin= 3.14D-05
 ErrMax= 3.14D-05  0.00D+00 EMaxC= 1.00D+00 BMatC= 9.29D-08 BMatP= 7.01D-06
 IDIUse=1 WtCom= 1.00D+00 WtEn= 0.00D+00
 Coeff-Com:  0.256D-03 0.749D-03 0.233D-01 0.241D-01 0.177D+00 0.775D+00
 Coeff:      0.256D-03 0.749D-03 0.233D-01 0.241D-01 0.177D+00 0.775D+00
 Gap=     0.127 Goal=   None    Shift=    0.000
 RMSDP=1.20D-05 MaxDP=1.01D-04 DE=-5.73D-06 OVMax= 1.89D-04

 Cycle   7  Pass 0  IDiag  1:
 E= -215.477916975356     Delta-E=       -0.000000040912 Rises=F Damp=F
 DIIS: error= 2.98D-05 at cycle   7 NSaved=   7.
 NSaved= 7 IEnMin= 7 EnMin= -215.477916975356     IErMin= 7 ErrMin= 2.98D-05
 ErrMax= 2.98D-05  0.00D+00 EMaxC= 1.00D+00 BMatC= 4.90D-08 BMatP= 9.29D-08
 IDIUse=1 WtCom= 1.00D+00 WtEn= 0.00D+00
 Coeff-Com: -0.595D-04 0.407D-03 0.991D-02 0.109D-01 0.843D-01 0.477D+00
 Coeff-Com:  0.418D+00
 Coeff:     -0.595D-04 0.407D-03 0.991D-02 0.109D-01 0.843D-01 0.477D+00
 Coeff:      0.418D+00
 Gap=     0.127 Goal=   None    Shift=    0.000
 RMSDP=5.82D-06 MaxDP=4.46D-05 DE=-4.09D-08 OVMax= 1.12D-04

 Initial convergence to 1.0D-05 achieved.  Increase integral accuracy.
 Cycle   8  Pass 1  IDiag  1:
 E= -215.477918017796     Delta-E=       -0.000001042440 Rises=F Damp=F
 DIIS: error= 4.31D-06 at cycle   1 NSaved=   1.
 NSaved= 1 IEnMin= 1 EnMin= -215.477918017796     IErMin= 1 ErrMin= 4.31D-06
 ErrMax= 4.31D-06  0.00D+00 EMaxC= 1.00D+00 BMatC= 1.32D-09 BMatP= 1.32D-09
 IDIUse=1 WtCom= 1.00D+00 WtEn= 0.00D+00
 Coeff-Com:  0.100D+01
 Coeff:      0.100D+01
 Gap=     0.127 Goal=   None    Shift=    0.000
 RMSDP=5.82D-06 MaxDP=4.46D-05 DE=-1.04D-06 OVMax= 3.28D-05

 Cycle   9  Pass 1  IDiag  1:
 E= -215.477918015796     Delta-E=        0.000000002001 Rises=F Damp=F
 DIIS: error= 1.02D-05 at cycle   2 NSaved=   2.
 NSaved= 2 IEnMin= 1 EnMin= -215.477918017796     IErMin= 1 ErrMin= 4.31D-06
 ErrMax= 1.02D-05  0.00D+00 EMaxC= 1.00D+00 BMatC= 4.10D-09 BMatP= 1.32D-09
 IDIUse=1 WtCom= 1.00D+00 WtEn= 0.00D+00
 Coeff-Com:  0.646D+00 0.354D+00
 Coeff:      0.646D+00 0.354D+00
 Gap=     0.127 Goal=   None    Shift=    0.000
 RMSDP=1.31D-06 MaxDP=1.57D-05 DE= 2.00D-09 OVMax= 1.84D-05

 Cycle  10  Pass 1  IDiag  1:
 E= -215.477918019075     Delta-E=       -0.000000003280 Rises=F Damp=F
 DIIS: error= 1.49D-06 at cycle   3 NSaved=   3.
 NSaved= 3 IEnMin= 3 EnMin= -215.477918019075     IErMin= 3 ErrMin= 1.49D-06
 ErrMax= 1.49D-06  0.00D+00 EMaxC= 1.00D+00 BMatC= 1.14D-10 BMatP= 1.32D-09
 IDIUse=1 WtCom= 1.00D+00 WtEn= 0.00D+00
 Coeff-Com:  0.291D+00 0.186D+00 0.522D+00
 Coeff:      0.291D+00 0.186D+00 0.522D+00
 Gap=     0.127 Goal=   None    Shift=    0.000
 RMSDP=3.35D-07 MaxDP=2.51D-06 DE=-3.28D-09 OVMax= 6.51D-06

 Cycle  11  Pass 1  IDiag  1:
 E= -215.477918019154     Delta-E=       -0.000000000079 Rises=F Damp=F
 DIIS: error= 5.15D-07 at cycle   4 NSaved=   4.
 NSaved= 4 IEnMin= 4 EnMin= -215.477918019154     IErMin= 4 ErrMin= 5.15D-07
 ErrMax= 5.15D-07  0.00D+00 EMaxC= 1.00D+00 BMatC= 1.61D-11 BMatP= 1.14D-10
 IDIUse=1 WtCom= 1.00D+00 WtEn= 0.00D+00
 Coeff-Com:  0.128D+00 0.809D-01 0.335D+00 0.456D+00
 Coeff:      0.128D+00 0.809D-01 0.335D+00 0.456D+00
 Gap=     0.127 Goal=   None    Shift=    0.000
 RMSDP=1.18D-07 MaxDP=8.38D-07 DE=-7.86D-11 OVMax= 2.20D-06

 Cycle  12  Pass 1  IDiag  1:
 E= -215.477918019171     Delta-E=       -0.000000000017 Rises=F Damp=F
 DIIS: error= 1.17D-07 at cycle   5 NSaved=   5.
 NSaved= 5 IEnMin= 5 EnMin= -215.477918019171     IErMin= 5 ErrMin= 1.17D-07
 ErrMax= 1.17D-07  0.00D+00 EMaxC= 1.00D+00 BMatC= 8.08D-13 BMatP= 1.61D-11
 IDIUse=1 WtCom= 1.00D+00 WtEn= 0.00D+00
 Coeff-Com:  0.329D-01 0.204D-01 0.125D+00 0.227D+00 0.595D+00
 Coeff:      0.329D-01 0.204D-01 0.125D+00 0.227D+00 0.595D+00
 Gap=     0.127 Goal=   None    Shift=    0.000
 RMSDP=1.81D-08 MaxDP=2.43D-07 DE=-1.70D-11 OVMax= 2.93D-07

 Cycle  13  Pass 1  IDiag  1:
 E= -215.477918019171     Delta-E=       -0.000000000000 Rises=F Damp=F
 DIIS: error= 5.56D-08 at cycle   6 NSaved=   6.
 NSaved= 6 IEnMin= 6 EnMin= -215.477918019171     IErMin= 6 ErrMin= 5.56D-08
 ErrMax= 5.56D-08  0.00D+00 EMaxC= 1.00D+00 BMatC= 1.83D-13 BMatP= 8.08D-13
 IDIUse=1 WtCom= 1.00D+00 WtEn= 0.00D+00
 Coeff-Com:  0.412D-02 0.246D-02 0.307D-01 0.767D-01 0.362D+00 0.524D+00
 Coeff:      0.412D-02 0.246D-02 0.307D-01 0.767D-01 0.362D+00 0.524D+00
 Gap=     0.127 Goal=   None    Shift=    0.000
 RMSDP=7.39D-09 MaxDP=6.89D-08 DE=-1.71D-13 OVMax= 9.68D-08

 SCF Done:  E(RB-P86) =  -215.477918019     A.U. after   13 cycles
            NFock= 13  Conv=0.74D-08     -V/T= 2.0052
 KE= 2.143628562919D+02 PE=-6.533446340771D+02 EE= 1.557210369917D+02
 Leave Link  502 at Wed Oct  7 13:18:48 2020, MaxMem=  2684354560 cpu:              27.5 elap:               2.8
 (Enter /udrive/faculty/rpeverati/g16/g16/l508.exe)
 QCSCF skips out because SCF is already converged.
 Leave Link  508 at Wed Oct  7 13:18:48 2020, MaxMem=  2684354560 cpu:               0.2 elap:               0.4
 (Enter /udrive/faculty/rpeverati/g16/g16/l701.exe)
 ... and contract with generalized density number  0.
 Compute integral first derivatives.
 Leave Link  701 at Wed Oct  7 13:18:49 2020, MaxMem=  2684354560 cpu:               4.2 elap:               0.7
 (Enter /udrive/faculty/rpeverati/g16/g16/l702.exe)
 L702 exits ... SP integral derivatives will be done elsewhere.
 Leave Link  702 at Wed Oct  7 13:18:50 2020, MaxMem=  2684354560 cpu:               1.1 elap:               0.3
 (Enter /udrive/faculty/rpeverati/g16/g16/l703.exe)
 Integral derivatives from FoFJK, PRISM(SPDF).
 Compute integral first derivatives, UseDBF=F ICtDFT=           0.
 Calling FoFJK, ICntrl=      2527 FMM=F ISym2X=0 I1Cent= 0 IOpClX= 0 NMat=1 NMatS=1 NMatT=0.
 FoFJK:  IHMeth= 1 ICntrl=    2527 DoSepK=F KAlg= 0 I1Cent=           0 FoldK=F
 IRaf=         0 NMat=       1 IRICut=       1 DoRegI=T DoRafI=F ISym2E= 0 IDoP0=0 IntGTp=1.
 FoFCou: FMM=F IPFlag=           0 FMFlag=      100000 FMFlg1=         800
         NFxFlg=           0 DoJE=F BraDBF=F KetDBF=F FulRan=T
         wScrn=  0.000000 ICntrl=      2527 IOpCl=  0 I1Cent=           0 NGrid=           0
         NMat0=    1 NMatS0=      1 NMatT0=    0 NMatD0=    1 NMtDS0=    0 NMtDT0=    0
 Symmetry not used in FoFCou.
 Leave Link  703 at Wed Oct  7 13:18:52 2020, MaxMem=  2684354560 cpu:              10.3 elap:               1.3
 (Enter /udrive/faculty/rpeverati/g16/g16/l716.exe)
 Dipole        = 1.98731198D+00 3.45712271D-01 1.39741096D-02
 ***** Axes restored to original set *****
 -------------------------------------------------------------------
 Center     Atomic                   Forces (Hartrees/Bohr)
 Number     Number              X              Y              Z
 -------------------------------------------------------------------
      1        9           0.008018474   -0.000894511   -0.000299135
      2        6          -0.004773486    0.002315483    0.001300876
      3        1          -0.002702981   -0.001406670   -0.001386553
      4        1          -0.002916454    0.000200673    0.000861291
      5        1          -0.000852204    0.001611635   -0.001416335
      6        8           0.007783493   -0.008876292    0.002329252
      7        1          -0.004556842    0.007049682   -0.001389395
 -------------------------------------------------------------------
 Cartesian Forces:  Max     0.008876292 RMS     0.004012126
 Leave Link  716 at Wed Oct  7 13:18:53 2020, MaxMem=  2684354560 cpu:               1.5 elap:               0.7
 (Enter /udrive/faculty/rpeverati/g16/g16/l103.exe)

 GradGradGradGradGradGradGradGradGradGradGradGradGradGradGradGradGradGrad
 Berny optimization.
 Optmz: redundant internal coordinate code flag= 1
 Using GEDIIS/GDIIS optimizer.
 Red2BG:  D1=  6.45D-02 OD1=  1.98D-01 B2RMS=  0.00D+00 IAprox=0
 FormGI is forming the generalized inverse of G from B-inverse, IUseBI=4.
 Internal  Forces:  Max     0.008058763 RMS     0.003766934
 Search for a local minimum.
 Step number   2 out of a maximum of  100
 All quantities printed in internal units (Hartrees-Bohrs-Radians)
 RMS Force = .37669D-02 SwitMx=.10000D-02 MixMth= 1
 Mixed Optimization -- RFO/linear search
 Update second derivatives using D2CorX and points    1    2
 DE= -4.87D-03 DEPred=-3.81D-03 R= 1.28D+00
 TightC=F SS=  1.41D+00  RLast= 3.12D-01 DXNew= 5.0454D-01 9.3666D-01
 Trust test= 1.28D+00 RLast= 3.12D-01 DXMaxT set to 5.05D-01
 The second derivative matrix:
                          R1        R2        R3        R4        R5
           R1           0.40653
           R2          -0.00316   0.36929
           R3          -0.00035   0.01489   0.37718
           R4          -0.00110   0.01350   0.01825   0.37298
           R5           0.00359  -0.00193  -0.00344  -0.00298   0.02653
           R6          -0.01004   0.01955   0.02846   0.02562  -0.00282
           A1          -0.00264   0.00119   0.00222   0.00191   0.00019
           A2          -0.00651  -0.00207  -0.00119  -0.00141   0.00164
           A3          -0.00246   0.00316   0.00480   0.00429  -0.00031
           A4           0.00531  -0.00009  -0.00140  -0.00103  -0.00092
           A5           0.00021  -0.00479  -0.00643  -0.00589   0.00109
           A6           0.00708   0.00383   0.00339   0.00345  -0.00216
           A7           0.01143   0.00384   0.00236   0.00272  -0.00294
           A8           0.01485   0.01476   0.01608   0.01547  -0.00611
           A9          -0.00026   0.00051   0.00074   0.00067  -0.00007
           D1          -0.00011  -0.00040  -0.00051  -0.00047   0.00011
           D2          -0.00570  -0.00814  -0.00947  -0.00897   0.00293
           D3           0.00901   0.01219   0.01406   0.01334  -0.00447
                          R6        A1        A2        A3        A4
           R6           0.58954
           A1           0.00163   0.15983
           A2          -0.00559  -0.00119   0.15741
           A3           0.00545   0.00015  -0.00126   0.16081
           A4           0.00115   0.00070   0.00224   0.00045   0.15835
           A5          -0.00913  -0.00070   0.00042  -0.00154   0.00042
           A6           0.00910   0.00154   0.00271   0.00188  -0.00260
           A7           0.01021   0.00213   0.00454   0.00227  -0.00395
           A8           0.03200   0.00425   0.00521   0.00612  -0.00613
           A9           0.00092   0.00004  -0.00014   0.00014   0.00003
           D1          -0.00080  -0.00008  -0.00002  -0.00014   0.00008
           D2          -0.01703  -0.00201  -0.00183  -0.00315   0.00260
           D3           0.02562   0.00307   0.00294   0.00477  -0.00405
                          A5        A6        A7        A8        A9
           A5           0.16207
           A6          -0.00114   0.15739
           A7          -0.00083  -0.00472   0.24205
           A8          -0.00528  -0.00402  -0.00894   0.01425
           A9          -0.00024   0.00024   0.00026   0.00083   0.01559
           D1           0.00016  -0.00003   0.00003  -0.00029  -0.00002
           D2           0.00309   0.00100   0.00308  -0.00211  -0.00044
           D3          -0.00460  -0.00174  -0.00497   0.00261   0.00067
                          D1        D2        D3
           D1           0.00354
           D2           0.00020   0.00589
           D3          -0.00029  -0.00330   0.00811
 ITU=  1  0
 Use linear search instead of GDIIS.
 Eigenvectors of the second derivative matrix:
                           1         2         3         4         5
     Eigenvalues --     0.00330   0.00726   0.01563   0.02807   0.09858
   1         R1        -0.01348  -0.03939  -0.00255   0.00296   0.00607
   2         R2        -0.01083  -0.02938  -0.00328   0.01397   0.00451
   3         R3        -0.01064  -0.02803  -0.00365   0.01784   0.00420
   4         R4        -0.01057  -0.02806  -0.00351   0.01659   0.00424
   5         R5         0.08161   0.27439   0.04053   0.95671   0.00871
   6         R6        -0.01595  -0.04362  -0.00448   0.01738   0.00601
   7         A1        -0.00737  -0.01988  -0.00284   0.01567   0.03322
   8         A2        -0.01253  -0.03684  -0.00298   0.00758   0.52875
   9         A3        -0.00965  -0.02531  -0.00405   0.02415  -0.44335
  10         A4         0.01307   0.03734   0.00356  -0.01302   0.22715
  11         A5         0.00768   0.02003   0.00315  -0.01796  -0.27169
  12         A6         0.00976   0.02732   0.00349  -0.01806  -0.07427
  13         A7         0.01480   0.04404   0.00262  -0.00097  -0.00856
  14         A8         0.19241   0.92695   0.06688  -0.28329   0.01203
  15         A9        -0.01858  -0.07448   0.99685  -0.01911  -0.00085
  16         D1         0.56396  -0.12349   0.00161  -0.01870   0.50749
  17         D2         0.57547  -0.09004   0.00472  -0.02917  -0.30788
  18         D3         0.55238  -0.15428  -0.00313   0.00937  -0.19768
                           6         7         8         9        10
     Eigenvalues --     0.10698   0.15838   0.16000   0.16320   0.24160
   1         R1         0.00092  -0.02009   0.00000  -0.00547   0.06474
   2         R2        -0.02697  -0.00680  -0.00000  -0.02964   0.02073
   3         R3        -0.03641  -0.00269  -0.00000  -0.03801   0.00355
   4         R4        -0.03347  -0.00379  -0.00000  -0.03540   0.00824
   5         R5        -0.01926  -0.00961   0.00000  -0.01184   0.01236
   6         R6        -0.02893  -0.00993  -0.00000  -0.02930   0.02420
   7         A1         0.25911   0.16678   0.80722   0.18519   0.00499
   8         A2         0.21676  -0.47303  -0.27040   0.03831  -0.02834
   9         A3         0.31004   0.07099  -0.45099   0.34978   0.00552
  10         A4        -0.15924   0.77225  -0.24308  -0.22135   0.03285
  11         A5        -0.03263  -0.29532   0.08464  -0.78333  -0.01274
  12         A6        -0.62212  -0.23729   0.07502   0.41466  -0.00184
  13         A7        -0.00820   0.04092  -0.00000   0.00273  -0.99504
  14         A8         0.08185  -0.03217   0.00000   0.03044   0.04755
  15         A9         0.00371   0.00071   0.00000   0.00203  -0.00086
  16         D1        -0.06177   0.00198   0.00000  -0.00525  -0.00093
  17         D2        -0.38310  -0.01075  -0.00000  -0.02279   0.00990
  18         D3         0.46319   0.00245   0.00000   0.03553   0.00075
                          11        12        13        14        15
     Eigenvalues --     0.35669   0.35787   0.39747   0.40779   0.60362
   1         R1        -0.00464  -0.04200   0.07902   0.99170  -0.04569
   2         R2         0.10660  -0.85667  -0.49019   0.00512   0.10562
   3         R3         0.61700   0.45320  -0.61818   0.07635   0.14799
   4         R4        -0.77968   0.24181  -0.55596   0.05493   0.13360
   5         R5        -0.00001  -0.00195   0.01302   0.00667  -0.00800
   6         R6         0.00167  -0.01023   0.23534   0.02150   0.96910
   7         A1        -0.00042  -0.00021  -0.02114   0.00521   0.01842
   8         A2         0.00025   0.00297  -0.00654  -0.01197   0.00008
   9         A3        -0.00066  -0.00028  -0.03382   0.00825   0.02944
  10         A4        -0.00011  -0.00324   0.01605   0.01097  -0.00779
  11         A5         0.00085   0.00076   0.03978  -0.01151  -0.03372
  12         A6         0.00012  -0.00008   0.00771  -0.00108  -0.00808
  13         A7        -0.00241  -0.01779  -0.00822   0.06899   0.02769
  14         A8        -0.00167  -0.00687  -0.04658   0.04299   0.06234
  15         A9        -0.00003   0.00015  -0.00253  -0.00020   0.00212
  16         D1         0.00005   0.00001   0.00236  -0.00042  -0.00160
  17         D2         0.00006  -0.00145   0.01290   0.00414  -0.00785
  18         D3        -0.00048   0.00003  -0.02694   0.00560   0.02451
 Iter=   1 RLamda= 0.00000000D+00 Sum=-5.51728737D-03.
 Iter=   2 RLamda=-5.51728737D-03 Sum=-3.48129856D-03.
 Iter=   3 RLamda=-3.48129856D-03 Sum=-3.95538530D-03.
 Iter=   4 RLamda=-3.95538530D-03 Sum=-3.82838491D-03.
 Iter=   5 RLamda=-3.82838491D-03 Sum=-3.86124227D-03.
 Iter=   6 RLamda=-3.86124227D-03 Sum=-3.85266305D-03.
 Iter=   7 RLamda=-3.85266305D-03 Sum=-3.85489779D-03.
 Iter=   8 RLamda=-3.85489779D-03 Sum=-3.85431532D-03.
 Iter=   9 RLamda=-3.85431532D-03 Sum=-3.85446711D-03.
 Iter=  10 RLamda=-3.85446711D-03 Sum=-3.85442755D-03.
 Iter=  11 RLamda=-3.85442755D-03 Sum=-3.85443786D-03.
 Iter=  12 RLamda=-3.85443786D-03 Sum=-3.85443517D-03.
 RFO step:  Lambda=-3.85443786D-03 EMin= 3.29822762D-03
 Quartic linear search produced a step of  1.05703.
 Iteration  1 RMS(Cart)=  0.15696042 RMS(Int)=  0.12580392
 Iteration  2 RMS(Cart)=  0.07578915 RMS(Int)=  0.07822350
 Iteration  3 RMS(Cart)=  0.07410426 RMS(Int)=  0.03161550
 Iteration  4 RMS(Cart)=  0.05136158 RMS(Int)=  0.00331287
 Iteration  5 RMS(Cart)=  0.00257667 RMS(Int)=  0.00069281
 Iteration  6 RMS(Cart)=  0.00000158 RMS(Int)=  0.00069281
 Iteration  7 RMS(Cart)=  0.00000000 RMS(Int)=  0.00069281
 ITry= 1 IFail=0 DXMaxC= 9.73D-01 DCOld= 1.00D+10 DXMaxT= 5.05D-01 DXLimC= 3.00D+00 Rises=F
 Variable       Old X    -DE/DX   Delta X   Delta X   Delta X     New X
                                 (Linear)    (Quad)   (Total)
    R1        2.71472   0.00806   0.03032   0.02204   0.05237   2.76708
    R2        2.06994   0.00286   0.02860   0.00222   0.03082   2.10076
    R3        2.07312   0.00186   0.02961  -0.00330   0.02631   2.09942
    R4        2.07407   0.00210   0.02898  -0.00177   0.02721   2.10128
    R5        4.20446  -0.00340  -0.17569  -0.05103  -0.22672   3.97774
    R6        1.85332   0.00732   0.04123   0.00702   0.04826   1.90157
    A1        1.93641   0.00022   0.02056  -0.00412   0.01627   1.95268
    A2        1.92603   0.00203   0.02920   0.01406   0.04319   1.96922
    A3        1.91662   0.00028   0.02800  -0.00883   0.01889   1.93551
    A4        1.88179  -0.00210  -0.03147  -0.00939  -0.04165   1.84014
    A5        1.89805   0.00000  -0.02183   0.00773  -0.01496   1.88309
    A6        1.90419  -0.00050  -0.02502   0.00059  -0.02620   1.87799
    A7        1.65722  -0.00569  -0.03227  -0.02695  -0.05922   1.59801
    A8        2.91874  -0.00801  -0.24059  -0.48374  -0.72433   2.19440
    A9        2.92133   0.00048   0.03814   0.00159   0.03973   2.96106
    D1        3.02674  -0.00052  -0.04793  -0.08031  -0.12840   2.89835
    D2        0.91582  -0.00181  -0.07654  -0.08911  -0.16416   0.75166
    D3       -1.14666  -0.00004  -0.01442  -0.08881  -0.10456  -1.25122
         Item               Value     Threshold  Converged?
 Maximum Force            0.008059     0.000450     NO 
 RMS     Force            0.003767     0.000300     NO 
 Maximum Displacement     0.973150     0.001800     NO 
 RMS     Displacement     0.316841     0.001200     NO 
 Predicted change in Energy=-6.221854D-03
 Lowest energy point so far.  Saving SCF results.
 Largest change from initial coordinates is atom    7       0.766 Angstoms.
 GradGradGradGradGradGradGradGradGradGradGradGradGradGradGradGradGradGrad

 Leave Link  103 at Wed Oct  7 13:18:54 2020, MaxMem=  2684354560 cpu:               3.4 elap:               0.9
 (Enter /udrive/faculty/rpeverati/g16/g16/l202.exe)
                          Input orientation:                          
 ---------------------------------------------------------------------
 Center     Atomic      Atomic             Coordinates (Angstroms)
 Number     Number       Type             X           Y           Z
 ---------------------------------------------------------------------
      1          9           0        1.814038    0.077880    0.091237
      2          6           0        0.354334    0.093602   -0.023338
      3          1           0       -0.038132   -0.855772   -0.448161
      4          1           0       -0.153770    0.210846    0.957648
      5          1           0        0.016866    0.926303   -0.678442
      6          8           0       -2.001404   -0.373598    0.138187
      7          1           0       -2.445292    0.516983   -0.011507
 ---------------------------------------------------------------------
                    Distance matrix (angstroms):
                    1          2          3          4          5
     1  F    0.000000
     2  C    1.464278   0.000000
     3  H    2.143173   1.111672   0.000000
     4  H    2.154209   1.110967   1.768430   0.000000
     5  H    2.131210   1.111952   1.797733   1.793819   0.000000
     6  O    3.842348   2.407045   2.104930   2.104006   2.535752
     7  H    4.283137   2.831483   2.805270   2.506802   2.583518
                    6          7
     6  O    0.000000
     7  H    1.006270   0.000000
 Stoichiometry    CH4FO(1-)
 Framework group  C1[X(CH4FO)]
 Deg. of freedom    15
 Full point group                 C1      NOp   1
 RotChk:  IX=0 Diff= 2.12D-01
 Largest Abelian subgroup         C1      NOp   1
 Largest concise Abelian subgroup C1      NOp   1
                         Standard orientation:                         
 ---------------------------------------------------------------------
 Center     Atomic      Atomic             Coordinates (Angstroms)
 Number     Number       Type             X           Y           Z
 ---------------------------------------------------------------------
      1          9           0        1.822593   -0.072666    0.036648
      2          6           0        0.372452    0.112229   -0.047122
      3          1           0       -0.101470   -0.630806   -0.724701
      4          1           0       -0.135578   -0.014922    0.932666
      5          1           0        0.123306    1.127595   -0.425796
      6          8           0       -2.018649   -0.159353    0.005290
      7          1           0       -2.375111    0.773575    0.128415
 ---------------------------------------------------------------------
 Rotational constants (GHZ):         111.1662616           3.6890796           3.6559512
 Leave Link  202 at Wed Oct  7 13:18:55 2020, MaxMem=  2684354560 cpu:               1.4 elap:               0.7
 (Enter /udrive/faculty/rpeverati/g16/g16/l301.exe)
 Standard basis: 6-31G(d) (5D, 7F)
 Ernie: Thresh=  0.10000D-02 Tol=  0.10000D-05 Strict=F.
 There are    53 symmetry adapted cartesian basis functions of A   symmetry.
 There are    50 symmetry adapted basis functions of A   symmetry.
    50 basis functions,   100 primitive gaussians,    53 cartesian basis functions
    14 alpha electrons       14 beta electrons
       nuclear repulsion energy        68.8471151523 Hartrees.
 IExCor=  404 DFT=T Ex=B Corr=P86 ExCW=0 ScaHFX=  0.000000
 ScaDFX=  1.000000  1.000000  1.000000  1.000000 ScalE2=  1.000000  1.000000
 IRadAn=      5 IRanWt=     -1 IRanGd=            0 ICorTp=0 IEmpDi=  4
 NAtoms=    7 NActive=    7 NUniq=    7 SFac= 1.00D+00 NAtFMM=   60 NAOKFM=F Big=F
 Integral buffers will be    131072 words long.
 Raffenetti 2 integral format.
 Two-electron integral symmetry is turned on.
 Leave Link  301 at Wed Oct  7 13:18:55 2020, MaxMem=  2684354560 cpu:               1.9 elap:               0.6
 (Enter /udrive/faculty/rpeverati/g16/g16/l302.exe)
 NPDir=0 NMtPBC=     1 NCelOv=     1 NCel=       1 NClECP=     1 NCelD=      1
         NCelK=      1 NCelE2=     1 NClLst=     1 CellRange=     0.0.
 One-electron integrals computed using PRISM.
 One-electron integral symmetry used in STVInt
 NBasis=    50 RedAO= T EigKep=  2.02D-02  NBF=    50
 NBsUse=    50 1.00D-06 EigRej= -1.00D+00 NBFU=    50
 Precomputing XC quadrature grid using
 IXCGrd= 4 IRadAn=           5 IRanWt=          -1 IRanGd=           0 AccXCQ= 0.00D+00.
 Generated NRdTot=       0 NPtTot=           0 NUsed=           0 NTot=          32
 NSgBfM=    53    53    53    53    53 MxSgAt=     7 MxSgA2=     7.
 Leave Link  302 at Wed Oct  7 13:18:56 2020, MaxMem=  2684354560 cpu:               3.8 elap:               0.7
 (Enter /udrive/faculty/rpeverati/g16/g16/l303.exe)
 DipDrv:  MaxL=1.
 Leave Link  303 at Wed Oct  7 13:18:57 2020, MaxMem=  2684354560 cpu:               2.3 elap:               0.8
 (Enter /udrive/faculty/rpeverati/g16/g16/l401.exe)
 Initial guess from the checkpoint file:  "MN_62_hoch3fcomp2_BH76_BP86_631Gs.chk"
 SCF N**3 symmetry information disabled.
 B after Tr=     0.000000   -0.000000    0.000000
         Rot=    0.998544   -0.053874    0.001088    0.002688 Ang=  -6.19 deg.
 Guess basis will be translated and rotated to current coordinates.
 JPrj=2 DoOrth=T DoCkMO=T.
 Generating alternative initial guess.
 ExpMin= 1.61D-01 ExpMax= 7.00D+03 ExpMxC= 1.05D+03 IAcc=2 IRadAn=         4 AccDes= 0.00D+00
 Harris functional with IExCor=  404 and IRadAn=       4 diagonalized for initial guess.
 HarFok:  IExCor=  404 AccDes= 0.00D+00 IRadAn=         4 IDoV= 1 UseB2=F ITyADJ=14
 ICtDFT=  3500011 ScaDFX=  1.000000  1.000000  1.000000  1.000000
 FoFCou: FMM=F IPFlag=           0 FMFlag=      100000 FMFlg1=           0
         NFxFlg=           0 DoJE=T BraDBF=F KetDBF=T FulRan=T
         wScrn=  0.000000 ICntrl=       500 IOpCl=  0 I1Cent=   200000004 NGrid=           0
         NMat0=    1 NMatS0=      1 NMatT0=    0 NMatD0=    1 NMtDS0=    0 NMtDT0=    0
 Petite list used in FoFCou.
 Harris En= -215.790194483917    
 Leave Link  401 at Wed Oct  7 13:18:59 2020, MaxMem=  2684354560 cpu:               8.9 elap:               1.2
 (Enter /udrive/faculty/rpeverati/g16/g16/l502.exe)
 Keep J ints in memory in canonical form, NReq=11319949.
 FoFCou: FMM=F IPFlag=           0 FMFlag=           0 FMFlg1=           0
         NFxFlg=           0 DoJE=F BraDBF=F KetDBF=F FulRan=T
         wScrn=  0.000000 ICntrl=       600 IOpCl=  0 I1Cent=           0 NGrid=           0
         NMat0=    1 NMatS0=   1275 NMatT0=    0 NMatD0=    1 NMtDS0=    0 NMtDT0=    0
[...]
           A8          -0.00326   0.01600   0.01050   0.00552  -0.03964
           A9          -0.00333  -0.00625  -0.00434  -0.00966   0.01792
           D1          -0.01661   0.00551  -0.00437  -0.02305   0.01043
           D2           0.00384  -0.01081  -0.02516   0.01800  -0.01430
           D3           0.02794   0.01085  -0.00029   0.01243  -0.03252
                          A5        A6        A7        A8        A9
           A5           0.14034
           A6          -0.01945   0.14886
           A7          -0.01315  -0.04494   0.40972
           A8           0.00061   0.02203  -0.04097   0.04272
           A9          -0.00350  -0.01768   0.02553  -0.01472   0.01041
           D1          -0.00031   0.01600   0.04175   0.00066   0.00110
           D2           0.01938   0.05382  -0.02345   0.02001  -0.00756
           D3          -0.00867   0.01324  -0.02612   0.01250  -0.00625
                          D1        D2        D3
           D1           0.02024
           D2           0.00539   0.05966
           D3          -0.00010   0.00747   0.01867
 ITU=  1  1  1  1  1  0  0  0 -1 -1  1 -1  1  0 -1  0  1  0  1
 Eigenvectors of the second derivative matrix:
                           1         2         3         4         5
     Eigenvalues --     0.00272   0.00555   0.01369   0.03544   0.09496
   1         R1         0.01450  -0.00481  -0.04198  -0.01244  -0.33397
   2         R2        -0.00672   0.00841   0.00200   0.03659   0.06346
   3         R3        -0.06052   0.10056  -0.06053   0.03908   0.16907
   4         R4        -0.00087   0.00889  -0.00045   0.00671   0.04724
   5         R5        -0.44735   0.57700  -0.47032   0.18099   0.14294
   6         R6         0.00271  -0.00885   0.00387   0.02077  -0.01291
   7         A1         0.01809  -0.01233   0.01744  -0.09983   0.32861
   8         A2         0.11139  -0.08146  -0.10894   0.12921   0.05564
   9         A3         0.00203  -0.03399   0.00269  -0.03077   0.43199
  10         A4        -0.05216   0.11310  -0.14317   0.24694  -0.34926
  11         A5         0.00687  -0.01291   0.03733  -0.02247  -0.15281
  12         A6        -0.09029   0.02782   0.20711  -0.23982  -0.30314
  13         A7         0.14319  -0.17748   0.23356  -0.08964   0.21801
  14         A8        -0.24633  -0.23081   0.39261   0.81980   0.02882
  15         A9        -0.70037  -0.61821  -0.23738  -0.23622  -0.00646
  16         D1         0.28653  -0.22941  -0.44864   0.24076  -0.21876
  17         D2         0.16899  -0.19368  -0.22952  -0.01535  -0.28497
  18         D3         0.29990  -0.27916  -0.42117   0.15176   0.34732
                           6         7         8         9        10
     Eigenvalues --     0.12395   0.13491   0.16212   0.18416   0.22685
   1         R1        -0.07222   0.00706  -0.09923   0.03333  -0.59976
   2         R2         0.04639  -0.07323   0.00994  -0.01793   0.19646
   3         R3         0.44313   0.34204  -0.12808  -0.18358   0.46950
   4         R4         0.10940  -0.01807  -0.04474  -0.06349   0.04754
   5         R5        -0.32672  -0.19246   0.14614   0.05921   0.04701
   6         R6         0.06545  -0.06122  -0.03593  -0.03910  -0.04914
   7         A1        -0.06888   0.02966   0.28782  -0.72098  -0.23850
   8         A2         0.27886  -0.61292  -0.18180   0.20220   0.09253
   9         A3        -0.02171   0.32440   0.00207   0.54111  -0.14422
  10         A4         0.26748   0.32939  -0.02480   0.00516  -0.22153
  11         A5        -0.49073   0.03300  -0.66966  -0.20944   0.24448
  12         A6        -0.05411  -0.04997   0.51514   0.13373   0.27975
  13         A7        -0.27673  -0.26158   0.11724   0.07564   0.01572
  14         A8        -0.13649   0.03359   0.12017  -0.02958   0.04059
  15         A9         0.07062  -0.03073  -0.05834  -0.01518  -0.02219
  16         D1         0.11039  -0.22524   0.18483  -0.14831   0.09635
  17         D2        -0.36820   0.30398   0.22959   0.09444   0.29226
  18         D3        -0.16451   0.17023   0.01415   0.05275  -0.06280
                          11        12        13        14        15
     Eigenvalues --     0.30772   0.34857   0.37094   0.50387   0.61913
   1         R1         0.54550  -0.28432   0.31909   0.15749  -0.07314
   2         R2         0.65300   0.14545  -0.61529   0.00702  -0.34897
   3         R3         0.20873  -0.36868   0.39935   0.01069  -0.17166
   4         R4         0.23021   0.83611   0.44347   0.15827   0.05714
   5         R5         0.02598  -0.02458   0.11539  -0.03538  -0.07647
   6         R6         0.22320   0.04186   0.07857  -0.92416   0.27242
   7         A1         0.03165  -0.03136  -0.04488   0.04174   0.07045
   8         A2         0.02134  -0.11446   0.05645   0.09562   0.11576
   9         A3         0.08640   0.01115  -0.00799  -0.00192   0.07496
  10         A4        -0.27239   0.19704  -0.11274  -0.17386  -0.42626
  11         A5         0.00528   0.00243   0.00589  -0.00321   0.02723
  12         A6         0.13337  -0.05959   0.09889   0.03818   0.14304
  13         A7        -0.09236  -0.02560   0.32703  -0.21883  -0.71354
  14         A8         0.06379  -0.04775   0.05297   0.05160   0.10233
  15         A9        -0.02943   0.01489  -0.00858  -0.01615  -0.06029
  16         D1        -0.04391  -0.01710   0.03562   0.00291  -0.05112
  17         D2         0.08769   0.01761   0.07060  -0.03072   0.03715
  18         D3         0.07033  -0.01722   0.00940   0.01772   0.07712
 DoSqrt=T IScMMF=    -3 MM Scaling Factor =       0.00000
 En-DIIS/RFO-DIIS/Sim-DIIS IScMMF=       -3 using points:    29   28   27   26   25
 Iter=   1 RLamda=-4.72807534D-02 Sum=-2.56128543D-07.
 Iter=   2 RLamda=-2.56128543D-07 Sum=-3.38075808D-07.
 Iter=   3 RLamda=-3.38075808D-07 Sum=-3.38075383D-07.
 RFO step:  Lambda=-3.38075808D-07.
 NNeg= 0 NGDIIS= 5 SimSw=  2.50D-01 Rises=F DC= -1.07D-06 SmlDif=  1.00D-05
 NRisDI= 0 DoIntr=F SqrtH=F CThrHd= 10.0 CDAdj=  3.0
 RMS Error=  0.5371206792D-03 NUsed= 5 OKEnD=F EnDIS=F
 Total RFO-DIIS matrix:
                 1             2             3             4             5 
      1   0.000000D+00 -0.100000D+01 -0.100000D+01 -0.100000D+01 -0.100000D+01
      2  -0.100000D+01  0.519298D-05  0.219731D-04  0.775048D-04  0.138599D-03
      3  -0.100000D+01  0.219731D-04  0.191087D-03  0.590033D-03  0.109191D-02
      4  -0.100000D+01  0.775048D-04  0.590033D-03  0.209684D-02  0.406922D-02
      5  -0.100000D+01  0.138599D-03  0.109191D-02  0.406922D-02  0.820604D-02
      6  -0.100000D+01  0.362659D-03  0.217589D-02  0.939748D-02  0.193742D-01
                 6 
      1  -0.100000D+01
      2   0.362659D-03
      3   0.217589D-02
      4   0.939748D-02
      5   0.193742D-01
      6   0.527394D-01
 InvSVX:  RCond= 3.89D-07 Info=           0 Equed=N FErr=  1.47D-13 BErr=  9.55D-17
 DidBck=F Rises=F RFO-DIIS coefs:    1.04452    0.04725   -0.15527    0.07103   -0.00753
 Iteration  1 RMS(Cart)=  0.00081055 RMS(Int)=  0.00000039
 Iteration  2 RMS(Cart)=  0.00000031 RMS(Int)=  0.00000013
 ITry= 1 IFail=0 DXMaxC= 1.67D-03 DCOld= 1.00D+10 DXMaxT= 3.08D-01 DXLimC= 3.00D+00 Rises=F
 Variable       Old X    -DE/DX   Delta X   Delta X   Delta X     New X
                                 (Linear)    (Quad)   (Total)
    R1        2.72475  -0.00012  -0.00006  -0.00037  -0.00043   2.72431
    R2        2.11119   0.00007   0.00014   0.00007   0.00021   2.11140
    R3        2.29754  -0.00013  -0.00007  -0.00068  -0.00074   2.29679
    R4        2.11253  -0.00001   0.00006  -0.00014  -0.00008   2.11245
    R5        6.14630   0.00007   0.00039   0.00059   0.00098   6.14728
    R6        1.86562   0.00007   0.00013  -0.00003   0.00009   1.86571
    A1        1.86097  -0.00003  -0.00010   0.00003  -0.00007   1.86091
    A2        2.04562  -0.00002  -0.00003  -0.00012  -0.00015   2.04547
    A3        1.85733   0.00001   0.00005   0.00006   0.00012   1.85744
    A4        1.91822  -0.00001  -0.00022  -0.00022  -0.00044   1.91778
    A5        1.85165  -0.00000   0.00010  -0.00003   0.00007   1.85173
    A6        1.91946   0.00005   0.00022   0.00027   0.00049   1.91995
    A7        0.94990   0.00010  -0.00005   0.00053   0.00049   0.95039
    A8        1.92006   0.00001   0.00083  -0.00032   0.00052   1.92058
    A9        3.23798  -0.00000   0.00143  -0.00007   0.00136   3.23934
    D1        2.38500   0.00001  -0.00020  -0.00007  -0.00027   2.38473
    D2        0.15109   0.00006   0.00006   0.00019   0.00025   0.15134
    D3       -1.92336   0.00001  -0.00014  -0.00000  -0.00014  -1.92350
         Item               Value     Threshold  Converged?
 Maximum Force            0.000127     0.000450     YES
 RMS     Force            0.000060     0.000300     YES
 Maximum Displacement     0.001667     0.001800     YES
 RMS     Displacement     0.000811     0.001200     YES
 Predicted change in Energy=-1.685624D-07
 Optimization completed.
    -- Stationary point found.
                           ----------------------------
                           !   Optimized Parameters   !
                           ! (Angstroms and Degrees)  !
 --------------------------                            --------------------------
 ! Name  Definition              Value          Derivative Info.                !
 --------------------------------------------------------------------------------
 ! R1    R(1,2)                  1.4419         -DE/DX =   -0.0001              !
 ! R2    R(2,3)                  1.1172         -DE/DX =    0.0001              !
 ! R3    R(2,4)                  1.2158         -DE/DX =   -0.0001              !
 ! R4    R(2,5)                  1.1179         -DE/DX =    0.0                 !
 ! R5    R(3,6)                  3.2525         -DE/DX =    0.0001              !
 ! R6    R(6,7)                  0.9872         -DE/DX =    0.0001              !
 ! A1    A(1,2,3)              106.6259         -DE/DX =    0.0                 !
 ! A2    A(1,2,4)              117.2053         -DE/DX =    0.0                 !
 ! A3    A(1,2,5)              106.417          -DE/DX =    0.0                 !
 ! A4    A(3,2,4)              109.9057         -DE/DX =    0.0                 !
 ! A5    A(3,2,5)              106.092          -DE/DX =    0.0                 !
 ! A6    A(4,2,5)              109.9768         -DE/DX =    0.0001              !
 ! A7    A(2,3,6)               54.4253         -DE/DX =    0.0001              !
 ! A8    L(3,6,7,5,-1)         110.0114         -DE/DX =    0.0                 !
 ! A9    L(3,6,7,5,-2)         185.5227         -DE/DX =    0.0                 !
 ! D1    D(1,2,3,6)            136.6505         -DE/DX =    0.0                 !
 ! D2    D(4,2,3,6)              8.6569         -DE/DX =    0.0001              !
 ! D3    D(5,2,3,6)           -110.2002         -DE/DX =    0.0                 !
 --------------------------------------------------------------------------------
 Lowest energy point so far.  Saving SCF results.
 Largest change from initial coordinates is atom    3       1.364 Angstoms.
 GradGradGradGradGradGradGradGradGradGradGradGradGradGradGradGradGradGrad

 Leave Link  103 at Wed Oct  7 13:25:12 2020, MaxMem=  2684354560 cpu:               2.8 elap:               0.8
 (Enter /udrive/faculty/rpeverati/g16/g16/l202.exe)
                          Input orientation:                          
 ---------------------------------------------------------------------
 Center     Atomic      Atomic             Coordinates (Angstroms)
 Number     Number       Type             X           Y           Z
 ---------------------------------------------------------------------
      1          9           0        1.513391    0.404611    0.560993
      2          6           0        0.382792   -0.010423   -0.231781
      3          1           0        0.641183   -1.010146   -0.658281
      4          1           0       -0.696688   -0.064370    0.324991
      5          1           0        0.330273    0.692452   -1.099489
      6          8           0       -2.227727   -0.189093    0.635494
      7          1           0       -2.396584    0.773212    0.493698
 ---------------------------------------------------------------------
                    Distance matrix (angstroms):
                    1          2          3          4          5
     1  F    0.000000
     2  C    1.441873   0.000000
     3  H    2.061289   1.117191   0.000000
     4  H    2.271583   1.215805   1.910816   0.000000
     5  H    2.059082   1.117903   1.786105   1.912216   0.000000
     6  O    3.788667   2.756610   3.252480   1.567179   3.214133
     7  H    3.927888   2.977471   3.706138   1.902539   3.159196
                    6          7
     6  O    0.000000
     7  H    0.987244   0.000000
 Stoichiometry    CH4FO(1-)
 Framework group  C1[X(CH4FO)]
 Deg. of freedom    15
 Full point group                 C1      NOp   1
 RotChk:  IX=0 Diff= 2.16D-15
 Largest Abelian subgroup         C1      NOp   1
 Largest concise Abelian subgroup C1      NOp   1
                         Standard orientation:                         
 ---------------------------------------------------------------------
 Center     Atomic      Atomic             Coordinates (Angstroms)
 Number     Number       Type             X           Y           Z
 ---------------------------------------------------------------------
      1          9           0        1.658364   -0.431116   -0.015697
      2          6           0        0.559178    0.501445    0.017754
      3          1           0        0.744314    1.243113   -0.796966
      4          1           0       -0.562045    0.043046   -0.086699
      5          1           0        0.653008    1.066097    0.977999
      6          8           0       -2.117997   -0.142224   -0.113854
      7          1           0       -2.171643   -0.343087    0.851250
 ---------------------------------------------------------------------
 Rotational constants (GHZ):          42.0138275           3.7095909           3.5279693
 Leave Link  202 at Wed Oct  7 13:25:13 2020, MaxMem=  2684354560 cpu:               1.3 elap:               0.5
 (Enter /udrive/faculty/rpeverati/g16/g16/l601.exe)
 Copying SCF densities to generalized density rwf, IOpCl= 0 IROHF=0.

 **********************************************************************

            Population analysis using the SCF density.

 **********************************************************************

 Orbital symmetries:
       Occupied  (A) (A) (A) (A) (A) (A) (A) (A) (A) (A) (A) (A)
                 (A) (A)
       Virtual   (A) (A) (A) (A) (A) (A) (A) (A) (A) (A) (A) (A)
                 (A) (A) (A) (A) (A) (A) (A) (A) (A) (A) (A) (A)
                 (A) (A) (A) (A) (A) (A) (A) (A) (A) (A) (A) (A)
 The electronic state is 1-A.
 Alpha  occ. eigenvalues --  -24.05402 -18.41136  -9.73526  -0.84963  -0.50369
 Alpha  occ. eigenvalues --   -0.39505  -0.20410  -0.19233  -0.16818  -0.07201
 Alpha  occ. eigenvalues --   -0.06731  -0.03122   0.11242   0.11788
 Alpha virt. eigenvalues --    0.27086   0.28348   0.31908   0.33390   0.47727
 Alpha virt. eigenvalues --    0.68153   0.72251   0.75637   0.98326   0.99536
 Alpha virt. eigenvalues --    1.04653   1.07617   1.12794   1.19571   1.28767
 Alpha virt. eigenvalues --    1.33848   1.37960   1.38794   1.40783   1.66332
 Alpha virt. eigenvalues --    1.67643   1.70503   1.95990   1.96977   2.02117
 Alpha virt. eigenvalues --    2.03667   2.03757   2.09183   2.12305   2.17131
 Alpha virt. eigenvalues --    2.33920   2.35633   2.48541   2.54106   2.68735
 Alpha virt. eigenvalues --    3.08932
          Condensed to atoms (all electrons):
               1          2          3          4          5          6
     1  F    9.269960   0.189628  -0.033596  -0.006473  -0.034893   0.000347
     2  C    0.189628   5.504913   0.281412   0.055260   0.288204  -0.107745
     3  H   -0.033596   0.281412   0.760535  -0.008302  -0.052792   0.003746
     4  H   -0.006473   0.055260  -0.008302   0.571138  -0.012904   0.202619
     5  H   -0.034893   0.288204  -0.052792  -0.012904   0.765012   0.003625
     6  O    0.000347  -0.107745   0.003746   0.202619   0.003625   8.688386
     7  H   -0.000152   0.022263  -0.000119  -0.047761  -0.001260   0.157003
               7
     1  F   -0.000152
     2  C    0.022263
     3  H   -0.000119
     4  H   -0.047761
     5  H   -0.001260
     6  O    0.157003
     7  H    0.643838
 Mulliken charges:
               1
     1  F   -0.384821
     2  C   -0.233934
     3  H    0.049116
     4  H    0.246423
     5  H    0.045008
     6  O   -0.947981
     7  H    0.226189
 Sum of Mulliken charges =  -1.00000
 Mulliken charges with hydrogens summed into heavy atoms:
               1
     1  F   -0.384821
     2  C    0.106613
     6  O   -0.721792
 Electronic spatial extent (au):  <R**2>=            335.7383
 Charge=             -1.0000 electrons
 Dipole moment (field-independent basis, Debye):
    X=              4.8837    Y=              0.7577    Z=              1.2884  Tot=              5.1073
 Quadrupole moment (field-independent basis, Debye-Ang):
   XX=            -40.7024   YY=            -21.1203   ZZ=            -19.4125
   XY=              0.0021   XZ=             -2.9059   YZ=             -0.5562
 Traceless Quadrupole moment (field-independent basis, Debye-Ang):
   XX=            -13.6240   YY=              5.9581   ZZ=              7.6659
   XY=              0.0021   XZ=             -2.9059   YZ=             -0.5562
 Octapole moment (field-independent basis, Debye-Ang**2):
  XXX=             38.6573  YYY=             -5.2237  ZZZ=              0.1700  XYY=              3.1474
  XXY=              0.9554  XXZ=              6.3229  XZZ=              1.4196  YZZ=             -1.9757
  YYZ=              0.1108  XYZ=              0.9931
 Hexadecapole moment (field-independent basis, Debye-Ang**3):
 XXXX=           -397.5920 YYYY=            -47.1045 ZZZZ=            -28.2029 XXXY=             -7.6506
 XXXZ=            -14.4953 YYYX=             -7.6788 YYYZ=             -0.2753 ZZZX=             -1.2743
 ZZZY=             -0.3591 XXYY=            -61.6783 XXZZ=            -52.4317 YYZZ=            -12.5785
 XXYZ=             -2.3587 YYXZ=             -0.6461 ZZXY=             -1.8762
 N-N= 6.742840942013D+01 E-N=-6.524681043484D+02  KE= 2.143074631353D+02
 No NMR shielding tensors so no spin-rotation constants.
 Leave Link  601 at Wed Oct  7 13:25:14 2020, MaxMem=  2684354560 cpu:               3.4 elap:               0.7
 (Enter /udrive/faculty/rpeverati/g16/g16/l9999.exe)

 Test job not archived.
 1\1\GINC-NODE06\FOpt\RBP86\6-31G(d)\C1H4F1O1(1-)\RPEVERATI\07-Oct-2020
 \0\\#P Opt(MaxCyc=100) BP86/6-31G* 5D 7F Integral=UltraFineGrid SCF=(N
 oSymm,XQC,MaxCyc=120) IOp(1/33=1)\\TS search on BH76.\\-1,1\F,1.513391
 3652,0.4046105377,0.5609927599\C,0.3827921042,-0.0104226115,-0.2317814
 825\H,0.6411834736,-1.0101463612,-0.6582812703\H,-0.6966878702,-0.0643
 698367,0.3249905103\H,0.3302733312,0.6924523486,-1.0994888848\O,-2.227
 7269149,-0.1890932562,0.6354937142\H,-2.3965840678,0.7732121931,0.4936
 981177\\Version=ES64L-G16RevA.03\State=1-A\HF=-215.4911049\RMSD=7.316e
 -09\RMSF=6.704e-05\Dipole=1.8272029,0.5694976,-0.6119952\Quadrupole=-9
 .3017776,5.2086516,4.0931259,-3.6453087,1.904091,0.2714993\PG=C01 [X(C
 1H4F1O1)]\\@


 AND HERE I AM, FOR ALL MY LORE,
 THE WRETCHED FOOL I WAS BEFORE.
 CALLED MASTER OF ARTS, AND DOCTOR TO BOOT,
 FOR TEN YEARS ALMOST I CONFUTE
 AND UP AND DOWN, WHEREVER IT GOES
 I DRAG MY STUDENTS BY THE NOSE --
 AND SEE THAT FOR ALL OUR SCIENCE AND ART
 WE CAN KNOW NOTHING.  IT BURNS MY HEART.

                                       -- FAUST
 Job cpu time:       0 days  0 hours 32 minutes 38.4 seconds.
 Elapsed time:       0 days  0 hours  5 minutes 23.4 seconds.
 File lengths (MBytes):  RWF=      5 Int=      0 D2E=      0 Chk=      1 Scr=      1
 Normal termination of Gaussian 16 at Wed Oct  7 13:25:15 2020.
