 Entering Gaussian System, Link 0=g16
 Input=MN_77_PH3_BH76_BP86_631Gs.in
 Output=MN_77_PH3_BH76_BP86_631Gs.log
 Initial command:
 /udrive/faculty/rpeverati/g16/g16/l1.exe "/udrive/scratch-directories/gaussian09/rpeverati/Gau-38211.inp" -scrdir="/udrive/scratch-directories/gaussian09/rpeverati/"
 Entering Link 1 = /udrive/faculty/rpeverati/g16/g16/l1.exe PID=     38212.
  
 Copyright (c) 1988,1990,1992,1993,1995,1998,2003,2009,2016,
            Gaussian, Inc.  All Rights Reserved.
  
 This is part of the Gaussian(R) 16 program.  It is based on
 the Gaussian(R) 09 system (copyright 2009, Gaussian, Inc.),
 the Gaussian(R) 03 system (copyright 2003, Gaussian, Inc.),
 the Gaussian(R) 98 system (copyright 1998, Gaussian, Inc.),
 the Gaussian(R) 94 system (copyright 1995, Gaussian, Inc.),
 the Gaussian 92(TM) system (copyright 1992, Gaussian, Inc.),
 the Gaussian 90(TM) system (copyright 1990, Gaussian, Inc.),
 the Gaussian 88(TM) system (copyright 1988, Gaussian, Inc.),
 the Gaussian 86(TM) system (copyright 1986, Carnegie Mellon
 University), and the Gaussian 82(TM) system (copyright 1983,
 Carnegie Mellon University). Gaussian is a federally registered
 trademark of Gaussian, Inc.
  
 This software contains proprietary and confidential information,
 including trade secrets, belonging to Gaussian, Inc.
  
 This software is provided under written license and may be
 used, copied, transmitted, or stored only in accord with that
 written license.
  
 The following legend is applicable only to US Government
 contracts under FAR:
  
                    RESTRICTED RIGHTS LEGEND
  
 Use, reproduction and disclosure by the US Government is
 subject to restrictions as set forth in subparagraphs (a)
 and (c) of the Commercial Computer Software - Restricted
 Rights clause in FAR 52.227-19.
  
 Gaussian, Inc.
 340 Quinnipiac St., Bldg. 40, Wallingford CT 06492
  
  
 ---------------------------------------------------------------
 Warning -- This program may not be used in any manner that
 competes with the business of Gaussian, Inc. or will provide
 assistance to any competitor of Gaussian, Inc.  The licensee
 of this program is prohibited from giving any competitor of
 Gaussian, Inc. access to this program.  By using this program,
 the user acknowledges that Gaussian, Inc. is engaged in the
 business of creating and licensing software in the field of
 computational chemistry and represents and warrants to the
 licensee that it is not a competitor of Gaussian, Inc. and that
 it will not use this program in any manner prohibited above.
 ---------------------------------------------------------------
  

 Cite this work as:
 Gaussian 16, Revision A.03,
 M. J. Frisch, G. W. Trucks, H. B. Schlegel, G. E. Scuseria, 
 M. A. Robb, J. R. Cheeseman, G. Scalmani, V. Barone, 
 G. A. Petersson, H. Nakatsuji, X. Li, M. Caricato, A. V. Marenich, 
 J. Bloino, B. G. Janesko, R. Gomperts, B. Mennucci, H. P. Hratchian, 
 J. V. Ortiz, A. F. Izmaylov, J. L. Sonnenberg, D. Williams-Young, 
 F. Ding, F. Lipparini, F. Egidi, J. Goings, B. Peng, A. Petrone, 
 T. Henderson, D. Ranasinghe, V. G. Zakrzewski, J. Gao, N. Rega, 
 G. Zheng, W. Liang, M. Hada, M. Ehara, K. Toyota, R. Fukuda, 
 J. Hasegawa, M. Ishida, T. Nakajima, Y. Honda, O. Kitao, H. Nakai, 
 T. Vreven, K. Throssell, J. A. Montgomery, Jr., J. E. Peralta, 
 F. Ogliaro, M. J. Bearpark, J. J. Heyd, E. N. Brothers, K. N. Kudin, 
 V. N. Staroverov, T. A. Keith, R. Kobayashi, J. Normand, 
 K. Raghavachari, A. P. Rendell, J. C. Burant, S. S. Iyengar, 
 J. Tomasi, M. Cossi, J. M. Millam, M. Klene, C. Adamo, R. Cammi, 
 J. W. Ochterski, R. L. Martin, K. Morokuma, O. Farkas, 
 J. B. Foresman, and D. J. Fox, Gaussian, Inc., Wallingford CT, 2016.
 
 ******************************************
 Gaussian 16:  ES64L-G16RevA.03 25-Dec-2016
                 7-Oct-2020 
 ******************************************
 %NoSave
 %nproc=12
 Will use up to   12 processors via shared memory.
 %mem=20GB
 %chk=MN_77_PH3_BH76_BP86_631Gs
 ----------------------------------------------------------------------
 #P Opt(MaxCyc=100) BP86/6-31G* 5D 7F Integral=UltraFineGrid SCF=(NoSym
 m,XQC,MaxCyc=120) IOp(1/33=1)
 ----------------------------------------------------------------------
 1/6=100,18=20,19=15,26=4,33=1,38=1/1,3;
 2/9=110,12=2,17=6,18=5,40=1/2;
 3/5=1,6=6,7=1,8=11,11=2,25=1,30=1,71=1,74=404,75=-5/1,2,3;
 4/9=2/1;
 5/5=2,7=120,8=3,13=1,38=5/2,8;
 6/7=2,8=2,9=2,10=2,28=1/1;
 7//1,2,3,16;
 1/6=100,18=20,19=15,26=4,33=1/3(2);
 2/9=110/2;
 99//99;
 2/9=110/2;
 3/5=1,6=6,7=1,8=11,11=2,25=1,30=1,71=1,74=404,75=-5/1,2,3;
 4/5=5,9=2,16=3,69=1/1;
 5/5=2,7=120,8=3,13=1,38=5/2,8;
 7//1,2,3,16;
 1/6=100,18=20,19=15,26=4,33=1/3(-5);
 2/9=110/2;
 6/7=2,8=2,9=2,10=2,19=2,28=1/1;
 99/9=1/99;
 Leave Link    1 at Wed Oct  7 13:18:56 2020, MaxMem=  2684354560 cpu:               9.4 elap:               1.0
 (Enter /udrive/faculty/rpeverati/g16/g16/l101.exe)
 ONIOM data not found on unit 2.
 ------------------
 TS search on BH76.
 ------------------
 TstMul:  ICh=     0
 TstMul:  Mul=     1
 TstMul:  ICh=     0
 TstMul:  Mul=     1
 Symbolic Z-matrix:
 Charge =  0 Multiplicity = 1
 P                     0.        0.        0.56885 
 H                     0.59567   1.03173  -0.18962 
 H                     0.59567  -1.03173  -0.18962 
 H                    -1.19134   0.       -0.18962 
 
 RdStrC is calling ZToCFu for IStruc=1 NZ=     4.
 PrtBox:  NBox=     1 Levels=  1 BoxLen=    8.00 SMaxX=        3.90
          Shift=            2.251310            1.949692            0.358323
 Box      1 Number                   0 centers from      1 to      4:
 After GenITR:
 ITRead=  0  0  0  0
 MicOpt= -1 -1 -1 -1
 ITRead=  0  0  0  0
 MicOpt= -1 -1 -1 -1
 NAtoms=      4 NQM=        4 NQMF=       0 NMMI=      0 NMMIF=      0
                NMic=       0 NMicF=      0.
                    Isotopes and Nuclear Properties:
 (Nuclear quadrupole moments (NQMom) in fm**2, nuclear magnetic moments (NMagM)
  in nuclear magnetons)

  Atom         1           2           3           4
 IAtWgt=          31           1           1           1
 AtmWgt=  30.9737634   1.0078250   1.0078250   1.0078250
 NucSpn=           1           1           1           1
 AtZEff=   0.0000000   0.0000000   0.0000000   0.0000000
 NQMom=    0.0000000   0.0000000   0.0000000   0.0000000
 NMagM=    1.1316000   2.7928460   2.7928460   2.7928460
 AtZNuc=  15.0000000   1.0000000   1.0000000   1.0000000
 No MM parameters found.
 Leave Link  101 at Wed Oct  7 13:18:58 2020, MaxMem=  2684354560 cpu:              13.7 elap:               1.3
 (Enter /udrive/faculty/rpeverati/g16/g16/l103.exe)

 GradGradGradGradGradGradGradGradGradGradGradGradGradGradGradGradGradGrad
 Berny optimization.
 Optmz: redundant internal coordinate code flag= 1
 Initialization pass.
                           ----------------------------
                           !    Initial Parameters    !
                           ! (Angstroms and Degrees)  !
 --------------------------                            --------------------------
 ! Name  Definition              Value          Derivative Info.                !
 --------------------------------------------------------------------------------
 ! R1    R(1,2)                  1.4123         estimate D2E/DX2                !
 ! R2    R(1,3)                  1.4123         estimate D2E/DX2                !
 ! R3    R(1,4)                  1.4123         estimate D2E/DX2                !
 ! A1    A(2,1,3)               93.8631         estimate D2E/DX2                !
 ! A2    A(2,1,4)               93.8631         estimate D2E/DX2                !
 ! A3    A(3,1,4)               93.8631         estimate D2E/DX2                !
 ! D1    D(2,1,4,3)             94.1426         estimate D2E/DX2                !
 --------------------------------------------------------------------------------
 Maximum allowed force set to 1.00D+20.
 Trust Radius=3.00D-01 FncErr=1.00D-07 GrdErr=1.00D-06 EigMax=2.50D+02 EigMin=1.00D-04
 Number of steps in this run=    100 maximum allowed number of steps=    100.
 GradGradGradGradGradGradGradGradGradGradGradGradGradGradGradGradGradGrad

 Leave Link  103 at Wed Oct  7 13:18:59 2020, MaxMem=  2684354560 cpu:               1.0 elap:               0.5
 (Enter /udrive/faculty/rpeverati/g16/g16/l202.exe)
                          Input orientation:                          
 ---------------------------------------------------------------------
 Center     Atomic      Atomic             Coordinates (Angstroms)
 Number     Number       Type             X           Y           Z
 ---------------------------------------------------------------------
      1         15           0        0.000000    0.000000    0.568849
      2          1           0        0.595671    1.031732   -0.189616
      3          1           0        0.595671   -1.031732   -0.189616
      4          1           0       -1.191342    0.000000   -0.189616
 ---------------------------------------------------------------------
                    Distance matrix (angstroms):
                    1          2          3          4
     1  P    0.000000
     2  H    1.412291   0.000000
     3  H    1.412291   2.063465   0.000000
     4  H    1.412291   2.063465   2.063465   0.000000
 Stoichiometry    H3P
 Framework group  C3V[C3(P),3SGV(H)]
 Deg. of freedom     2
 Full point group                 C3V     NOp   6
 Largest Abelian subgroup         CS      NOp   2
 Largest concise Abelian subgroup CS      NOp   2
                         Standard orientation:                         
 ---------------------------------------------------------------------
 Center     Atomic      Atomic             Coordinates (Angstroms)
 Number     Number       Type             X           Y           Z
 ---------------------------------------------------------------------
      1         15           0        0.000000    0.000000    0.126411
      2          1           0        0.000000    1.191342   -0.632055
      3          1           0        1.031732   -0.595671   -0.632055
      4          1           0       -1.031732   -0.595671   -0.632055
 ---------------------------------------------------------------------
 Rotational constants (GHZ):         135.4818423         135.4818423         117.7708841
 Leave Link  202 at Wed Oct  7 13:19:00 2020, MaxMem=  2684354560 cpu:               2.1 elap:               0.6
 (Enter /udrive/faculty/rpeverati/g16/g16/l301.exe)
 Standard basis: 6-31G(d) (5D, 7F)
 Ernie: Thresh=  0.10000D-02 Tol=  0.10000D-05 Strict=F.
 There are    18 symmetry adapted cartesian basis functions of A'  symmetry.
 There are     7 symmetry adapted cartesian basis functions of A"  symmetry.
 There are    17 symmetry adapted basis functions of A'  symmetry.
 There are     7 symmetry adapted basis functions of A"  symmetry.
    24 basis functions,    64 primitive gaussians,    25 cartesian basis functions
     9 alpha electrons        9 beta electrons
       nuclear repulsion energy        17.6305918881 Hartrees.
 IExCor=  404 DFT=T Ex=B Corr=P86 ExCW=0 ScaHFX=  0.000000
 ScaDFX=  1.000000  1.000000  1.000000  1.000000 ScalE2=  1.000000  1.000000
 IRadAn=      5 IRanWt=     -1 IRanGd=            0 ICorTp=0 IEmpDi=  4
 NAtoms=    4 NActive=    4 NUniq=    2 SFac= 4.00D+00 NAtFMM=   60 NAOKFM=F Big=F
 Integral buffers will be    131072 words long.
 Raffenetti 2 integral format.
 Two-electron integral symmetry is turned on.
 Leave Link  301 at Wed Oct  7 13:19:01 2020, MaxMem=  2684354560 cpu:               2.9 elap:               0.6
 (Enter /udrive/faculty/rpeverati/g16/g16/l302.exe)
 NPDir=0 NMtPBC=     1 NCelOv=     1 NCel=       1 NClECP=     1 NCelD=      1
         NCelK=      1 NCelE2=     1 NClLst=     1 CellRange=     0.0.
 One-electron integrals computed using PRISM.
 One-electron integral symmetry used in STVInt
 NBasis=    24 RedAO= T EigKep=  1.43D-02  NBF=    17     7
 NBsUse=    24 1.00D-06 EigRej= -1.00D+00 NBFU=    17     7
 Precomputing XC quadrature grid using
 IXCGrd= 4 IRadAn=           5 IRanWt=          -1 IRanGd=           0 AccXCQ= 0.00D+00.
 Generated NRdTot=       0 NPtTot=           0 NUsed=           0 NTot=          32
 NSgBfM=    25    25    25    25    25 MxSgAt=     4 MxSgA2=     4.
 Leave Link  302 at Wed Oct  7 13:19:02 2020, MaxMem=  2684354560 cpu:               3.6 elap:               0.6
 (Enter /udrive/faculty/rpeverati/g16/g16/l303.exe)
 DipDrv:  MaxL=1.
 Leave Link  303 at Wed Oct  7 13:19:03 2020, MaxMem=  2684354560 cpu:               1.8 elap:               0.7
 (Enter /udrive/faculty/rpeverati/g16/g16/l401.exe)
 SCF N**3 symmetry information disabled.
 ExpMin= 9.98D-02 ExpMax= 1.94D+04 ExpMxC= 2.91D+03 IAcc=3 IRadAn=         5 AccDes= 0.00D+00
 Harris functional with IExCor=  404 and IRadAn=       5 diagonalized for initial guess.
 HarFok:  IExCor=  404 AccDes= 0.00D+00 IRadAn=         5 IDoV= 1 UseB2=F ITyADJ=14
 ICtDFT=  3500011 ScaDFX=  1.000000  1.000000  1.000000  1.000000
 FoFCou: FMM=F IPFlag=           0 FMFlag=      100000 FMFlg1=           0
         NFxFlg=           0 DoJE=T BraDBF=F KetDBF=T FulRan=T
         wScrn=  0.000000 ICntrl=       500 IOpCl=  0 I1Cent=   200000004 NGrid=           0
         NMat0=    1 NMatS0=      1 NMatT0=    0 NMatD0=    1 NMtDS0=    0 NMtDT0=    0
 Petite list used in FoFCou.
 Harris En= -343.134182194030    
 JPrj=0 DoOrth=F DoCkMO=F.
 Initial guess orbital symmetries:
       Occupied  (A1) (A1) (E) (E) (A1) (A1) (E) (E) (A1)
       Virtual   (E) (E) (A1) (E) (E) (A1) (A1) (E) (E) (A1) (E)
                 (E) (A1) (E) (E)
 The electronic state of the initial guess is 1-A1.
 Leave Link  401 at Wed Oct  7 13:19:04 2020, MaxMem=  2684354560 cpu:               3.9 elap:               0.8
 (Enter /udrive/faculty/rpeverati/g16/g16/l502.exe)
 Keep J ints in memory in symmetry-blocked form, NReq=10390965.
 FoFCou: FMM=F IPFlag=           0 FMFlag=           0 FMFlg1=           0
         NFxFlg=           0 DoJE=F BraDBF=F KetDBF=F FulRan=T
         wScrn=  0.000000 ICntrl=       600 IOpCl=  0 I1Cent=           0 NGrid=           0
         NMat0=    1 NMatS0=    300 NMatT0=    0 NMatD0=    1 NMtDS0=    0 NMtDT0=    0
 Petite list used in FoFCou.
 Closed shell SCF:
 Using DIIS extrapolation, IDIIS=  1040.
 NGot=  2684354560 LenX=  2684327934 LenY=  2684326868
 Requested convergence on RMS density matrix=1.00D-08 within 120 cycles.
 Requested convergence on MAX density matrix=1.00D-06.
 Requested convergence on             energy=1.00D-06.
 No special actions if energy rises.
 Integral accuracy reduced to 1.0D-05 until final iterations.

 Cycle   1  Pass 0  IDiag  1:
 E= -343.147239177372    
 DIIS: error= 8.22D-03 at cycle   1 NSaved=   1.
 NSaved= 1 IEnMin= 1 EnMin= -343.147239177372     IErMin= 1 ErrMin= 8.22D-03
 ErrMax= 8.22D-03  0.00D+00 EMaxC= 1.00D-01 BMatC= 2.69D-03 BMatP= 2.69D-03
 IDIUse=3 WtCom= 9.18D-01 WtEn= 8.22D-02
 Coeff-Com:  0.100D+01
 Coeff-En:   0.100D+01
 Coeff:      0.100D+01
 Gap=     0.248 Goal=   None    Shift=    0.000
 GapD=    0.248 DampG=1.000 DampE=1.000 DampFc=1.0000 IDamp=-1.
 RMSDP=5.00D-03 MaxDP=4.84D-02              OVMax= 3.78D-02

 Cycle   2  Pass 0  IDiag  1:
 E= -343.150585394918     Delta-E=       -0.003346217546 Rises=F Damp=F
 DIIS: error= 4.13D-03 at cycle   2 NSaved=   2.
 NSaved= 2 IEnMin= 2 EnMin= -343.150585394918     IErMin= 2 ErrMin= 4.13D-03
 ErrMax= 4.13D-03  0.00D+00 EMaxC= 1.00D-01 BMatC= 5.44D-04 BMatP= 2.69D-03
 IDIUse=3 WtCom= 9.59D-01 WtEn= 4.13D-02
 Coeff-Com:  0.290D+00 0.710D+00
 Coeff-En:   0.000D+00 0.100D+01
 Coeff:      0.278D+00 0.722D+00
 Gap=     0.247 Goal=   None    Shift=    0.000
 RMSDP=1.88D-03 MaxDP=1.80D-02 DE=-3.35D-03 OVMax= 1.47D-02

 Cycle   3  Pass 0  IDiag  1:
 E= -343.151514939312     Delta-E=       -0.000929544394 Rises=F Damp=F
 DIIS: error= 1.11D-03 at cycle   3 NSaved=   3.
 NSaved= 3 IEnMin= 3 EnMin= -343.151514939312     IErMin= 3 ErrMin= 1.11D-03
 ErrMax= 1.11D-03  0.00D+00 EMaxC= 1.00D-01 BMatC= 2.30D-05 BMatP= 5.44D-04
 IDIUse=3 WtCom= 9.89D-01 WtEn= 1.11D-02
 Coeff-Com:  0.453D-01 0.213D+00 0.742D+00
 Coeff-En:   0.000D+00 0.000D+00 0.100D+01
 Coeff:      0.448D-01 0.211D+00 0.744D+00
 Gap=     0.248 Goal=   None    Shift=    0.000
 RMSDP=2.90D-04 MaxDP=2.05D-03 DE=-9.30D-04 OVMax= 1.99D-03

 Cycle   4  Pass 0  IDiag  1:
 E= -343.151548624151     Delta-E=       -0.000033684839 Rises=F Damp=F
 DIIS: error= 8.08D-05 at cycle   4 NSaved=   4.
 NSaved= 4 IEnMin= 4 EnMin= -343.151548624151     IErMin= 4 ErrMin= 8.08D-05
 ErrMax= 8.08D-05  0.00D+00 EMaxC= 1.00D-01 BMatC= 3.13D-07 BMatP= 2.30D-05
 IDIUse=1 WtCom= 1.00D+00 WtEn= 0.00D+00
 Coeff-Com:  0.165D-01 0.770D-01 0.268D+00 0.639D+00
 Coeff:      0.165D-01 0.770D-01 0.268D+00 0.639D+00
 Gap=     0.247 Goal=   None    Shift=    0.000
 RMSDP=5.03D-05 MaxDP=4.38D-04 DE=-3.37D-05 OVMax= 3.44D-04

 Cycle   5  Pass 0  IDiag  1:
 E= -343.151549034651     Delta-E=       -0.000000410500 Rises=F Damp=F
 DIIS: error= 3.96D-05 at cycle   5 NSaved=   5.
 NSaved= 5 IEnMin= 5 EnMin= -343.151549034651     IErMin= 5 ErrMin= 3.96D-05
 ErrMax= 3.96D-05  0.00D+00 EMaxC= 1.00D-01 BMatC= 3.88D-08 BMatP= 3.13D-07
 IDIUse=1 WtCom= 1.00D+00 WtEn= 0.00D+00
 Coeff-Com:  0.343D-02 0.182D-01 0.653D-01 0.305D+00 0.608D+00
 Coeff:      0.343D-02 0.182D-01 0.653D-01 0.305D+00 0.608D+00
 Gap=     0.247 Goal=   None    Shift=    0.000
 RMSDP=1.18D-05 MaxDP=1.01D-04 DE=-4.10D-07 OVMax= 1.07D-04

 Cycle   6  Pass 0  IDiag  1:
 E= -343.151549097388     Delta-E=       -0.000000062738 Rises=F Damp=F
 DIIS: error= 6.59D-07 at cycle   6 NSaved=   6.
 NSaved= 6 IEnMin= 6 EnMin= -343.151549097388     IErMin= 6 ErrMin= 6.59D-07
 ErrMax= 6.59D-07  0.00D+00 EMaxC= 1.00D-01 BMatC= 1.19D-11 BMatP= 3.88D-08
 IDIUse=1 WtCom= 1.00D+00 WtEn= 0.00D+00
 Coeff-Com: -0.217D-04 0.758D-04-0.155D-03 0.233D-02 0.119D-01 0.986D+00
 Coeff:     -0.217D-04 0.758D-04-0.155D-03 0.233D-02 0.119D-01 0.986D+00
 Gap=     0.247 Goal=   None    Shift=    0.000
 RMSDP=4.43D-07 MaxDP=3.62D-06 DE=-6.27D-08 OVMax= 1.38D-06

 Initial convergence to 1.0D-05 achieved.  Increase integral accuracy.
 Cycle   7  Pass 1  IDiag  1:
 E= -343.151546146608     Delta-E=        0.000002950780 Rises=F Damp=F
 DIIS: error= 4.35D-07 at cycle   1 NSaved=   1.
 NSaved= 1 IEnMin= 1 EnMin= -343.151546146608     IErMin= 1 ErrMin= 4.35D-07
 ErrMax= 4.35D-07  0.00D+00 EMaxC= 1.00D-01 BMatC= 8.07D-12 BMatP= 8.07D-12
 IDIUse=1 WtCom= 1.00D+00 WtEn= 0.00D+00
 Coeff-Com:  0.100D+01
 Coeff:      0.100D+01
 Gap=     0.247 Goal=   None    Shift=    0.000
 RMSDP=4.43D-07 MaxDP=3.62D-06 DE= 2.95D-06 OVMax= 1.59D-06

 Cycle   8  Pass 1  IDiag  1:
 E= -343.151546146617     Delta-E=       -0.000000000009 Rises=F Damp=F
 DIIS: error= 1.89D-07 at cycle   2 NSaved=   2.
 NSaved= 2 IEnMin= 2 EnMin= -343.151546146617     IErMin= 2 ErrMin= 1.89D-07
 ErrMax= 1.89D-07  0.00D+00 EMaxC= 1.00D-01 BMatC= 1.53D-12 BMatP= 8.07D-12
 IDIUse=1 WtCom= 1.00D+00 WtEn= 0.00D+00
 Coeff-Com:  0.237D+00 0.763D+00
 Coeff:      0.237D+00 0.763D+00
 Gap=     0.247 Goal=   None    Shift=    0.000
 RMSDP=1.32D-07 MaxDP=1.16D-06 DE=-8.92D-12 OVMax= 9.26D-07

 Cycle   9  Pass 1  IDiag  1:
 E= -343.151546146618     Delta-E=       -0.000000000001 Rises=F Damp=F
 DIIS: error= 1.33D-07 at cycle   3 NSaved=   3.
 NSaved= 3 IEnMin= 3 EnMin= -343.151546146618     IErMin= 3 ErrMin= 1.33D-07
 ErrMax= 1.33D-07  0.00D+00 EMaxC= 1.00D-01 BMatC= 5.75D-13 BMatP= 1.53D-12
 IDIUse=1 WtCom= 1.00D+00 WtEn= 0.00D+00
 Coeff-Com:  0.462D-02 0.380D+00 0.616D+00
 Coeff:      0.462D-02 0.380D+00 0.616D+00
 Gap=     0.247 Goal=   None    Shift=    0.000
 RMSDP=4.86D-08 MaxDP=4.39D-07 DE=-6.82D-13 OVMax= 3.94D-07

 Cycle  10  Pass 1  IDiag  1:
 E= -343.151546146619     Delta-E=       -0.000000000001 Rises=F Damp=F
 DIIS: error= 7.39D-09 at cycle   4 NSaved=   4.
 NSaved= 4 IEnMin= 4 EnMin= -343.151546146619     IErMin= 4 ErrMin= 7.39D-09
 ErrMax= 7.39D-09  0.00D+00 EMaxC= 1.00D-01 BMatC= 1.46D-15 BMatP= 5.75D-13
 IDIUse=1 WtCom= 1.00D+00 WtEn= 0.00D+00
 Coeff-Com: -0.105D-03 0.101D+00 0.182D+00 0.717D+00
 Coeff:     -0.105D-03 0.101D+00 0.182D+00 0.717D+00
 Gap=     0.247 Goal=   None    Shift=    0.000
 RMSDP=2.71D-09 MaxDP=1.89D-08 DE=-9.09D-13 OVMax= 2.67D-08

 SCF Done:  E(RB-P86) =  -343.151546147     A.U. after   10 cycles
            NFock= 10  Conv=0.27D-08     -V/T= 2.0022
 KE= 3.423911936331D+02 PE=-8.510994819509D+02 EE= 1.479261502831D+02
 Leave Link  502 at Wed Oct  7 13:19:06 2020, MaxMem=  2684354560 cpu:               9.6 elap:               1.2
 (Enter /udrive/faculty/rpeverati/g16/g16/l508.exe)
 QCSCF skips out because SCF is already converged.
 Leave Link  508 at Wed Oct  7 13:19:07 2020, MaxMem=  2684354560 cpu:               0.7 elap:               0.7
 (Enter /udrive/faculty/rpeverati/g16/g16/l601.exe)
 Copying SCF densities to generalized density rwf, IOpCl= 0 IROHF=0.

 **********************************************************************

            Population analysis using the SCF density.

 **********************************************************************

 Orbital symmetries:
       Occupied  (A1) (A1) (E) (E) (A1) (A1) (E) (E) (A1)
       Virtual   (E) (E) (A1) (E) (E) (A1) (A1) (E) (E) (A1) (E)
                 (E) (A1) (E) (E)
 The electronic state is 1-A1.
 Alpha  occ. eigenvalues --  -76.34525  -6.30980  -4.52680  -4.52680  -4.52184
 Alpha  occ. eigenvalues --   -0.59406  -0.35285  -0.35285  -0.24183
 Alpha virt. eigenvalues --    0.00562   0.00562   0.08791   0.25369   0.25369
 Alpha virt. eigenvalues --    0.27282   0.34902   0.60528   0.60528   0.63200
 Alpha virt. eigenvalues --    0.63491   0.63491   0.89226   1.09531   1.09531
          Condensed to atoms (all electrons):
               1          2          3          4
     1  P   14.173370   0.327050   0.327050   0.327050
     2  H    0.327050   0.668356  -0.023457  -0.023457
     3  H    0.327050  -0.023457   0.668356  -0.023457
     4  H    0.327050  -0.023457  -0.023457   0.668356
 Mulliken charges:
               1
     1  P   -0.154520
     2  H    0.051507
     3  H    0.051507
     4  H    0.051507
 Sum of Mulliken charges =  -0.00000
 Mulliken charges with hydrogens summed into heavy atoms:
               1
     1  P   -0.000000
 Electronic spatial extent (au):  <R**2>=             54.5574
 Charge=             -0.0000 electrons
 Dipole moment (field-independent basis, Debye):
    X=              0.0000    Y=             -0.0000    Z=             -1.0925  Tot=              1.0925
 Quadrupole moment (field-independent basis, Debye-Ang):
   XX=            -14.5087   YY=            -14.5087   ZZ=            -17.0048
   XY=             -0.0000   XZ=             -0.0000   YZ=              0.0000
 Traceless Quadrupole moment (field-independent basis, Debye-Ang):
   XX=              0.8321   YY=              0.8321   ZZ=             -1.6641
   XY=             -0.0000   XZ=             -0.0000   YZ=              0.0000
 Octapole moment (field-independent basis, Debye-Ang**2):
  XXX=              0.0000  YYY=             -0.0003  ZZZ=             -2.2566  XYY=              0.0000
  XXY=              0.0003  XXZ=             -0.4827  XZZ=              0.0000  YZZ=              0.0000
  YYZ=             -0.4827  XYZ=              0.0000
 Hexadecapole moment (field-independent basis, Debye-Ang**3):
 XXXX=            -29.5326 YYYY=            -29.5326 ZZZZ=            -34.4492 XXXY=              0.0000
 XXXZ=             -0.0000 YYYX=              0.0000 YYYZ=             -0.3880 ZZZX=             -0.0000
 ZZZY=              0.0000 XXYY=             -9.8442 XXZZ=            -10.3696 YYZZ=            -10.3696
 XXYZ=              0.3880 YYXZ=             -0.0000 ZZXY=              0.0000
 N-N= 1.763059188815D+01 E-N=-8.510994819201D+02  KE= 3.423911936331D+02
 No NMR shielding tensors so no spin-rotation constants.
 Leave Link  601 at Wed Oct  7 13:19:08 2020, MaxMem=  2684354560 cpu:               3.2 elap:               0.8
 (Enter /udrive/faculty/rpeverati/g16/g16/l701.exe)
 ... and contract with generalized density number  0.
 Compute integral first derivatives.
 Leave Link  701 at Wed Oct  7 13:19:09 2020, MaxMem=  2684354560 cpu:               4.8 elap:               0.9
 (Enter /udrive/faculty/rpeverati/g16/g16/l702.exe)
 L702 exits ... SP integral derivatives will be done elsewhere.
 Leave Link  702 at Wed Oct  7 13:19:10 2020, MaxMem=  2684354560 cpu:               2.4 elap:               0.7
 (Enter /udrive/faculty/rpeverati/g16/g16/l703.exe)
 Integral derivatives from FoFJK, PRISM(SPDF).
 Compute integral first derivatives, UseDBF=F ICtDFT=           0.
 Calling FoFJK, ICntrl=      2527 FMM=F ISym2X=1 I1Cent= 0 IOpClX= 0 NMat=1 NMatS=1 NMatT=0.
 FoFJK:  IHMeth= 1 ICntrl=    2527 DoSepK=F KAlg= 0 I1Cent=           0 FoldK=F
 IRaf=         0 NMat=       1 IRICut=       1 DoRegI=T DoRafI=F ISym2E= 1 IDoP0=0 IntGTp=1.
 FoFCou: FMM=F IPFlag=           0 FMFlag=      100000 FMFlg1=         800
         NFxFlg=           0 DoJE=F BraDBF=F KetDBF=F FulRan=T
         wScrn=  0.000000 ICntrl=      2527 IOpCl=  0 I1Cent=           0 NGrid=           0
         NMat0=    1 NMatS0=      1 NMatT0=    0 NMatD0=    1 NMtDS0=    0 NMtDT0=    0
 Petite list used in FoFCou.
 Leave Link  703 at Wed Oct  7 13:19:12 2020, MaxMem=  2684354560 cpu:               5.3 elap:               0.8
 (Enter /udrive/faculty/rpeverati/g16/g16/l716.exe)
 Dipole        = 2.22044605D-16-2.22044605D-16-4.29828014D-01
 ***** Axes restored to original set *****
 -------------------------------------------------------------------
 Center     Atomic                   Forces (Hartrees/Bohr)
 Number     Number              X              Y              Z
 -------------------------------------------------------------------
      1       15          -0.000000000    0.000000000    0.018312232
      2        1           0.003646115    0.006315257   -0.006104077
      3        1           0.003646115   -0.006315257   -0.006104077
      4        1          -0.007292231   -0.000000000   -0.006104077
 -------------------------------------------------------------------
 Cartesian Forces:  Max     0.018312232 RMS     0.007110128
 Leave Link  716 at Wed Oct  7 13:19:12 2020, MaxMem=  2684354560 cpu:               2.0 elap:               0.5
 (Enter /udrive/faculty/rpeverati/g16/g16/l103.exe)

 GradGradGradGradGradGradGradGradGradGradGradGradGradGradGradGradGradGrad
 Berny optimization.
 Optmz: redundant internal coordinate code flag= 1
 FormGI is forming the generalized inverse of G from B-inverse, IUseBI=4.
 Internal  Forces:  Max     0.009429553 RMS     0.006329444
 Search for a local minimum.
 Step number   1 out of a maximum of  100
 All quantities printed in internal units (Hartrees-Bohrs-Radians)
 RMS Force = .63294D-02 SwitMx=.10000D-02 MixMth= 1
 Mixed Optimization -- RFO/linear search
 Second derivative matrix not updated -- first step.
 The second derivative matrix:
                          R1        R2        R3        A1        A2
           R1           0.21390
           R2           0.00000   0.21390
           R3           0.00000   0.00000   0.21390
           A1           0.00000   0.00000   0.00000   0.16000
           A2           0.00000   0.00000   0.00000   0.00000   0.16000
           A3           0.00000   0.00000   0.00000   0.00000   0.00000
           D1           0.00000   0.00000   0.00000   0.00000   0.00000
                          A3        D1
           A3           0.16000
           D1           0.00000   0.00338
 ITU=  0
 Eigenvectors of the second derivative matrix:
                           1         2         3         4         5
     Eigenvalues --     0.08090   0.16000   0.16000   0.21390   0.21390
   1         R1        -0.00000   0.00000  -0.00000   0.77114   0.39496
   2         R2        -0.00000  -0.00000   0.00000   0.60081  -0.71092
   3         R3         0.00000  -0.00000   0.00000  -0.21063  -0.58189
   4         A1        -0.69989   0.02955  -0.09724  -0.00000  -0.00000
   5         A2        -0.05056  -0.88108   0.46748  -0.00000   0.00000
   6         A3        -0.05056   0.47204   0.87864  -0.00000   0.00000
   7         D1        -0.71066   0.00000  -0.00000  -0.00000  -0.00000
                           6
     Eigenvalues --     0.21390
   1         R1         0.49935
   2         R2        -0.36553
   3         R3         0.78552
   4         A1         0.00000
   5         A2         0.00000
   6         A3         0.00000
   7         D1         0.00000
 Iter=   1 RLamda= 0.00000000D+00 Sum=-1.35547163D-03.
 Iter=   2 RLamda=-1.35547163D-03 Sum=-1.34633439D-03.
 Iter=   3 RLamda=-1.34633439D-03 Sum=-1.34639554D-03.
 Iter=   4 RLamda=-1.34639554D-03 Sum=-1.34639513D-03.
 RFO step:  Lambda=-1.34639554D-03 EMin= 8.09018551D-02
 Linear search not attempted -- first point.
 Iteration  1 RMS(Cart)=  0.02102518 RMS(Int)=  0.00022965
 Iteration  2 RMS(Cart)=  0.00026242 RMS(Int)=  0.00007221
 Iteration  3 RMS(Cart)=  0.00000004 RMS(Int)=  0.00007221
 ITry= 1 IFail=0 DXMaxC= 3.62D-02 DCOld= 1.00D+10 DXMaxT= 3.00D-01 DXLimC= 3.00D+00 Rises=F
 ClnCor:  largest displacement from symmetrization is 2.96D-04 for atom     4.
 Variable       Old X    -DE/DX   Delta X   Delta X   Delta X     New X
                                 (Linear)    (Quad)   (Total)
    R1        2.66884   0.00943   0.00000   0.04381   0.04387   2.71271
    R2        2.66884   0.00943   0.00000   0.04381   0.04387   2.71271
    R3        2.66884   0.00943   0.00000   0.04381   0.04387   2.71271
    A1        1.63822  -0.00103   0.00000  -0.01448  -0.01479   1.62343
    A2        1.63822  -0.00232   0.00000  -0.01494  -0.01479   1.62343
    A3        1.63822  -0.00232   0.00000  -0.01494  -0.01479   1.62343
    D1        1.64310  -0.00137   0.00000  -0.01672  -0.01675   1.62635
         Item               Value     Threshold  Converged?
 Maximum Force            0.009430     0.000450     NO 
 RMS     Force            0.006329     0.000300     NO 
 Maximum Displacement     0.036184     0.001800     NO 
 RMS     Displacement     0.020983     0.001200     NO 
 Predicted change in Energy=-6.773569D-04
 Lowest energy point so far.  Saving SCF results.
 Largest change from initial coordinates is atom    1       0.013 Angstoms.
 GradGradGradGradGradGradGradGradGradGradGradGradGradGradGradGradGradGrad

 Leave Link  103 at Wed Oct  7 13:19:14 2020, MaxMem=  2684354560 cpu:               3.4 elap:               0.8
 (Enter /udrive/faculty/rpeverati/g16/g16/l202.exe)
                          Input orientation:                          
 ---------------------------------------------------------------------
 Center     Atomic      Atomic             Coordinates (Angstroms)
 Number     Number       Type             X           Y           Z
 ---------------------------------------------------------------------
      1         15           0        0.000000    0.000000    0.587997
      2          1           0        0.601260    1.041412   -0.195983
      3          1           0        0.601260   -1.041412   -0.195983
      4          1           0       -1.202519    0.000000   -0.195983
 ---------------------------------------------------------------------
                    Distance matrix (angstroms):
                    1          2          3          4
     1  P    0.000000
     2  H    1.435506   0.000000
     3  H    1.435506   2.082824   0.000000
     4  H    1.435506   2.082824   2.082824   0.000000
 Stoichiometry    H3P
 Framework group  C3V[C3(P),3SGV(H)]
 Deg. of freedom     2
 Full point group                 C3V     NOp   6
 RotChk:  IX=0 Diff= 1.57D-16
 Largest Abelian subgroup         CS      NOp   2
 Largest concise Abelian subgroup CS      NOp   2
                         Standard orientation:                         
 ---------------------------------------------------------------------
 Center     Atomic      Atomic             Coordinates (Angstroms)
 Number     Number       Type             X           Y           Z
 ---------------------------------------------------------------------
      1         15           0        0.000000    0.000000    0.130663
      2          1           0        0.000000    1.202519   -0.653316
      3          1           0        1.041412   -0.601260   -0.653316
      4          1           0       -1.041412   -0.601260   -0.653316
 ---------------------------------------------------------------------
 Rotational constants (GHZ):         130.2829234         130.2829234         115.5917157
 Leave Link  202 at Wed Oct  7 13:19:15 2020, MaxMem=  2684354560 cpu:               2.0 elap:               0.6
 (Enter /udrive/faculty/rpeverati/g16/g16/l301.exe)
 Standard basis: 6-31G(d) (5D, 7F)
 Ernie: Thresh=  0.10000D-02 Tol=  0.10000D-05 Strict=F.
 There are    18 symmetry adapted cartesian basis functions of A'  symmetry.
 There are     7 symmetry adapted cartesian basis functions of A"  symmetry.
 There are    17 symmetry adapted basis functions of A'  symmetry.
 There are     7 symmetry adapted basis functions of A"  symmetry.
    24 basis functions,    64 primitive gaussians,    25 cartesian basis functions
     9 alpha electrons        9 beta electrons
       nuclear repulsion energy        17.3507622282 Hartrees.
 IExCor=  404 DFT=T Ex=B Corr=P86 ExCW=0 ScaHFX=  0.000000
 ScaDFX=  1.000000  1.000000  1.000000  1.000000 ScalE2=  1.000000  1.000000
 IRadAn=      5 IRanWt=     -1 IRanGd=            0 ICorTp=0 IEmpDi=  4
 NAtoms=    4 NActive=    4 NUniq=    2 SFac= 4.00D+00 NAtFMM=   60 NAOKFM=F Big=F
 Integral buffers will be    131072 words long.
 Raffenetti 2 integral format.
 Two-electron integral symmetry is turned on.
 Leave Link  301 at Wed Oct  7 13:19:16 2020, MaxMem=  2684354560 cpu:               2.0 elap:               0.7
 (Enter /udrive/faculty/rpeverati/g16/g16/l302.exe)
 NPDir=0 NMtPBC=     1 NCelOv=     1 NCel=       1 NClECP=     1 NCelD=      1
         NCelK=      1 NCelE2=     1 NClLst=     1 CellRange=     0.0.
 One-electron integrals computed using PRISM.
 One-electron integral symmetry used in STVInt
 NBasis=    24 RedAO= T EigKep=  1.47D-02  NBF=    17     7
 NBsUse=    24 1.00D-06 EigRej= -1.00D+00 NBFU=    17     7
 Precomputing XC quadrature grid using
 IXCGrd= 4 IRadAn=           5 IRanWt=          -1 IRanGd=           0 AccXCQ= 0.00D+00.
 Generated NRdTot=       0 NPtTot=           0 NUsed=           0 NTot=          32
 NSgBfM=    25    25    25    25    25 MxSgAt=     4 MxSgA2=     4.
 Leave Link  302 at Wed Oct  7 13:19:17 2020, MaxMem=  2684354560 cpu:               3.4 elap:               0.9
 (Enter /udrive/faculty/rpeverati/g16/g16/l303.exe)
 DipDrv:  MaxL=1.
 Leave Link  303 at Wed Oct  7 13:19:18 2020, MaxMem=  2684354560 cpu:               2.7 elap:               0.8
 (Enter /udrive/faculty/rpeverati/g16/g16/l401.exe)
 Initial guess from the checkpoint file:  "MN_77_PH3_BH76_BP86_631Gs.chk"
 SCF N**3 symmetry information disabled.
 B after Tr=     0.000000    0.000000    0.000000
         Rot=    1.000000    0.000000    0.000000   -0.000000 Ang=   0.00 deg.
 Guess basis will be translated and rotated to current coordinates.
 JPrj=2 DoOrth=T DoCkMO=T.
 Initial guess orbital symmetries:
       Occupied  (A1) (A1) (E) (E) (A1) (A1) (E) (E) (A1)
       Virtual   (E) (E) (A1) (E) (E) (A1) (A1) (E) (E) (A1) (E)
                 (E) (A1) (E) (E)
 The electronic state of the initial guess is 1-A1.
 Generating alternative initial guess.
 ExpMin= 9.98D-02 ExpMax= 1.94D+04 ExpMxC= 2.91D+03 IAcc=2 IRadAn=         4 AccDes= 0.00D+00
 Harris functional with IExCor=  404 and IRadAn=       4 diagonalized for initial guess.
 HarFok:  IExCor=  404 AccDes= 0.00D+00 IRadAn=         4 IDoV= 1 UseB2=F ITyADJ=14
 ICtDFT=  3500011 ScaDFX=  1.000000  1.000000  1.000000  1.000000
 FoFCou: FMM=F IPFlag=           0 FMFlag=      100000 FMFlg1=           0
         NFxFlg=           0 DoJE=T BraDBF=F KetDBF=T FulRan=T
         wScrn=  0.000000 ICntrl=       500 IOpCl=  0 I1Cent=   200000004 NGrid=           0
         NMat0=    1 NMatS0=      1 NMatT0=    0 NMatD0=    1 NMtDS0=    0 NMtDT0=    0
 Petite list used in FoFCou.
 Harris En= -343.132201175055    
 Leave Link  401 at Wed Oct  7 13:19:19 2020, MaxMem=  2684354560 cpu:               5.0 elap:               1.0
 (Enter /udrive/faculty/rpeverati/g16/g16/l502.exe)
 Keep J ints in memory in symmetry-blocked form, NReq=10390965.
 FoFCou: FMM=F IPFlag=           0 FMFlag=           0 FMFlg1=           0
         NFxFlg=           0 DoJE=F BraDBF=F KetDBF=F FulRan=T
         wScrn=  0.000000 ICntrl=       600 IOpCl=  0 I1Cent=           0 NGrid=           0
         NMat0=    1 NMatS0=    300 NMatT0=    0 NMatD0=    1 NMtDS0=    0 NMtDT0=    0
 Petite list used in FoFCou.
 Closed shell SCF:
 Using DIIS extrapolation, IDIIS=  1040.
 NGot=  2684354560 LenX=  2684327934 LenY=  2684326868
 Requested convergence on RMS density matrix=1.00D-08 within 120 cycles.
 Requested convergence on MAX density matrix=1.00D-06.
 Requested convergence on             energy=1.00D-06.
 No special actions if energy rises.
 Integral accuracy reduced to 1.0D-05 until final iterations.

 Cycle   1  Pass 0  IDiag  1:
 E= -343.152062394412    
 DIIS: error= 1.78D-03 at cycle   1 NSaved=   1.
 NSaved= 1 IEnMin= 1 EnMin= -343.152062394412     IErMin= 1 ErrMin= 1.78D-03
 ErrMax= 1.78D-03  0.00D+00 EMaxC= 1.00D-01 BMatC= 9.01D-05 BMatP= 9.01D-05
 IDIUse=3 WtCom= 9.82D-01 WtEn= 1.78D-02
 Coeff-Com:  0.100D+01
 Coeff-En:   0.100D+01
 Coeff:      0.100D+01
 Gap=     0.245 Goal=   None    Shift=    0.000
 GapD=    0.245 DampG=1.000 DampE=1.000 DampFc=1.0000 IDamp=-1.
 RMSDP=1.31D-03 MaxDP=8.12D-03              OVMax= 8.78D-03

 Cycle   2  Pass 0  IDiag  1:
 E= -343.152227379210     Delta-E=       -0.000164984797 Rises=F Damp=F
 DIIS: error= 8.96D-04 at cycle   2 NSaved=   2.
 NSaved= 2 IEnMin= 2 EnMin= -343.152227379210     IErMin= 2 ErrMin= 8.96D-04
 ErrMax= 8.96D-04  0.00D+00 EMaxC= 1.00D-01 BMatC= 1.60D-05 BMatP= 9.01D-05
 IDIUse=3 WtCom= 9.91D-01 WtEn= 8.96D-03
 Coeff-Com:  0.245D+00 0.755D+00
 Coeff-En:   0.000D+00 0.100D+01
 Coeff:      0.243D+00 0.757D+00
 Gap=     0.246 Goal=   None    Shift=    0.000
 RMSDP=3.81D-04 MaxDP=3.92D-03 DE=-1.65D-04 OVMax= 2.19D-03

 Cycle   3  Pass 0  IDiag  1:
 E= -343.152247276839     Delta-E=       -0.000019897629 Rises=F Damp=F
 DIIS: error= 3.15D-04 at cycle   3 NSaved=   3.
 NSaved= 3 IEnMin= 3 EnMin= -343.152247276839     IErMin= 3 ErrMin= 3.15D-04
 ErrMax= 3.15D-04  0.00D+00 EMaxC= 1.00D-01 BMatC= 3.51D-06 BMatP= 1.60D-05
 IDIUse=3 WtCom= 9.97D-01 WtEn= 3.15D-03
 Coeff-Com:  0.414D-01 0.326D+00 0.632D+00
 Coeff-En:   0.000D+00 0.722D-01 0.928D+00
 Coeff:      0.413D-01 0.326D+00 0.633D+00
 Gap=     0.246 Goal=   None    Shift=    0.000
 RMSDP=1.40D-04 MaxDP=1.24D-03 DE=-1.99D-05 OVMax= 9.77D-04

 Cycle   4  Pass 0  IDiag  1:
 E= -343.152252018171     Delta-E=       -0.000004741332 Rises=F Damp=F
 DIIS: error= 6.81D-05 at cycle   4 NSaved=   4.
 NSaved= 4 IEnMin= 4 EnMin= -343.152252018171     IErMin= 4 ErrMin= 6.81D-05
 ErrMax= 6.81D-05  0.00D+00 EMaxC= 1.00D-01 BMatC= 1.74D-07 BMatP= 3.51D-06
 IDIUse=1 WtCom= 1.00D+00 WtEn= 0.00D+00
 Coeff-Com:  0.752D-02 0.116D+00 0.287D+00 0.590D+00
 Coeff:      0.752D-02 0.116D+00 0.287D+00 0.590D+00
 Gap=     0.246 Goal=   None    Shift=    0.000
 RMSDP=2.64D-05 MaxDP=1.79D-04 DE=-4.74D-06 OVMax= 2.69D-04

 Cycle   5  Pass 0  IDiag  1:
 E= -343.152252326276     Delta-E=       -0.000000308105 Rises=F Damp=F
 DIIS: error= 5.64D-06 at cycle   5 NSaved=   5.
 NSaved= 5 IEnMin= 5 EnMin= -343.152252326276     IErMin= 5 ErrMin= 5.64D-06
 ErrMax= 5.64D-06  0.00D+00 EMaxC= 1.00D-01 BMatC= 1.09D-09 BMatP= 1.74D-07
 IDIUse=1 WtCom= 1.00D+00 WtEn= 0.00D+00
 Coeff-Com: -0.904D-04 0.820D-02 0.207D-01 0.105D+00 0.866D+00
 Coeff:     -0.904D-04 0.820D-02 0.207D-01 0.105D+00 0.866D+00
 Gap=     0.246 Goal=   None    Shift=    0.000
 RMSDP=2.19D-06 MaxDP=1.73D-05 DE=-3.08D-07 OVMax= 1.57D-05

 Initial convergence to 1.0D-05 achieved.  Increase integral accuracy.
 Cycle   6  Pass 1  IDiag  1:
 E= -343.152255571630     Delta-E=       -0.000003245354 Rises=F Damp=F
 DIIS: error= 5.49D-07 at cycle   1 NSaved=   1.
 NSaved= 1 IEnMin= 1 EnMin= -343.152255571630     IErMin= 1 ErrMin= 5.49D-07
 ErrMax= 5.49D-07  0.00D+00 EMaxC= 1.00D-01 BMatC= 1.07D-11 BMatP= 1.07D-11
 IDIUse=1 WtCom= 1.00D+00 WtEn= 0.00D+00
 Coeff-Com:  0.100D+01
 Coeff:      0.100D+01
 Gap=     0.246 Goal=   None    Shift=    0.000
 RMSDP=2.19D-06 MaxDP=1.73D-05 DE=-3.25D-06 OVMax= 2.33D-06

 Cycle   7  Pass 1  IDiag  1:
 E= -343.152255571647     Delta-E=       -0.000000000017 Rises=F Damp=F
 DIIS: error= 1.80D-07 at cycle   2 NSaved=   2.
 NSaved= 2 IEnMin= 2 EnMin= -343.152255571647     IErMin= 2 ErrMin= 1.80D-07
 ErrMax= 1.80D-07  0.00D+00 EMaxC= 1.00D-01 BMatC= 1.13D-12 BMatP= 1.07D-11
 IDIUse=1 WtCom= 1.00D+00 WtEn= 0.00D+00
 Coeff-Com:  0.199D+00 0.801D+00
 Coeff:      0.199D+00 0.801D+00
 Gap=     0.246 Goal=   None    Shift=    0.000
 RMSDP=1.09D-07 MaxDP=1.27D-06 DE=-1.68D-11 OVMax= 5.91D-07

 Cycle   8  Pass 1  IDiag  1:
 E= -343.152255571648     Delta-E=       -0.000000000001 Rises=F Damp=F
 DIIS: error= 7.75D-08 at cycle   3 NSaved=   3.
 NSaved= 3 IEnMin= 3 EnMin= -343.152255571648     IErMin= 3 ErrMin= 7.75D-08
 ErrMax= 7.75D-08  0.00D+00 EMaxC= 1.00D-01 BMatC= 1.33D-13 BMatP= 1.13D-12
 IDIUse=1 WtCom= 1.00D+00 WtEn= 0.00D+00
 Coeff-Com:  0.202D-01 0.265D+00 0.715D+00
 Coeff:      0.202D-01 0.265D+00 0.715D+00
 Gap=     0.246 Goal=   None    Shift=    0.000
 RMSDP=2.55D-08 MaxDP=2.64D-07 DE=-1.31D-12 OVMax= 1.66D-07

 Cycle   9  Pass 1  IDiag  1:
 E= -343.152255571649     Delta-E=       -0.000000000001 Rises=F Damp=F
 DIIS: error= 1.69D-08 at cycle   4 NSaved=   4.
 NSaved= 4 IEnMin= 4 EnMin= -343.152255571649     IErMin= 4 ErrMin= 1.69D-08
 ErrMax= 1.69D-08  0.00D+00 EMaxC= 1.00D-01 BMatC= 6.53D-15 BMatP= 1.33D-13
 IDIUse=1 WtCom= 1.00D+00 WtEn= 0.00D+00
 Coeff-Com:  0.472D-02 0.891D-01 0.294D+00 0.613D+00
 Coeff:      0.472D-02 0.891D-01 0.294D+00 0.613D+00
 Gap=     0.246 Goal=   None    Shift=    0.000
 RMSDP=6.13D-09 MaxDP=4.80D-08 DE=-6.25D-13 OVMax= 5.84D-08

 SCF Done:  E(RB-P86) =  -343.152255572     A.U. after    9 cycles
            NFock=  9  Conv=0.61D-08     -V/T= 2.0024
 KE= 3.423191305202D+02 PE=-8.504607842990D+02 EE= 1.476386359789D+02
 Leave Link  502 at Wed Oct  7 13:19:21 2020, MaxMem=  2684354560 cpu:               9.5 elap:               1.2
 (Enter /udrive/faculty/rpeverati/g16/g16/l508.exe)
 QCSCF skips out because SCF is already converged.
 Leave Link  508 at Wed Oct  7 13:19:22 2020, MaxMem=  2684354560 cpu:               1.1 elap:               0.5
 (Enter /udrive/faculty/rpeverati/g16/g16/l701.exe)
 ... and contract with generalized density number  0.
 Compute integral first derivatives.
 Leave Link  701 at Wed Oct  7 13:19:23 2020, MaxMem=  2684354560 cpu:               3.4 elap:               0.8
 (Enter /udrive/faculty/rpeverati/g16/g16/l702.exe)
 L702 exits ... SP integral derivatives will be done elsewhere.
 Leave Link  702 at Wed Oct  7 13:19:24 2020, MaxMem=  2684354560 cpu:               1.7 elap:               0.6
 (Enter /udrive/faculty/rpeverati/g16/g16/l703.exe)
 Integral derivatives from FoFJK, PRISM(SPDF).
 Compute integral first derivatives, UseDBF=F ICtDFT=           0.
 Calling FoFJK, ICntrl=      2527 FMM=F ISym2X=1 I1Cent= 0 IOpClX= 0 NMat=1 NMatS=1 NMatT=0.
 FoFJK:  IHMeth= 1 ICntrl=    2527 DoSepK=F KAlg= 0 I1Cent=           0 FoldK=F
 IRaf=         0 NMat=       1 IRICut=       1 DoRegI=T DoRafI=F ISym2E= 1 IDoP0=0 IntGTp=1.
 FoFCou: FMM=F IPFlag=           0 FMFlag=      100000 FMFlg1=         800
         NFxFlg=           0 DoJE=F BraDBF=F KetDBF=F FulRan=T
         wScrn=  0.000000 ICntrl=      2527 IOpCl=  0 I1Cent=           0 NGrid=           0
         NMat0=    1 NMatS0=      1 NMatT0=    0 NMatD0=    1 NMtDS0=    0 NMtDT0=    0
 Petite list used in FoFCou.
 Leave Link  703 at Wed Oct  7 13:19:25 2020, MaxMem=  2684354560 cpu:               5.9 elap:               1.0
 (Enter /udrive/faculty/rpeverati/g16/g16/l716.exe)
 Dipole        = 0.00000000D+00 0.00000000D+00-4.05854350D-01
 ***** Axes restored to original set *****
 -------------------------------------------------------------------
 Center     Atomic                   Forces (Hartrees/Bohr)
 Number     Number              X              Y              Z
 -------------------------------------------------------------------
      1       15           0.000000000    0.000000000    0.001955748
      2        1          -0.000017765   -0.000030770   -0.000651916
      3        1          -0.000017765    0.000030770   -0.000651916
      4        1           0.000035531   -0.000000000   -0.000651916
 -------------------------------------------------------------------
 Cartesian Forces:  Max     0.001955748 RMS     0.000652158
 Leave Link  716 at Wed Oct  7 13:19:27 2020, MaxMem=  2684354560 cpu:               1.7 elap:               0.7
 (Enter /udrive/faculty/rpeverati/g16/g16/l103.exe)

 GradGradGradGradGradGradGradGradGradGradGradGradGradGradGradGradGradGrad
 Berny optimization.
 Optmz: redundant internal coordinate code flag= 1
 Using GEDIIS/GDIIS optimizer.
 Red2BG:  D1=  3.41D-01 OD1=  4.30D-02 B2RMS=  0.00D+00 IAprox=0
 FormGI is forming the generalized inverse of G from B-inverse, IUseBI=4.
 Internal  Forces:  Max     0.001081761 RMS     0.000685369
 Search for a local minimum.
 Step number   2 out of a maximum of  100
 All quantities printed in internal units (Hartrees-Bohrs-Radians)
 RMS Force = .68537D-03 SwitMx=.10000D-02 MixMth= 2
 Mixed Optimization -- En-DIIS/RFO-DIIS
 Update second derivatives using D2CorX and points    1    2
 DE= -7.09D-04 DEPred=-6.77D-04 R= 1.05D+00
 TightC=F SS=  1.41D+00  RLast= 8.19D-02 DXNew= 5.0454D-01 2.4576D-01
 Trust test= 1.05D+00 RLast= 8.19D-02 DXMaxT set to 3.00D-01
 The second derivative matrix:
                          R1        R2        R3        A1        A2
           R1           0.21426
           R2           0.00036   0.21426
           R3           0.00036   0.00036   0.21426
           A1           0.01267   0.01267   0.01267   0.15605
           A2           0.00761   0.00761   0.00761  -0.00365   0.15703
           A3           0.00761   0.00761   0.00761  -0.00365  -0.00297
           D1          -0.00509  -0.00509  -0.00509   0.00022   0.00064
                          A3        D1
           A3           0.15703
           D1           0.00064   0.00384
 ITU=  1  0
 Use linear search instead of GDIIS.
 Eigenvectors of the second derivative matrix:
                           1         2         3         4         5
     Eigenvalues --     0.07836   0.15089   0.16000   0.21390   0.21390
   1         R1         0.04699  -0.14009   0.00000   0.68259  -0.44804
   2         R2         0.04699  -0.14009   0.00000  -0.72931  -0.36712
   3         R3         0.04699  -0.14009   0.00000   0.04672   0.81516
   4         A1        -0.69477  -0.12920  -0.00000  -0.00000   0.00000
   5         A2        -0.07964   0.67879  -0.70711  -0.00000   0.00000
   6         A3        -0.07964   0.67879   0.70711  -0.00000   0.00000
   7         D1        -0.70568  -0.05398  -0.00000  -0.00000   0.00000
                           6
     Eigenvalues --     0.21997
   1         R1         0.55812
   2         R2         0.55812
   3         R3         0.55812
   4         A1         0.02606
   5         A2         0.17708
   6         A3         0.17708
   7         D1         0.04586
 Iter=   1 RLamda= 0.00000000D+00 Sum=-2.15402030D-05.
 Iter=   2 RLamda=-2.15402030D-05 Sum=-2.15361408D-05.
 RFO step:  Lambda=-2.15402030D-05 EMin= 7.83635200D-02
 Quartic linear search produced a step of  0.07812.
 Iteration  1 RMS(Cart)=  0.00622931 RMS(Int)=  0.00004004
 Iteration  2 RMS(Cart)=  0.00003219 RMS(Int)=  0.00002449
 Iteration  3 RMS(Cart)=  0.00000000 RMS(Int)=  0.00002449
 ITry= 1 IFail=0 DXMaxC= 1.07D-02 DCOld= 1.00D+10 DXMaxT= 3.00D-01 DXLimC= 3.00D+00 Rises=F
 ClnCor:  largest displacement from symmetrization is 2.64D-05 for atom     4.
 Variable       Old X    -DE/DX   Delta X   Delta X   Delta X     New X
                                 (Linear)    (Quad)   (Total)
    R1        2.71271   0.00033   0.00343  -0.00094   0.00249   2.71521
    R2        2.71271   0.00033   0.00343  -0.00094   0.00249   2.71521
    R3        2.71271   0.00033   0.00343  -0.00094   0.00249   2.71521
    A1        1.62343  -0.00050  -0.00116  -0.00658  -0.00780   1.61562
    A2        1.62343  -0.00108  -0.00116  -0.00666  -0.00780   1.61562
    A3        1.62343  -0.00108  -0.00116  -0.00666  -0.00780   1.61562
    D1        1.62635  -0.00062  -0.00131  -0.00734  -0.00862   1.61773
         Item               Value     Threshold  Converged?
 Maximum Force            0.001082     0.000450     NO 
 RMS     Force            0.000685     0.000300     NO 
 Maximum Displacement     0.010665     0.001800     NO 
 RMS     Displacement     0.006238     0.001200     NO 
 Predicted change in Energy=-1.388897D-05
 Lowest energy point so far.  Saving SCF results.
 Largest change from initial coordinates is atom    3       0.024 Angstoms.
 GradGradGradGradGradGradGradGradGradGradGradGradGradGradGradGradGradGrad

 Leave Link  103 at Wed Oct  7 13:19:28 2020, MaxMem=  2684354560 cpu:              10.0 elap:               1.4
 (Enter /udrive/faculty/rpeverati/g16/g16/l202.exe)
                          Input orientation:                          
 ---------------------------------------------------------------------
 Center     Atomic      Atomic             Coordinates (Angstroms)
 Number     Number       Type             X           Y           Z
 ---------------------------------------------------------------------
      1         15           0       -0.000000   -0.000000    0.593641
      2          1           0        0.599581    1.038504   -0.197862
      3          1           0        0.599581   -1.038504   -0.197862
      4          1           0       -1.199161    0.000000   -0.197862
 ---------------------------------------------------------------------
                    Distance matrix (angstroms):
                    1          2          3          4
     1  P    0.000000
     2  H    1.436825   0.000000
     3  H    1.436825   2.077008   0.000000
     4  H    1.436825   2.077008   2.077008   0.000000
 Stoichiometry    H3P
 Framework group  C3V[C3(P),3SGV(H)]
 Deg. of freedom     2
 Full point group                 C3V     NOp   6
 RotChk:  IX=0 Diff= 1.57D-16
 Largest Abelian subgroup         CS      NOp   2
 Largest concise Abelian subgroup CS      NOp   2
                         Standard orientation:                         
 ---------------------------------------------------------------------
 Center     Atomic      Atomic             Coordinates (Angstroms)
 Number     Number       Type             X           Y           Z
 ---------------------------------------------------------------------
      1         15           0        0.000000    0.000000    0.131917
      2          1           0        0.000000    1.199161   -0.659586
      3          1           0        1.038504   -0.599581   -0.659586
      4          1           0       -1.038504   -0.599581   -0.659586
 ---------------------------------------------------------------------
 Rotational constants (GHZ):         129.5993935         129.5993935         116.2400366
 Leave Link  202 at Wed Oct  7 13:19:29 2020, MaxMem=  2684354560 cpu:               1.4 elap:               0.6
 (Enter /udrive/faculty/rpeverati/g16/g16/l301.exe)
 Standard basis: 6-31G(d) (5D, 7F)
 Ernie: Thresh=  0.10000D-02 Tol=  0.10000D-05 Strict=F.
 There are    18 symmetry adapted cartesian basis functions of A'  symmetry.
 There are     7 symmetry adapted cartesian basis functions of A"  symmetry.
 There are    17 symmetry adapted basis functions of A'  symmetry.
 There are     7 symmetry adapted basis functions of A"  symmetry.
    24 basis functions,    64 primitive gaussians,    25 cartesian basis functions
     9 alpha electrons        9 beta electrons
       nuclear repulsion energy        17.3376698964 Hartrees.
 IExCor=  404 DFT=T Ex=B Corr=P86 ExCW=0 ScaHFX=  0.000000
 ScaDFX=  1.000000  1.000000  1.000000  1.000000 ScalE2=  1.000000  1.000000
 IRadAn=      5 IRanWt=     -1 IRanGd=            0 ICorTp=0 IEmpDi=  4
 NAtoms=    4 NActive=    4 NUniq=    2 SFac= 4.00D+00 NAtFMM=   60 NAOKFM=F Big=F
 Integral buffers will be    131072 words long.
 Raffenetti 2 integral format.
 Two-electron integral symmetry is turned on.
 Leave Link  301 at Wed Oct  7 13:19:30 2020, MaxMem=  2684354560 cpu:               2.3 elap:               0.8
 (Enter /udrive/faculty/rpeverati/g16/g16/l302.exe)
 NPDir=0 NMtPBC=     1 NCelOv=     1 NCel=       1 NClECP=     1 NCelD=      1
         NCelK=      1 NCelE2=     1 NClLst=     1 CellRange=     0.0.
 One-electron integrals computed using PRISM.
 One-electron integral symmetry used in STVInt
 NBasis=    24 RedAO= T EigKep=  1.45D-02  NBF=    17     7
 NBsUse=    24 1.00D-06 EigRej= -1.00D+00 NBFU=    17     7
 Precomputing XC quadrature grid using
 IXCGrd= 4 IRadAn=           5 IRanWt=          -1 IRanGd=           0 AccXCQ= 0.00D+00.
 Generated NRdTot=       0 NPtTot=           0 NUsed=           0 NTot=          32
 NSgBfM=    25    25    25    25    25 MxSgAt=     4 MxSgA2=     4.
 Leave Link  302 at Wed Oct  7 13:19:32 2020, MaxMem=  2684354560 cpu:               3.4 elap:               0.8
 (Enter /udrive/faculty/rpeverati/g16/g16/l303.exe)
 DipDrv:  MaxL=1.
 Leave Link  303 at Wed Oct  7 13:19:33 2020, MaxMem=  2684354560 cpu:               3.8 elap:               0.9
 (Enter /udrive/faculty/rpeverati/g16/g16/l401.exe)
 Initial guess from the checkpoint file:  "MN_77_PH3_BH76_BP86_631Gs.chk"
 SCF N**3 symmetry information disabled.
 B after Tr=    -0.000000   -0.000000   -0.000000
         Rot=    1.000000   -0.000000    0.000000    0.000000 Ang=   0.00 deg.
 Guess basis will be translated and rotated to current coordinates.
 JPrj=2 DoOrth=T DoCkMO=T.
 Initial guess orbital symmetries:
       Occupied  (A1) (A1) (E) (E) (A1) (A1) (E) (E) (A1)
       Virtual   (E) (E) (A1) (E) (E) (A1) (A1) (E) (E) (A1) (E)
                 (E) (A1) (E) (E)
 The electronic state of the initial guess is 1-A1.
 Leave Link  401 at Wed Oct  7 13:19:34 2020, MaxMem=  2684354560 cpu:               6.8 elap:               1.1
 (Enter /udrive/faculty/rpeverati/g16/g16/l502.exe)
 Keep J ints in memory in symmetry-blocked form, NReq=10390965.
 FoFCou: FMM=F IPFlag=           0 FMFlag=           0 FMFlg1=           0
         NFxFlg=           0 DoJE=F BraDBF=F KetDBF=F FulRan=T
         wScrn=  0.000000 ICntrl=       600 IOpCl=  0 I1Cent=           0 NGrid=           0
         NMat0=    1 NMatS0=    300 NMatT0=    0 NMatD0=    1 NMtDS0=    0 NMtDT0=    0
 Petite list used in FoFCou.
 Closed shell SCF:
 Using DIIS extrapolation, IDIIS=  1040.
 NGot=  2684354560 LenX=  2684327934 LenY=  2684326868
 Requested convergence on RMS density matrix=1.00D-08 within 120 cycles.
 Requested convergence on MAX density matrix=1.00D-06.
 Requested convergence on             energy=1.00D-06.
 No special actions if energy rises.

 Cycle   1  Pass 1  IDiag  1:
 E= -343.152263451256    
 DIIS: error= 3.93D-04 at cycle   1 NSaved=   1.
 NSaved= 1 IEnMin= 1 EnMin= -343.152263451256     IErMin= 1 ErrMin= 3.93D-04
 ErrMax= 3.93D-04  0.00D+00 EMaxC= 1.00D-01 BMatC= 3.22D-06 BMatP= 3.22D-06
 IDIUse=3 WtCom= 9.96D-01 WtEn= 3.93D-03
 Coeff-Com:  0.100D+01
 Coeff-En:   0.100D+01
 Coeff:      0.100D+01
 Gap=     0.246 Goal=   None    Shift=    0.000
 RMSDP=2.62D-04 MaxDP=1.98D-03              OVMax= 1.39D-03

 Cycle   2  Pass 1  IDiag  1:
 E= -343.152270044735     Delta-E=       -0.000006593478 Rises=F Damp=F
 DIIS: error= 3.46D-05 at cycle   2 NSaved=   2.
 NSaved= 2 IEnMin= 2 EnMin= -343.152270044735     IErMin= 2 ErrMin= 3.46D-05
 ErrMax= 3.46D-05  0.00D+00 EMaxC= 1.00D-01 BMatC= 3.30D-08 BMatP= 3.22D-06
 IDIUse=1 WtCom= 1.00D+00 WtEn= 0.00D+00
 Coeff-Com:  0.318D-01 0.968D+00
 Coeff:      0.318D-01 0.968D+00
 Gap=     0.246 Goal=   None    Shift=    0.000
 RMSDP=2.65D-05 MaxDP=2.69D-04 DE=-6.59D-06 OVMax= 1.97D-04

 Cycle   3  Pass 1  IDiag  1:
 E= -343.152270053045     Delta-E=       -0.000000008310 Rises=F Damp=F
 DIIS: error= 3.04D-05 at cycle   3 NSaved=   3.
 NSaved= 3 IEnMin= 3 EnMin= -343.152270053045     IErMin= 3 ErrMin= 3.04D-05
 ErrMax= 3.04D-05  0.00D+00 EMaxC= 1.00D-01 BMatC= 3.41D-08 BMatP= 3.30D-08
 IDIUse=1 WtCom= 1.00D+00 WtEn= 0.00D+00
 Coeff-Com:  0.735D-02 0.507D+00 0.485D+00
 Coeff:      0.735D-02 0.507D+00 0.485D+00
 Gap=     0.246 Goal=   None    Shift=    0.000
 RMSDP=1.26D-05 MaxDP=1.09D-04 DE=-8.31D-09 OVMax= 9.86D-05

 Cycle   4  Pass 1  IDiag  1:
 E= -343.152270106797     Delta-E=       -0.000000053752 Rises=F Damp=F
 DIIS: error= 2.79D-06 at cycle   4 NSaved=   4.
 NSaved= 4 IEnMin= 4 EnMin= -343.152270106797     IErMin= 4 ErrMin= 2.79D-06
 ErrMax= 2.79D-06  0.00D+00 EMaxC= 1.00D-01 BMatC= 1.62D-10 BMatP= 3.30D-08
 IDIUse=1 WtCom= 1.00D+00 WtEn= 0.00D+00
 Coeff-Com: -0.495D-03 0.676D-01 0.994D-01 0.834D+00
 Coeff:     -0.495D-03 0.676D-01 0.994D-01 0.834D+00
 Gap=     0.246 Goal=   None    Shift=    0.000
 RMSDP=8.09D-07 MaxDP=4.41D-06 DE=-5.38D-08 OVMax= 8.35D-06

 Cycle   5  Pass 1  IDiag  1:
 E= -343.152270107062     Delta-E=       -0.000000000265 Rises=F Damp=F
 DIIS: error= 2.72D-07 at cycle   5 NSaved=   5.
 NSaved= 5 IEnMin= 5 EnMin= -343.152270107062     IErMin= 5 ErrMin= 2.72D-07
 ErrMax= 2.72D-07  0.00D+00 EMaxC= 1.00D-01 BMatC= 2.04D-12 BMatP= 1.62D-10
 IDIUse=1 WtCom= 1.00D+00 WtEn= 0.00D+00
 Coeff-Com: -0.149D-03 0.929D-02 0.122D-01 0.155D+00 0.823D+00
 Coeff:     -0.149D-03 0.929D-02 0.122D-01 0.155D+00 0.823D+00
 Gap=     0.246 Goal=   None    Shift=    0.000
 RMSDP=1.19D-07 MaxDP=8.74D-07 DE=-2.65D-10 OVMax= 1.13D-06

 Cycle   6  Pass 1  IDiag  1:
 E= -343.152270107066     Delta-E=       -0.000000000004 Rises=F Damp=F
 DIIS: error= 8.05D-08 at cycle   6 NSaved=   6.
 NSaved= 6 IEnMin= 6 EnMin= -343.152270107066     IErMin= 6 ErrMin= 8.05D-08
 ErrMax= 8.05D-08  0.00D+00 EMaxC= 1.00D-01 BMatC= 1.48D-13 BMatP= 2.04D-12
 IDIUse=1 WtCom= 1.00D+00 WtEn= 0.00D+00
 Coeff-Com: -0.224D-04 0.140D-02 0.170D-02 0.311D-01 0.275D+00 0.690D+00
 Coeff:     -0.224D-04 0.140D-02 0.170D-02 0.311D-01 0.275D+00 0.690D+00
 Gap=     0.246 Goal=   None    Shift=    0.000
 RMSDP=2.31D-08 MaxDP=1.74D-07 DE=-3.58D-12 OVMax= 1.64D-07

 Cycle   7  Pass 1  IDiag  1:
 E= -343.152270107066     Delta-E=       -0.000000000000 Rises=F Damp=F
 DIIS: error= 5.43D-09 at cycle   7 NSaved=   7.
 NSaved= 7 IEnMin= 7 EnMin= -343.152270107066     IErMin= 7 ErrMin= 5.43D-09
 ErrMax= 5.43D-09  0.00D+00 EMaxC= 1.00D-01 BMatC= 6.35D-16 BMatP= 1.48D-13
 IDIUse=1 WtCom= 1.00D+00 WtEn= 0.00D+00
 Coeff-Com: -0.103D-05-0.274D-04 0.203D-04 0.495D-04 0.134D-01 0.704D-01
 Coeff-Com:  0.916D+00
 Coeff:     -0.103D-05-0.274D-04 0.203D-04 0.495D-04 0.134D-01 0.704D-01
 Coeff:      0.916D+00
 Gap=     0.246 Goal=   None    Shift=    0.000
 RMSDP=1.30D-09 MaxDP=1.38D-08 DE=-4.55D-13 OVMax= 1.06D-08

 SCF Done:  E(RB-P86) =  -343.152270107     A.U. after    7 cycles
            NFock=  7  Conv=0.13D-08     -V/T= 2.0024
 KE= 3.423161448529D+02 PE=-8.504313729151D+02 EE= 1.476252880587D+02
 Leave Link  502 at Wed Oct  7 13:19:36 2020, MaxMem=  2684354560 cpu:              10.3 elap:               1.4
 (Enter /udrive/faculty/rpeverati/g16/g16/l508.exe)
 QCSCF skips out because SCF is already converged.
 Leave Link  508 at Wed Oct  7 13:19:38 2020, MaxMem=  2684354560 cpu:               0.5 elap:               1.4
 (Enter /udrive/faculty/rpeverati/g16/g16/l701.exe)
 ... and contract with generalized density number  0.
 Compute integral first derivatives.
 Leave Link  701 at Wed Oct  7 13:19:39 2020, MaxMem=  2684354560 cpu:               3.1 elap:               0.8
 (Enter /udrive/faculty/rpeverati/g16/g16/l702.exe)
 L702 exits ... SP integral derivatives will be done elsewhere.
 Leave Link  702 at Wed Oct  7 13:19:39 2020, MaxMem=  2684354560 cpu:               1.4 elap:               0.5
 (Enter /udrive/faculty/rpeverati/g16/g16/l703.exe)
 Integral derivatives from FoFJK, PRISM(SPDF).
 Compute integral first derivatives, UseDBF=F ICtDFT=           0.
 Calling FoFJK, ICntrl=      2527 FMM=F ISym2X=1 I1Cent= 0 IOpClX= 0 NMat=1 NMatS=1 NMatT=0.
 FoFJK:  IHMeth= 1 ICntrl=    2527 DoSepK=F KAlg= 0 I1Cent=           0 FoldK=F
 IRaf=         0 NMat=       1 IRICut=       1 DoRegI=T DoRafI=F ISym2E= 1 IDoP0=0 IntGTp=1.
 FoFCou: FMM=F IPFlag=           0 FMFlag=      100000 FMFlg1=         800
         NFxFlg=           0 DoJE=F BraDBF=F KetDBF=F FulRan=T
         wScrn=  0.000000 ICntrl=      2527 IOpCl=  0 I1Cent=           0 NGrid=           0
         NMat0=    1 NMatS0=      1 NMatT0=    0 NMatD0=    1 NMtDS0=    0 NMtDT0=    0
 Petite list used in FoFCou.
 Leave Link  703 at Wed Oct  7 13:19:41 2020, MaxMem=  2684354560 cpu:               6.1 elap:               0.9
 (Enter /udrive/faculty/rpeverati/g16/g16/l716.exe)
 Dipole        = 4.44089210D-16 2.22044605D-16-4.01256813D-01
 ***** Axes restored to original set *****
 -------------------------------------------------------------------
 Center     Atomic                   Forces (Hartrees/Bohr)
 Number     Number              X              Y              Z
 -------------------------------------------------------------------
      1       15          -0.000000000    0.000000000   -0.000003964
      2        1          -0.000014962   -0.000025915    0.000001321
      3        1          -0.000014962    0.000025915    0.000001321
      4        1           0.000029924    0.000000000    0.000001321
 -------------------------------------------------------------------
 Cartesian Forces:  Max     0.000029924 RMS     0.000015020
 Leave Link  716 at Wed Oct  7 13:19:42 2020, MaxMem=  2684354560 cpu:               1.3 elap:               0.6
 (Enter /udrive/faculty/rpeverati/g16/g16/l103.exe)

 GradGradGradGradGradGradGradGradGradGradGradGradGradGradGradGradGradGrad
 Berny optimization.
 Optmz: redundant internal coordinate code flag= 1
 Using GEDIIS/GDIIS optimizer.
 Red2BG:  D1=  3.38D-01 OD1=  1.11D-02 B2RMS=  0.00D+00 IAprox=0
 FormGI is forming the generalized inverse of G from B-inverse, IUseBI=4.
 Internal  Forces:  Max     0.000029474 RMS     0.000024435
 Search for a local minimum.
 Step number   3 out of a maximum of  100
 All quantities printed in internal units (Hartrees-Bohrs-Radians)
 RMS Force = .24435D-04 SwitMx=.10000D-02 MixMth= 2
 Mixed Optimization -- En-DIIS/RFO-DIIS
 Swapping is turned off.
 Update second derivatives using D2CorX and points    1    2    3
 DE= -1.45D-05 DEPred=-1.39D-05 R= 1.05D+00
 TightC=F SS=  1.41D+00  RLast= 1.66D-02 DXNew= 5.0454D-01 4.9797D-02
 Trust test= 1.05D+00 RLast= 1.66D-02 DXMaxT set to 3.00D-01
 The second derivative matrix:
                          R1        R2        R3        A1        A2
           R1           0.21439
           R2           0.00049   0.21439
           R3           0.00049   0.00049   0.21439
           A1           0.02277   0.02277   0.02277   0.12778
           A2           0.00844   0.00844   0.00844  -0.02547   0.15364
           A3           0.00844   0.00844   0.00844  -0.02547  -0.00636
           D1          -0.01444  -0.01444  -0.01444   0.00619   0.01916
                          A3        D1
           A3           0.15364
           D1           0.01916   0.01699
 ITU=  1  1  0
 Eigenvectors of the second derivative matrix:
                           1         2         3         4         5
     Eigenvalues --     0.07628   0.14809   0.16000   0.21390   0.21390
   1         R1         0.05221  -0.13855  -0.00000   0.78848  -0.21204
   2         R2         0.05221  -0.13855  -0.00000  -0.57787  -0.57683
   3         R3         0.05221  -0.13855  -0.00000  -0.21061   0.78887
   4         A1        -0.69200  -0.14255  -0.00000  -0.00000  -0.00000
   5         A2        -0.09799   0.67669  -0.70711  -0.00000  -0.00000
   6         A3        -0.09799   0.67669   0.70711  -0.00000  -0.00000
   7         D1        -0.70268  -0.07922  -0.00000  -0.00000  -0.00000
                           6
     Eigenvalues --     0.22073
   1         R1         0.55804
   2         R2         0.55804
   3         R3         0.55804
   4         A1         0.02935
   5         A2         0.17718
   6         A3         0.17718
   7         D1         0.04608
 DoSqrt=T IScMMF=    -3 MM Scaling Factor =       0.00000
 En-DIIS/RFO-DIIS/Sim-DIIS IScMMF=       -3 using points:     3    2
 Iter=   1 RLamda= 0.00000000D+00 Sum=-2.49049861D-08.
 Iter=   2 RLamda=-2.49049861D-08 Sum=-2.49049816D-08.
 RFO step:  Lambda=-2.49049861D-08.
 NNeg= 0 NGDIIS= 2 SimSw=  2.50D-03 Rises=F DC= -1.45D-05 SmlDif=  1.00D-05
 NRisDI= 0 DoIntr=F SqrtH=F CThrHd= 10.0 CDAdj=  3.0
 RMS Error=  0.1610600124D-03 NUsed= 2 OKEnD=T EnDIS=F
 Energy Point     1  -0.3431522701D+03
 Energy Point     2  -0.3431522556D+03
 Total En-DIIS matrix:
                 1             2             3 
      1   0.000000D+00 -0.100000D+01 -0.100000D+01
      2  -0.100000D+01  0.000000D+00  0.279995D-04
      3  -0.100000D+01  0.279995D-04  0.000000D+00
 Total RFO-DIIS matrix:
                 1             2             3 
      1   0.000000D+00 -0.100000D+01 -0.100000D+01
      2  -0.100000D+01  0.181582D-06  0.570148D-05
      3  -0.100000D+01  0.570148D-05  0.286367D-03
 InvSVX:  RCond= 6.88D-05 Info=           0 Equed=N FErr=  9.28D-16 BErr=  7.28D-17
 DidBck=F Rises=F RFO-DIIS coefs:    1.02006   -0.02006
 Iteration  1 RMS(Cart)=  0.00020737 RMS(Int)=  0.00000039
 Iteration  2 RMS(Cart)=  0.00000002 RMS(Int)=  0.00000039
 ITry= 1 IFail=0 DXMaxC= 2.90D-04 DCOld= 1.00D+10 DXMaxT= 3.00D-01 DXLimC= 3.00D+00 Rises=F
 ClnCor:  largest displacement from symmetrization is 1.47D-06 for atom     4.
 Variable       Old X    -DE/DX   Delta X   Delta X   Delta X     New X
                                 (Linear)    (Quad)   (Total)
    R1        2.71521  -0.00003   0.00005  -0.00015  -0.00010   2.71511
    R2        2.71521  -0.00003   0.00005  -0.00015  -0.00010   2.71511
    R3        2.71521  -0.00003   0.00005  -0.00015  -0.00010   2.71511
    A1        1.61562  -0.00001  -0.00016  -0.00003  -0.00019   1.61543
    A2        1.61562  -0.00003  -0.00016  -0.00004  -0.00019   1.61543
    A3        1.61562  -0.00003  -0.00016  -0.00004  -0.00019   1.61543
    D1        1.61773  -0.00002  -0.00017  -0.00004  -0.00021   1.61752
         Item               Value     Threshold  Converged?
 Maximum Force            0.000029     0.000450     YES
 RMS     Force            0.000024     0.000300     YES
 Maximum Displacement     0.000289     0.001800     YES
 RMS     Displacement     0.000207     0.001200     YES
 Predicted change in Energy=-1.245183D-08
 Optimization completed.
    -- Stationary point found.
                           ----------------------------
                           !   Optimized Parameters   !
                           ! (Angstroms and Degrees)  !
 --------------------------                            --------------------------
 ! Name  Definition              Value          Derivative Info.                !
 --------------------------------------------------------------------------------
 ! R1    R(1,2)                  1.4368         -DE/DX =    0.0                 !
 ! R2    R(1,3)                  1.4368         -DE/DX =    0.0                 !
 ! R3    R(1,4)                  1.4368         -DE/DX =    0.0                 !
 ! A1    A(2,1,3)               92.5685         -DE/DX =    0.0                 !
 ! A2    A(2,1,4)               92.5685         -DE/DX =    0.0                 !
 ! A3    A(3,1,4)               92.5685         -DE/DX =    0.0                 !
 ! D1    D(2,1,4,3)             92.6891         -DE/DX =    0.0                 !
 --------------------------------------------------------------------------------
 Lowest energy point so far.  Saving SCF results.
 Largest change from initial coordinates is atom    2       0.029 Angstoms.
 GradGradGradGradGradGradGradGradGradGradGradGradGradGradGradGradGradGrad

 Leave Link  103 at Wed Oct  7 13:19:43 2020, MaxMem=  2684354560 cpu:               2.3 elap:               0.8
 (Enter /udrive/faculty/rpeverati/g16/g16/l202.exe)
                          Input orientation:                          
 ---------------------------------------------------------------------
 Center     Atomic      Atomic             Coordinates (Angstroms)
 Number     Number       Type             X           Y           Z
 ---------------------------------------------------------------------
      1         15           0       -0.000000   -0.000000    0.593641
      2          1           0        0.599581    1.038504   -0.197862
      3          1           0        0.599581   -1.038504   -0.197862
      4          1           0       -1.199161    0.000000   -0.197862
 ---------------------------------------------------------------------
                    Distance matrix (angstroms):
                    1          2          3          4
     1  P    0.000000
     2  H    1.436825   0.000000
     3  H    1.436825   2.077008   0.000000
     4  H    1.436825   2.077008   2.077008   0.000000
 Stoichiometry    H3P
 Framework group  C3V[C3(P),3SGV(H)]
 Deg. of freedom     2
 Full point group                 C3V     NOp   6
 RotChk:  IX=0 Diff= 1.57D-16
 Largest Abelian subgroup         CS      NOp   2
 Largest concise Abelian subgroup CS      NOp   2
                         Standard orientation:                         
 ---------------------------------------------------------------------
 Center     Atomic      Atomic             Coordinates (Angstroms)
 Number     Number       Type             X           Y           Z
 ---------------------------------------------------------------------
      1         15           0        0.000000    0.000000    0.131917
      2          1           0        0.000000    1.199161   -0.659586
      3          1           0        1.038504   -0.599581   -0.659586
      4          1           0       -1.038504   -0.599581   -0.659586
 ---------------------------------------------------------------------
 Rotational constants (GHZ):         129.5993935         129.5993935         116.2400366
 Leave Link  202 at Wed Oct  7 13:19:44 2020, MaxMem=  2684354560 cpu:               1.9 elap:               0.8
 (Enter /udrive/faculty/rpeverati/g16/g16/l601.exe)
 Copying SCF densities to generalized density rwf, IOpCl= 0 IROHF=0.

 **********************************************************************

            Population analysis using the SCF density.

 **********************************************************************

 Orbital symmetries:
       Occupied  (A1) (A1) (E) (E) (A1) (A1) (E) (E) (A1)
       Virtual   (E) (E) (A1) (E) (E) (A1) (A1) (E) (E) (A1) (E)
                 (E) (A1) (E) (E)
 The electronic state is 1-A1.
 Alpha  occ. eigenvalues --  -76.35061  -6.31344  -4.53050  -4.53050  -4.52578
 Alpha  occ. eigenvalues --   -0.59005  -0.34794  -0.34794  -0.24627
 Alpha virt. eigenvalues --   -0.00009  -0.00009   0.08020   0.25468   0.25468
 Alpha virt. eigenvalues --    0.27433   0.36309   0.60623   0.60623   0.62455
 Alpha virt. eigenvalues --    0.63604   0.63604   0.87841   1.06718   1.06718
          Condensed to atoms (all electrons):
               1          2          3          4
     1  P   14.184834   0.319075   0.319075   0.319075
     2  H    0.319075   0.678028  -0.022228  -0.022228
     3  H    0.319075  -0.022228   0.678028  -0.022228
     4  H    0.319075  -0.022228  -0.022228   0.678028
 Mulliken charges:
               1
     1  P   -0.142060
     2  H    0.047353
     3  H    0.047353
     4  H    0.047353
 Sum of Mulliken charges =   0.00000
 Mulliken charges with hydrogens summed into heavy atoms:
               1
     1  P    0.000000
 Electronic spatial extent (au):  <R**2>=             55.3739
 Charge=              0.0000 electrons
 Dipole moment (field-independent basis, Debye):
    X=              0.0000    Y=              0.0000    Z=             -1.0199  Tot=              1.0199
 Quadrupole moment (field-independent basis, Debye-Ang):
   XX=            -14.6489   YY=            -14.6489   ZZ=            -16.9384
   XY=             -0.0000   XZ=             -0.0000   YZ=             -0.0000
 Traceless Quadrupole moment (field-independent basis, Debye-Ang):
   XX=              0.7632   YY=              0.7632   ZZ=             -1.5263
   XY=             -0.0000   XZ=             -0.0000   YZ=             -0.0000
 Octapole moment (field-independent basis, Debye-Ang**2):
  XXX=              0.0000  YYY=             -0.0160  ZZZ=             -1.9997  XYY=              0.0000
  XXY=              0.0160  XXZ=             -0.3941  XZZ=              0.0000  YZZ=              0.0000
  YYZ=             -0.3941  XYZ=              0.0000
 Hexadecapole moment (field-independent basis, Debye-Ang**3):
 XXXX=            -30.2706 YYYY=            -30.2706 ZZZZ=            -34.9653 XXXY=             -0.0000
 XXXZ=             -0.0000 YYYX=              0.0000 YYYZ=             -0.3967 ZZZX=             -0.0000
 ZZZY=             -0.0000 XXYY=            -10.0902 XXZZ=            -10.5475 YYZZ=            -10.5475
 XXYZ=              0.3967 YYXZ=             -0.0000 ZZXY=              0.0000
 N-N= 1.733766989638D+01 E-N=-8.504313732221D+02  KE= 3.423161448529D+02
 No NMR shielding tensors so no spin-rotation constants.
 Leave Link  601 at Wed Oct  7 13:19:45 2020, MaxMem=  2684354560 cpu:               3.1 elap:               0.9
 (Enter /udrive/faculty/rpeverati/g16/g16/l9999.exe)

 Test job not archived.
 1\1\GINC-NODE56\FOpt\RBP86\6-31G(d)\H3P1\RPEVERATI\07-Oct-2020\0\\#P O
 pt(MaxCyc=100) BP86/6-31G* 5D 7F Integral=UltraFineGrid SCF=(NoSymm,XQ
 C,MaxCyc=120) IOp(1/33=1)\\TS search on BH76.\\0,1\P,0.,0.,0.593640955
 2\H,0.59958055,1.0385039758,-0.1978624632\H,0.59958055,-1.0385039758,-
 0.1978624632\H,-1.1991610999,0.,-0.1978624632\\Version=ES64L-G16RevA.0
 3\State=1-A1\HF=-343.1522701\RMSD=1.299e-09\RMSF=1.502e-05\Dipole=0.,0
 .,-0.4012568\Quadrupole=0.567401,0.567401,-1.1348019,0.,0.,0.\PG=C03V 
 [C3(P1),3SGV(H1)]\\@


 YOU SHOULDN'T LET PEOPLE DRIVE YOU CRAZY
 WHEN YOU KNOW IT'S WITHIN WALKING DISTANCE.
 Job cpu time:       0 days  0 hours  2 minutes 49.4 seconds.
 Elapsed time:       0 days  0 hours  0 minutes 36.0 seconds.
 File lengths (MBytes):  RWF=      5 Int=      0 D2E=      0 Chk=      1 Scr=      1
 Normal termination of Gaussian 16 at Wed Oct  7 13:19:47 2020.
