 Entering Gaussian System, Link 0=g16
 Input=MN_76_PH2_BH76_BP86_631Gs.in
 Output=MN_76_PH2_BH76_BP86_631Gs.log
 Initial command:
 /udrive/faculty/rpeverati/g16/g16/l1.exe "/udrive/scratch-directories/gaussian09/rpeverati/Gau-25595.inp" -scrdir="/udrive/scratch-directories/gaussian09/rpeverati/"
 Entering Link 1 = /udrive/faculty/rpeverati/g16/g16/l1.exe PID=     25612.
  
 Copyright (c) 1988,1990,1992,1993,1995,1998,2003,2009,2016,
            Gaussian, Inc.  All Rights Reserved.
  
 This is part of the Gaussian(R) 16 program.  It is based on
 the Gaussian(R) 09 system (copyright 2009, Gaussian, Inc.),
 the Gaussian(R) 03 system (copyright 2003, Gaussian, Inc.),
 the Gaussian(R) 98 system (copyright 1998, Gaussian, Inc.),
 the Gaussian(R) 94 system (copyright 1995, Gaussian, Inc.),
 the Gaussian 92(TM) system (copyright 1992, Gaussian, Inc.),
 the Gaussian 90(TM) system (copyright 1990, Gaussian, Inc.),
 the Gaussian 88(TM) system (copyright 1988, Gaussian, Inc.),
 the Gaussian 86(TM) system (copyright 1986, Carnegie Mellon
 University), and the Gaussian 82(TM) system (copyright 1983,
 Carnegie Mellon University). Gaussian is a federally registered
 trademark of Gaussian, Inc.
  
 This software contains proprietary and confidential information,
 including trade secrets, belonging to Gaussian, Inc.
  
 This software is provided under written license and may be
 used, copied, transmitted, or stored only in accord with that
 written license.
  
 The following legend is applicable only to US Government
 contracts under FAR:
  
                    RESTRICTED RIGHTS LEGEND
  
 Use, reproduction and disclosure by the US Government is
 subject to restrictions as set forth in subparagraphs (a)
 and (c) of the Commercial Computer Software - Restricted
 Rights clause in FAR 52.227-19.
  
 Gaussian, Inc.
 340 Quinnipiac St., Bldg. 40, Wallingford CT 06492
  
  
 ---------------------------------------------------------------
 Warning -- This program may not be used in any manner that
 competes with the business of Gaussian, Inc. or will provide
 assistance to any competitor of Gaussian, Inc.  The licensee
 of this program is prohibited from giving any competitor of
 Gaussian, Inc. access to this program.  By using this program,
 the user acknowledges that Gaussian, Inc. is engaged in the
 business of creating and licensing software in the field of
 computational chemistry and represents and warrants to the
 licensee that it is not a competitor of Gaussian, Inc. and that
 it will not use this program in any manner prohibited above.
 ---------------------------------------------------------------
  

 Cite this work as:
 Gaussian 16, Revision A.03,
 M. J. Frisch, G. W. Trucks, H. B. Schlegel, G. E. Scuseria, 
 M. A. Robb, J. R. Cheeseman, G. Scalmani, V. Barone, 
 G. A. Petersson, H. Nakatsuji, X. Li, M. Caricato, A. V. Marenich, 
 J. Bloino, B. G. Janesko, R. Gomperts, B. Mennucci, H. P. Hratchian, 
 J. V. Ortiz, A. F. Izmaylov, J. L. Sonnenberg, D. Williams-Young, 
 F. Ding, F. Lipparini, F. Egidi, J. Goings, B. Peng, A. Petrone, 
 T. Henderson, D. Ranasinghe, V. G. Zakrzewski, J. Gao, N. Rega, 
 G. Zheng, W. Liang, M. Hada, M. Ehara, K. Toyota, R. Fukuda, 
 J. Hasegawa, M. Ishida, T. Nakajima, Y. Honda, O. Kitao, H. Nakai, 
 T. Vreven, K. Throssell, J. A. Montgomery, Jr., J. E. Peralta, 
 F. Ogliaro, M. J. Bearpark, J. J. Heyd, E. N. Brothers, K. N. Kudin, 
 V. N. Staroverov, T. A. Keith, R. Kobayashi, J. Normand, 
 K. Raghavachari, A. P. Rendell, J. C. Burant, S. S. Iyengar, 
 J. Tomasi, M. Cossi, J. M. Millam, M. Klene, C. Adamo, R. Cammi, 
 J. W. Ochterski, R. L. Martin, K. Morokuma, O. Farkas, 
 J. B. Foresman, and D. J. Fox, Gaussian, Inc., Wallingford CT, 2016.
 
 ******************************************
 Gaussian 16:  ES64L-G16RevA.03 25-Dec-2016
                 7-Oct-2020 
 ******************************************
 %NoSave
 %nproc=12
 Will use up to   12 processors via shared memory.
 %mem=20GB
 %chk=MN_76_PH2_BH76_BP86_631Gs
 ----------------------------------------------------------------------
 #P Opt(MaxCyc=100) BP86/6-31G* 5D 7F Integral=UltraFineGrid SCF=(NoSym
 m,XQC,MaxCyc=120) IOp(1/33=1)
 ----------------------------------------------------------------------
 1/6=100,18=20,19=15,26=4,33=1,38=1/1,3;
 2/9=110,12=2,17=6,18=5,40=1/2;
 3/5=1,6=6,7=1,8=11,11=2,25=1,30=1,71=1,74=404,75=-5/1,2,3;
 4/9=2/1;
 5/5=2,7=120,8=3,13=1,38=5/2,8;
 6/7=2,8=2,9=2,10=2,28=1/1;
 7//1,2,3,16;
 1/6=100,18=20,19=15,26=4,33=1/3(2);
 2/9=110/2;
 99//99;
 2/9=110/2;
 3/5=1,6=6,7=1,8=11,11=2,25=1,30=1,71=1,74=404,75=-5/1,2,3;
 4/5=5,9=2,16=3,69=1/1;
 5/5=2,7=120,8=3,13=1,38=5/2,8;
 7//1,2,3,16;
 1/6=100,18=20,19=15,26=4,33=1/3(-5);
 2/9=110/2;
 6/7=2,8=2,9=2,10=2,19=2,28=1/1;
 99/9=1/99;
 Leave Link    1 at Wed Oct  7 13:18:54 2020, MaxMem=  2684354560 cpu:               6.4 elap:               0.7
 (Enter /udrive/faculty/rpeverati/g16/g16/l101.exe)
 ONIOM data not found on unit 2.
 ------------------
 TS search on BH76.
 ------------------
 TstMul:  ICh=     0
 TstMul:  Mul=     2
 TstMul:  ICh=     0
 TstMul:  Mul=     2
 Symbolic Z-matrix:
 Charge =  0 Multiplicity = 2
 P                     0.        0.        0.11566 
 H                     0.        1.02013  -0.86743 
 H                     0.       -1.02013  -0.86743 
 
 RdStrC is calling ZToCFu for IStruc=1 NZ=     3.
 PrtBox:  NBox=     1 Levels=  1 BoxLen=    8.00 SMaxX=        3.86
          Shift=            0.000000            1.927770            1.639200
 Box      1 Number                   0 centers from      1 to      3:
 After GenITR:
 ITRead=  0  0  0
 MicOpt= -1 -1 -1
 ITRead=  0  0  0
 MicOpt= -1 -1 -1
 NAtoms=      3 NQM=        3 NQMF=       0 NMMI=      0 NMMIF=      0
                NMic=       0 NMicF=      0.
                    Isotopes and Nuclear Properties:
 (Nuclear quadrupole moments (NQMom) in fm**2, nuclear magnetic moments (NMagM)
  in nuclear magnetons)

  Atom         1           2           3
 IAtWgt=          31           1           1
 AtmWgt=  30.9737634   1.0078250   1.0078250
 NucSpn=           1           1           1
 AtZEff=   0.0000000   0.0000000   0.0000000
 NQMom=    0.0000000   0.0000000   0.0000000
 NMagM=    1.1316000   2.7928460   2.7928460
 AtZNuc=  15.0000000   1.0000000   1.0000000
 No MM parameters found.
 Leave Link  101 at Wed Oct  7 13:18:55 2020, MaxMem=  2684354560 cpu:               8.7 elap:               1.0
 (Enter /udrive/faculty/rpeverati/g16/g16/l103.exe)

 GradGradGradGradGradGradGradGradGradGradGradGradGradGradGradGradGradGrad
 Berny optimization.
 Optmz: redundant internal coordinate code flag= 1
 Initialization pass.
                           ----------------------------
                           !    Initial Parameters    !
                           ! (Angstroms and Degrees)  !
 --------------------------                            --------------------------
 ! Name  Definition              Value          Derivative Info.                !
 --------------------------------------------------------------------------------
 ! R1    R(1,2)                  1.4167         estimate D2E/DX2                !
 ! R2    R(1,3)                  1.4167         estimate D2E/DX2                !
 ! A1    A(2,1,3)               92.119          estimate D2E/DX2                !
 --------------------------------------------------------------------------------
 Maximum allowed force set to 1.00D+20.
 Trust Radius=3.00D-01 FncErr=1.00D-07 GrdErr=1.00D-06 EigMax=2.50D+02 EigMin=1.00D-04
 Number of steps in this run=    100 maximum allowed number of steps=    100.
 GradGradGradGradGradGradGradGradGradGradGradGradGradGradGradGradGradGrad

 Leave Link  103 at Wed Oct  7 13:18:56 2020, MaxMem=  2684354560 cpu:               1.3 elap:               0.6
 (Enter /udrive/faculty/rpeverati/g16/g16/l202.exe)
                          Input orientation:                          
 ---------------------------------------------------------------------
 Center     Atomic      Atomic             Coordinates (Angstroms)
 Number     Number       Type             X           Y           Z
 ---------------------------------------------------------------------
      1         15           0        0.000000    0.000000    0.115657
      2          1           0        0.000000    1.020132   -0.867427
      3          1           0        0.000000   -1.020132   -0.867427
 ---------------------------------------------------------------------
                    Distance matrix (angstroms):
                    1          2          3
     1  P    0.000000
     2  H    1.416730   0.000000
     3  H    1.416730   2.040264   0.000000
 Stoichiometry    H2P(2)
 Framework group  C2V[C2(P),SGV(H2)]
 Deg. of freedom     2
 Full point group                 C2V     NOp   4
 Largest Abelian subgroup         C2V     NOp   4
 Largest concise Abelian subgroup C2      NOp   2
                         Standard orientation:                         
 ---------------------------------------------------------------------
 Center     Atomic      Atomic             Coordinates (Angstroms)
 Number     Number       Type             X           Y           Z
 ---------------------------------------------------------------------
      1         15           0        0.000000   -0.000000    0.115657
      2          1           0        0.000000    1.020132   -0.867427
      3          1           0       -0.000000   -1.020132   -0.867427
 ---------------------------------------------------------------------
 Rotational constants (GHZ):         276.3129231         240.9291565         128.7053821
 Leave Link  202 at Wed Oct  7 13:18:57 2020, MaxMem=  2684354560 cpu:               1.1 elap:               0.4
 (Enter /udrive/faculty/rpeverati/g16/g16/l301.exe)
 Standard basis: 6-31G(d) (5D, 7F)
 Ernie: Thresh=  0.10000D-02 Tol=  0.10000D-05 Strict=F.
 There are    12 symmetry adapted cartesian basis functions of A1  symmetry.
 There are     1 symmetry adapted cartesian basis functions of A2  symmetry.
 There are     4 symmetry adapted cartesian basis functions of B1  symmetry.
 There are     6 symmetry adapted cartesian basis functions of B2  symmetry.
 There are    11 symmetry adapted basis functions of A1  symmetry.
 There are     1 symmetry adapted basis functions of A2  symmetry.
 There are     4 symmetry adapted basis functions of B1  symmetry.
 There are     6 symmetry adapted basis functions of B2  symmetry.
    22 basis functions,    60 primitive gaussians,    23 cartesian basis functions
     9 alpha electrons        8 beta electrons
       nuclear repulsion energy        11.4649718428 Hartrees.
 IExCor=  404 DFT=T Ex=B Corr=P86 ExCW=0 ScaHFX=  0.000000
 ScaDFX=  1.000000  1.000000  1.000000  1.000000 ScalE2=  1.000000  1.000000
 IRadAn=      5 IRanWt=     -1 IRanGd=            0 ICorTp=0 IEmpDi=  4
 NAtoms=    3 NActive=    3 NUniq=    2 SFac= 2.25D+00 NAtFMM=   60 NAOKFM=F Big=F
 Integral buffers will be    131072 words long.
 Raffenetti 2 integral format.
 Two-electron integral symmetry is turned on.
 Leave Link  301 at Wed Oct  7 13:18:58 2020, MaxMem=  2684354560 cpu:               2.1 elap:               0.6
 (Enter /udrive/faculty/rpeverati/g16/g16/l302.exe)
 NPDir=0 NMtPBC=     1 NCelOv=     1 NCel=       1 NClECP=     1 NCelD=      1
         NCelK=      1 NCelE2=     1 NClLst=     1 CellRange=     0.0.
 One-electron integrals computed using PRISM.
 One-electron integral symmetry used in STVInt
 NBasis=    22 RedAO= T EigKep=  3.32D-02  NBF=    11     1     4     6
 NBsUse=    22 1.00D-06 EigRej= -1.00D+00 NBFU=    11     1     4     6
 Precomputing XC quadrature grid using
 IXCGrd= 4 IRadAn=           5 IRanWt=          -1 IRanGd=           0 AccXCQ= 0.00D+00.
 Generated NRdTot=       0 NPtTot=           0 NUsed=           0 NTot=          32
 NSgBfM=    23    23    23    23    23 MxSgAt=     3 MxSgA2=     3.
 Leave Link  302 at Wed Oct  7 13:18:59 2020, MaxMem=  2684354560 cpu:               3.6 elap:               0.7
 (Enter /udrive/faculty/rpeverati/g16/g16/l303.exe)
 DipDrv:  MaxL=1.
 Leave Link  303 at Wed Oct  7 13:18:59 2020, MaxMem=  2684354560 cpu:               1.7 elap:               0.5
 (Enter /udrive/faculty/rpeverati/g16/g16/l401.exe)
 SCF N**3 symmetry information disabled.
 ExpMin= 9.98D-02 ExpMax= 1.94D+04 ExpMxC= 2.91D+03 IAcc=3 IRadAn=         5 AccDes= 0.00D+00
 Harris functional with IExCor=  404 and IRadAn=       5 diagonalized for initial guess.
 HarFok:  IExCor=  404 AccDes= 0.00D+00 IRadAn=         5 IDoV= 1 UseB2=F ITyADJ=14
 ICtDFT=  3500011 ScaDFX=  1.000000  1.000000  1.000000  1.000000
 FoFCou: FMM=F IPFlag=           0 FMFlag=      100000 FMFlg1=           0
         NFxFlg=           0 DoJE=T BraDBF=F KetDBF=T FulRan=T
         wScrn=  0.000000 ICntrl=       500 IOpCl=  0 I1Cent=   200000004 NGrid=           0
         NMat0=    1 NMatS0=      1 NMatT0=    0 NMatD0=    1 NMtDS0=    0 NMtDT0=    0
 Petite list used in FoFCou.
 Harris En= -342.477336543497    
 JPrj=0 DoOrth=F DoCkMO=F.
 Initial guess orbital symmetries:
 Alpha Orbitals:
       Occupied  (A1) (A1) (B2) (A1) (B1) (A1) (B2) (A1) (B1)
       Virtual   (B2) (A1) (A1) (B2) (A1) (B1) (A1) (A2) (B1) (B2)
                 (A1) (A1) (B2)
 Beta  Orbitals:
       Occupied  (A1) (A1) (B2) (A1) (B1) (A1) (B2) (A1)
       Virtual   (B1) (B2) (A1) (A1) (B2) (A1) (B1) (A1) (A2) (B1)
                 (B2) (A1) (A1) (B2)
 The electronic state of the initial guess is 2-B1.
 Initial guess <Sx>= 0.0000 <Sy>= 0.0000 <Sz>= 0.5000 <S**2>= 0.7500 S= 0.5000
 Leave Link  401 at Wed Oct  7 13:19:00 2020, MaxMem=  2684354560 cpu:               4.9 elap:               0.8
 (Enter /udrive/faculty/rpeverati/g16/g16/l502.exe)
 Keep J ints in memory in symmetry-blocked form, NReq=10376515.
 FoFCou: FMM=F IPFlag=           0 FMFlag=           0 FMFlg1=           0
         NFxFlg=           0 DoJE=F BraDBF=F KetDBF=F FulRan=T
         wScrn=  0.000000 ICntrl=       600 IOpCl=  0 I1Cent=           0 NGrid=           0
         NMat0=    1 NMatS0=    253 NMatT0=    0 NMatD0=    1 NMtDS0=    0 NMtDT0=    0
 Petite list used in FoFCou.
 UHF open shell SCF:
 Using DIIS extrapolation, IDIIS=  1040.
 NGot=  2684354560 LenX=  2684342189 LenY=  2684341219
 Requested convergence on RMS density matrix=1.00D-08 within 120 cycles.
 Requested convergence on MAX density matrix=1.00D-06.
 Requested convergence on             energy=1.00D-06.
 No special actions if energy rises.
 Integral accuracy reduced to 1.0D-05 until final iterations.

 Cycle   1  Pass 0  IDiag  1:
 E= -342.510721651774    
 DIIS: error= 1.02D-02 at cycle   1 NSaved=   1.
 NSaved= 1 IEnMin= 1 EnMin= -342.510721651774     IErMin= 1 ErrMin= 1.02D-02
 ErrMax= 1.02D-02  0.00D+00 EMaxC= 1.00D-01 BMatC= 1.12D-02 BMatP= 1.12D-02
 IDIUse=3 WtCom= 8.98D-01 WtEn= 1.02D-01
 Coeff-Com:  0.100D+01
 Coeff-En:   0.100D+01
 Coeff:      0.100D+01
 Gap=     0.221 Goal=   None    Shift=    0.000
 Gap=     0.104 Goal=   None    Shift=    0.000
 GapD=    0.104 DampG=1.000 DampE=0.500 DampFc=0.5000 IDamp=-1.
 Damping current iteration by 5.00D-01
 RMSDP=4.59D-03 MaxDP=3.02D-02              OVMax= 5.96D-02

 Cycle   2  Pass 0  IDiag  1:
 E= -342.512866664739     Delta-E=       -0.002145012965 Rises=F Damp=T
 DIIS: error= 3.90D-03 at cycle   2 NSaved=   2.
 NSaved= 2 IEnMin= 2 EnMin= -342.512866664739     IErMin= 2 ErrMin= 3.90D-03
 ErrMax= 3.90D-03  0.00D+00 EMaxC= 1.00D-01 BMatC= 1.53D-03 BMatP= 1.12D-02
 IDIUse=3 WtCom= 9.61D-01 WtEn= 3.90D-02
 Coeff-Com: -0.348D+00 0.135D+01
 Coeff-En:   0.000D+00 0.100D+01
 Coeff:     -0.334D+00 0.133D+01
 Gap=     0.218 Goal=   None    Shift=    0.000
 Gap=     0.107 Goal=   None    Shift=    0.000
 RMSDP=2.54D-03 MaxDP=2.74D-02 DE=-2.15D-03 OVMax= 3.03D-02

 Cycle   3  Pass 0  IDiag  1:
 E= -342.514800829706     Delta-E=       -0.001934164967 Rises=F Damp=F
 DIIS: error= 2.20D-03 at cycle   3 NSaved=   3.
 NSaved= 3 IEnMin= 3 EnMin= -342.514800829706     IErMin= 3 ErrMin= 2.20D-03
 ErrMax= 2.20D-03  0.00D+00 EMaxC= 1.00D-01 BMatC= 4.19D-04 BMatP= 1.53D-03
 IDIUse=3 WtCom= 9.78D-01 WtEn= 2.20D-02
 Coeff-Com: -0.242D+00 0.548D+00 0.694D+00
 Coeff-En:   0.000D+00 0.000D+00 0.100D+01
 Coeff:     -0.237D+00 0.536D+00 0.701D+00
 Gap=     0.219 Goal=   None    Shift=    0.000
 Gap=     0.109 Goal=   None    Shift=    0.000
 RMSDP=1.08D-03 MaxDP=8.35D-03 DE=-1.93D-03 OVMax= 7.68D-03

 Cycle   4  Pass 0  IDiag  1:
 E= -342.514986127240     Delta-E=       -0.000185297534 Rises=F Damp=F
 DIIS: error= 3.56D-04 at cycle   4 NSaved=   4.
 NSaved= 4 IEnMin= 4 EnMin= -342.514986127240     IErMin= 4 ErrMin= 3.56D-04
 ErrMax= 3.56D-04  0.00D+00 EMaxC= 1.00D-01 BMatC= 9.63D-06 BMatP= 4.19D-04
 IDIUse=3 WtCom= 9.96D-01 WtEn= 3.56D-03
 Coeff-Com: -0.340D-01 0.551D-01 0.163D+00 0.816D+00
 Coeff-En:   0.000D+00 0.000D+00 0.000D+00 0.100D+01
 Coeff:     -0.338D-01 0.549D-01 0.163D+00 0.816D+00
 Gap=     0.220 Goal=   None    Shift=    0.000
 Gap=     0.110 Goal=   None    Shift=    0.000
 RMSDP=1.60D-04 MaxDP=2.09D-03 DE=-1.85D-04 OVMax= 1.06D-03

 Cycle   5  Pass 0  IDiag  1:
 E= -342.514990112723     Delta-E=       -0.000003985483 Rises=F Damp=F
 DIIS: error= 1.01D-04 at cycle   5 NSaved=   5.
 NSaved= 5 IEnMin= 5 EnMin= -342.514990112723     IErMin= 5 ErrMin= 1.01D-04
 ErrMax= 1.01D-04  0.00D+00 EMaxC= 1.00D-01 BMatC= 7.36D-07 BMatP= 9.63D-06
 IDIUse=3 WtCom= 9.99D-01 WtEn= 1.01D-03
 Coeff-Com:  0.101D-01-0.310D-01-0.375D-02 0.211D+00 0.814D+00
 Coeff-En:   0.000D+00 0.000D+00 0.000D+00 0.000D+00 0.100D+01
 Coeff:      0.101D-01-0.310D-01-0.375D-02 0.210D+00 0.814D+00
 Gap=     0.220 Goal=   None    Shift=    0.000
 Gap=     0.110 Goal=   None    Shift=    0.000
 RMSDP=3.36D-05 MaxDP=3.77D-04 DE=-3.99D-06 OVMax= 2.59D-04

 Cycle   6  Pass 0  IDiag  1:
 E= -342.514990427298     Delta-E=       -0.000000314575 Rises=F Damp=F
 DIIS: error= 2.32D-05 at cycle   6 NSaved=   6.
 NSaved= 6 IEnMin= 6 EnMin= -342.514990427298     IErMin= 6 ErrMin= 2.32D-05
 ErrMax= 2.32D-05  0.00D+00 EMaxC= 1.00D-01 BMatC= 1.41D-08 BMatP= 7.36D-07
 IDIUse=1 WtCom= 1.00D+00 WtEn= 0.00D+00
 Coeff-Com:  0.241D-02-0.513D-02-0.476D-02-0.946D-02 0.700D-01 0.947D+00
 Coeff:      0.241D-02-0.513D-02-0.476D-02-0.946D-02 0.700D-01 0.947D+00
 Gap=     0.220 Goal=   None    Shift=    0.000
 Gap=     0.110 Goal=   None    Shift=    0.000
 RMSDP=5.33D-06 MaxDP=6.05D-05 DE=-3.15D-07 OVMax= 6.36D-05

 Initial convergence to 1.0D-05 achieved.  Increase integral accuracy.
 Cycle   7  Pass 1  IDiag  1:
 E= -342.514992585309     Delta-E=       -0.000002158011 Rises=F Damp=F
 DIIS: error= 4.21D-06 at cycle   1 NSaved=   1.
 NSaved= 1 IEnMin= 1 EnMin= -342.514992585309     IErMin= 1 ErrMin= 4.21D-06
 ErrMax= 4.21D-06  0.00D+00 EMaxC= 1.00D-01 BMatC= 7.05D-10 BMatP= 7.05D-10
 IDIUse=1 WtCom= 1.00D+00 WtEn= 0.00D+00
 Coeff-Com:  0.100D+01
 Coeff:      0.100D+01
 Gap=     0.220 Goal=   None    Shift=    0.000
 Gap=     0.110 Goal=   None    Shift=    0.000
 RMSDP=5.33D-06 MaxDP=6.05D-05 DE=-2.16D-06 OVMax= 2.00D-05

 Cycle   8  Pass 1  IDiag  1:
 E= -342.514992585763     Delta-E=       -0.000000000454 Rises=F Damp=F
 DIIS: error= 2.50D-06 at cycle   2 NSaved=   2.
 NSaved= 2 IEnMin= 2 EnMin= -342.514992585763     IErMin= 2 ErrMin= 2.50D-06
 ErrMax= 2.50D-06  0.00D+00 EMaxC= 1.00D-01 BMatC= 2.45D-10 BMatP= 7.05D-10
 IDIUse=1 WtCom= 1.00D+00 WtEn= 0.00D+00
 Coeff-Com:  0.291D+00 0.709D+00
 Coeff:      0.291D+00 0.709D+00
 Gap=     0.220 Goal=   None    Shift=    0.000
 Gap=     0.110 Goal=   None    Shift=    0.000
 RMSDP=8.64D-07 MaxDP=8.14D-06 DE=-4.54D-10 OVMax= 8.36D-06

 Cycle   9  Pass 1  IDiag  1:
 E= -342.514992585860     Delta-E=       -0.000000000097 Rises=F Damp=F
 DIIS: error= 1.09D-06 at cycle   3 NSaved=   3.
 NSaved= 3 IEnMin= 3 EnMin= -342.514992585860     IErMin= 3 ErrMin= 1.09D-06
 ErrMax= 1.09D-06  0.00D+00 EMaxC= 1.00D-01 BMatC= 4.58D-11 BMatP= 2.45D-10
 IDIUse=1 WtCom= 1.00D+00 WtEn= 0.00D+00
 Coeff-Com: -0.157D+00 0.214D+00 0.942D+00
 Coeff:     -0.157D+00 0.214D+00 0.942D+00
 Gap=     0.220 Goal=   None    Shift=    0.000
 Gap=     0.110 Goal=   None    Shift=    0.000
 RMSDP=4.30D-07 MaxDP=4.28D-06 DE=-9.74D-11 OVMax= 4.94D-06

 Cycle  10  Pass 1  IDiag  1:
 E= -342.514992585886     Delta-E=       -0.000000000025 Rises=F Damp=F
 DIIS: error= 2.09D-07 at cycle   4 NSaved=   4.
 NSaved= 4 IEnMin= 4 EnMin= -342.514992585886     IErMin= 4 ErrMin= 2.09D-07
 ErrMax= 2.09D-07  0.00D+00 EMaxC= 1.00D-01 BMatC= 2.76D-12 BMatP= 4.58D-11
 IDIUse=1 WtCom= 1.00D+00 WtEn= 0.00D+00
 Coeff-Com: -0.727D-01 0.412D-01 0.343D+00 0.689D+00
 Coeff:     -0.727D-01 0.412D-01 0.343D+00 0.689D+00
 Gap=     0.220 Goal=   None    Shift=    0.000
 Gap=     0.110 Goal=   None    Shift=    0.000
 RMSDP=7.74D-08 MaxDP=5.12D-07 DE=-2.51D-11 OVMax= 8.81D-07

 Cycle  11  Pass 1  IDiag  1:
 E= -342.514992585887     Delta-E=       -0.000000000001 Rises=F Damp=F
 DIIS: error= 2.56D-08 at cycle   5 NSaved=   5.
 NSaved= 5 IEnMin= 5 EnMin= -342.514992585887     IErMin= 5 ErrMin= 2.56D-08
 ErrMax= 2.56D-08  0.00D+00 EMaxC= 1.00D-01 BMatC= 3.81D-14 BMatP= 2.76D-12
 IDIUse=1 WtCom= 1.00D+00 WtEn= 0.00D+00
 Coeff-Com: -0.340D-02-0.229D-02 0.331D-02 0.105D+00 0.898D+00
 Coeff:     -0.340D-02-0.229D-02 0.331D-02 0.105D+00 0.898D+00
 Gap=     0.220 Goal=   None    Shift=    0.000
 Gap=     0.110 Goal=   None    Shift=    0.000
 RMSDP=1.00D-08 MaxDP=6.23D-08 DE=-1.48D-12 OVMax= 1.20D-07

 Cycle  12  Pass 1  IDiag  1:
 E= -342.514992585887     Delta-E=        0.000000000000 Rises=F Damp=F
 DIIS: error= 2.37D-09 at cycle   6 NSaved=   6.
 NSaved= 6 IEnMin= 5 EnMin= -342.514992585887     IErMin= 6 ErrMin= 2.37D-09
 ErrMax= 2.37D-09  0.00D+00 EMaxC= 1.00D-01 BMatC= 4.78D-16 BMatP= 3.81D-14
 IDIUse=1 WtCom= 1.00D+00 WtEn= 0.00D+00
 Coeff-Com:  0.968D-03-0.101D-02-0.638D-02-0.199D-02 0.120D+00 0.888D+00
 Coeff:      0.968D-03-0.101D-02-0.638D-02-0.199D-02 0.120D+00 0.888D+00
 Gap=     0.220 Goal=   None    Shift=    0.000
 Gap=     0.110 Goal=   None    Shift=    0.000
 RMSDP=1.20D-09 MaxDP=1.07D-08 DE= 1.14D-13 OVMax= 1.06D-08

 SCF Done:  E(UB-P86) =  -342.514992586     A.U. after   12 cycles
            NFock= 12  Conv=0.12D-08     -V/T= 2.0022
 <Sx>= 0.0000 <Sy>= 0.0000 <Sz>= 0.5000 <S**2>= 0.7533 S= 0.5016
 <L.S>= 0.000000000000E+00
 KE= 3.417540779395D+02 PE=-8.374561890227D+02 EE= 1.417221466545D+02
 Annihilation of the first spin contaminant:
 S**2 before annihilation     0.7533,   after     0.7500
 Leave Link  502 at Wed Oct  7 13:19:02 2020, MaxMem=  2684354560 cpu:              12.3 elap:               1.5
 (Enter /udrive/faculty/rpeverati/g16/g16/l508.exe)
 QCSCF skips out because SCF is already converged.
 Leave Link  508 at Wed Oct  7 13:19:03 2020, MaxMem=  2684354560 cpu:               0.3 elap:               0.4
 (Enter /udrive/faculty/rpeverati/g16/g16/l601.exe)
 Copying SCF densities to generalized density rwf, IOpCl= 1 IROHF=0.

 **********************************************************************

            Population analysis using the SCF density.

 **********************************************************************

 Orbital symmetries:
 Alpha Orbitals:
       Occupied  (A1) (A1) (B1) (B2) (A1) (A1) (B2) (A1) (B1)
       Virtual   (B2) (A1) (A1) (B2) (B1) (A1) (A2) (B1) (A1) (B2)
                 (A1) (A1) (B2)
 Beta  Orbitals:
       Occupied  (A1) (A1) (B2) (B1) (A1) (A1) (B2) (A1)
       Virtual   (B1) (B2) (A1) (A1) (B2) (A1) (B1) (A1) (B2) (A2)
                 (B1) (A1) (A1) (B2)
 The electronic state is 2-B1.
 Alpha  occ. eigenvalues --  -76.36436  -6.32576  -4.54642  -4.54158  -4.53808
 Alpha  occ. eigenvalues --   -0.58526  -0.35684  -0.27650  -0.21977
 Alpha virt. eigenvalues --   -0.00006   0.04946   0.20480   0.24854   0.26536
 Alpha virt. eigenvalues --    0.27208   0.58480   0.59262   0.60045   0.62876
 Alpha virt. eigenvalues --    0.68140   0.91115   1.07953
  Beta  occ. eigenvalues --  -76.36091  -6.32194  -4.53919  -4.53600  -4.53584
  Beta  occ. eigenvalues --   -0.56156  -0.35087  -0.26338
  Beta virt. eigenvalues --   -0.15365   0.00698   0.07035   0.23315   0.25689
  Beta virt. eigenvalues --    0.28186   0.30781   0.60778   0.63053   0.63624
  Beta virt. eigenvalues --    0.64241   0.73195   0.92520   1.08441
          Condensed to atoms (all electrons):
               1          2          3
     1  P   14.495473   0.272814   0.272814
     2  H    0.272814   0.723126  -0.016489
     3  H    0.272814  -0.016489   0.723126
          Atomic-Atomic Spin Densities.
               1          2          3
     1  P    1.103189  -0.014505  -0.014505
     2  H   -0.014505  -0.025448   0.002864
     3  H   -0.014505   0.002864  -0.025448
 Mulliken charges and spin densities:
               1          2
     1  P   -0.041100   1.074178
     2  H    0.020550  -0.037089
     3  H    0.020550  -0.037089
 Sum of Mulliken charges =  -0.00000   1.00000
 Mulliken charges and spin densities with hydrogens summed into heavy atoms:
               1          2
     1  P   -0.000000   1.000000
 Electronic spatial extent (au):  <R**2>=             46.3576
 Charge=             -0.0000 electrons
 Dipole moment (field-independent basis, Debye):
    X=             -0.0000    Y=              0.0000    Z=             -0.9750  Tot=              0.9750
 Quadrupole moment (field-independent basis, Debye-Ang):
   XX=            -14.9280   YY=            -13.8508   ZZ=            -15.3848
   XY=              0.0000   XZ=             -0.0000   YZ=             -0.0000
 Traceless Quadrupole moment (field-independent basis, Debye-Ang):
   XX=             -0.2068   YY=              0.8704   ZZ=             -0.6636
   XY=              0.0000   XZ=             -0.0000   YZ=             -0.0000
 Octapole moment (field-independent basis, Debye-Ang**2):
  XXX=              0.0000  YYY=              0.0000  ZZZ=             -1.6434  XYY=              0.0000
  XXY=              0.0000  XXZ=             -0.6201  XZZ=              0.0000  YZZ=              0.0000
  YYZ=             -0.2709  XYZ=             -0.0000
 Hexadecapole moment (field-independent basis, Debye-Ang**3):
 XXXX=            -21.7052 YYYY=            -29.2012 ZZZZ=            -32.0921 XXXY=             -0.0000
 XXXZ=             -0.0000 YYYX=             -0.0000 YYYZ=             -0.0000 ZZZX=             -0.0000
 ZZZY=             -0.0000 XXYY=             -8.6104 XXZZ=             -9.0663 YYZZ=             -9.8354
 XXYZ=             -0.0000 YYXZ=             -0.0000 ZZXY=             -0.0000
 N-N= 1.146497184284D+01 E-N=-8.374561891118D+02  KE= 3.417540779395D+02
                          Isotropic Fermi Contact Couplings
        Atom                 a.u.       MegaHertz       Gauss      10(-4) cm-1
     1  P(31)              0.09424     170.66988      60.89926      56.92934
     2  H(1)              -0.01009     -45.11900     -16.09958     -15.05008
     3  H(1)              -0.01009     -45.11900     -16.09958     -15.05008
 --------------------------------------------------------
       Center         ----  Spin Dipole Couplings  ----
                      3XX-RR        3YY-RR        3ZZ-RR
 --------------------------------------------------------
     1   Atom        2.684199     -1.300984     -1.383215
     2   Atom        0.003021      0.001675     -0.004696
     3   Atom        0.003021      0.001675     -0.004696
 --------------------------------------------------------
                        XY            XZ            YZ
 --------------------------------------------------------
     1   Atom        0.000000     -0.000000      0.000000
     2   Atom       -0.000000      0.000000     -0.030402
     3   Atom       -0.000000     -0.000000      0.030402
 --------------------------------------------------------


 ---------------------------------------------------------------------------------
              Anisotropic Spin Dipole Couplings in Principal Axis System
 ---------------------------------------------------------------------------------

       Atom             a.u.   MegaHertz   Gauss  10(-4) cm-1        Axes

              Baa    -1.3832  -299.029  -106.701   -99.745  0.0000  0.0000  1.0000
     1 P(31)  Bbb    -1.3010  -281.252  -100.358   -93.815  0.0000  1.0000  0.0000
              Bcc     2.6842   580.280   207.058   193.561  1.0000 -0.0000  0.0000
 
              Baa    -0.0321   -17.116    -6.107    -5.709 -0.0000  0.6693  0.7430
     2 H(1)   Bbb     0.0030     1.612     0.575     0.538  1.0000  0.0000  0.0000
              Bcc     0.0291    15.504     5.532     5.172 -0.0000  0.7430 -0.6693
 
              Baa    -0.0321   -17.116    -6.107    -5.709  0.0000 -0.6693  0.7430
     3 H(1)   Bbb     0.0030     1.612     0.575     0.538  1.0000  0.0000  0.0000
              Bcc     0.0291    15.504     5.532     5.172 -0.0000  0.7430  0.6693
 

 ---------------------------------------------------------------------------------

 No NMR shielding tensors so no spin-rotation constants.
 Leave Link  601 at Wed Oct  7 13:19:04 2020, MaxMem=  2684354560 cpu:               5.6 elap:               0.9
 (Enter /udrive/faculty/rpeverati/g16/g16/l701.exe)
 ... and contract with generalized density number  0.
 Compute integral first derivatives.
 Leave Link  701 at Wed Oct  7 13:19:05 2020, MaxMem=  2684354560 cpu:               3.2 elap:               0.6
 (Enter /udrive/faculty/rpeverati/g16/g16/l702.exe)
 L702 exits ... SP integral derivatives will be done elsewhere.
 Leave Link  702 at Wed Oct  7 13:19:05 2020, MaxMem=  2684354560 cpu:               1.7 elap:               0.5
 (Enter /udrive/faculty/rpeverati/g16/g16/l703.exe)
 Integral derivatives from FoFJK, PRISM(SPDF).
 Compute integral first derivatives, UseDBF=F ICtDFT=           0.
 Calling FoFJK, ICntrl=      2527 FMM=F ISym2X=1 I1Cent= 0 IOpClX= 0 NMat=1 NMatS=1 NMatT=0.
 FoFJK:  IHMeth= 1 ICntrl=    2527 DoSepK=F KAlg= 0 I1Cent=           0 FoldK=F
 IRaf=         0 NMat=       1 IRICut=       1 DoRegI=T DoRafI=F ISym2E= 1 IDoP0=0 IntGTp=1.
 FoFCou: FMM=F IPFlag=           0 FMFlag=      100000 FMFlg1=         800
         NFxFlg=           0 DoJE=F BraDBF=F KetDBF=F FulRan=T
         wScrn=  0.000000 ICntrl=      2527 IOpCl=  0 I1Cent=           0 NGrid=           0
         NMat0=    1 NMatS0=      1 NMatT0=    0 NMatD0=    1 NMtDS0=    0 NMtDT0=    0
 Petite list used in FoFCou.
 Leave Link  703 at Wed Oct  7 13:19:07 2020, MaxMem=  2684354560 cpu:               6.8 elap:               1.0
 (Enter /udrive/faculty/rpeverati/g16/g16/l716.exe)
 Dipole        =-7.52248184D-19 0.00000000D+00-3.83610095D-01
 ***** Axes restored to original set *****
 -------------------------------------------------------------------
 Center     Atomic                   Forces (Hartrees/Bohr)
 Number     Number              X              Y              Z
 -------------------------------------------------------------------
      1       15          -0.000000000    0.000000000    0.015664738
      2        1           0.000000000    0.006640071   -0.007832369
      3        1           0.000000000   -0.006640071   -0.007832369
 -------------------------------------------------------------------
 Cartesian Forces:  Max     0.015664738 RMS     0.007120058
 Leave Link  716 at Wed Oct  7 13:19:07 2020, MaxMem=  2684354560 cpu:               2.0 elap:               0.6
 (Enter /udrive/faculty/rpeverati/g16/g16/l103.exe)

 GradGradGradGradGradGradGradGradGradGradGradGradGradGradGradGradGradGrad
 Berny optimization.
 Optmz: redundant internal coordinate code flag= 1
 FormGI is forming the generalized inverse of G from B-inverse, IUseBI=4.
 Internal  Forces:  Max     0.010216221 RMS     0.008492711
 Search for a local minimum.
 Step number   1 out of a maximum of  100
 All quantities printed in internal units (Hartrees-Bohrs-Radians)
 RMS Force = .84927D-02 SwitMx=.10000D-02 MixMth= 1
 Mixed Optimization -- RFO/linear search
 Second derivative matrix not updated -- first step.
 The second derivative matrix:
                          R1        R2        A1
           R1           0.21124
           R2           0.00000   0.21124
           A1           0.00000   0.00000   0.16000
 ITU=  0
 Eigenvectors of the second derivative matrix:
                           1         2         3
     Eigenvalues --     0.16000   0.21124   0.21124
   1         R1        -0.00000   0.97330  -0.22954
   2         R2         0.00000   0.22954   0.97330
   3         A1         1.00000  -0.00000  -0.00000
 Iter=   1 RLamda= 0.00000000D+00 Sum=-1.03588907D-03.
 Iter=   2 RLamda=-1.03588907D-03 Sum=-1.03075997D-03.
 Iter=   3 RLamda=-1.03075997D-03 Sum=-1.03078524D-03.
 Iter=   4 RLamda=-1.03078524D-03 Sum=-1.03078512D-03.
 RFO step:  Lambda=-1.03078524D-03 EMin= 1.60000000D-01
 Linear search not attempted -- first point.
 Iteration  1 RMS(Cart)=  0.02804115 RMS(Int)=  0.00018888
 Iteration  2 RMS(Cart)=  0.00030735 RMS(Int)=  0.00000003
 Iteration  3 RMS(Cart)=  0.00000002 RMS(Int)=  0.00000000
 ITry= 1 IFail=0 DXMaxC= 3.34D-02 DCOld= 1.00D+10 DXMaxT= 3.00D-01 DXLimC= 3.00D+00 Rises=F
 ClnCor:  largest displacement from symmetrization is 1.13D-14 for atom     3.
 Variable       Old X    -DE/DX   Delta X   Delta X   Delta X     New X
                                 (Linear)    (Quad)   (Total)
    R1        2.67723   0.01022   0.00000   0.04813   0.04813   2.72536
    R2        2.67723   0.01022   0.00000   0.04813   0.04813   2.72536
    A1        1.60778  -0.00276   0.00000  -0.01716  -0.01716   1.59062
         Item               Value     Threshold  Converged?
 Maximum Force            0.010216     0.000450     NO 
 RMS     Force            0.008493     0.000300     NO 
 Maximum Displacement     0.033443     0.001800     NO 
 RMS     Displacement     0.027997     0.001200     NO 
 Predicted change in Energy=-5.179319D-04
 Lowest energy point so far.  Saving SCF results.
 Largest change from initial coordinates is atom    1       0.013 Angstoms.
 GradGradGradGradGradGradGradGradGradGradGradGradGradGradGradGradGradGrad

 Leave Link  103 at Wed Oct  7 13:19:08 2020, MaxMem=  2684354560 cpu:               2.4 elap:               0.5
 (Enter /udrive/faculty/rpeverati/g16/g16/l202.exe)
                          Input orientation:                          
 ---------------------------------------------------------------------
 Center     Atomic      Atomic             Coordinates (Angstroms)
 Number     Number       Type             X           Y           Z
 ---------------------------------------------------------------------
      1         15           0        0.000000    0.000000    0.133354
      2          1           0        0.000000    1.029846   -0.876276
      3          1           0       -0.000000   -1.029846   -0.876276
 ---------------------------------------------------------------------
                    Distance matrix (angstroms):
                    1          2          3
     1  P    0.000000
     2  H    1.442198   0.000000
     3  H    1.442198   2.059691   0.000000
 Stoichiometry    H2P(2)
 Framework group  C2V[C2(P),SGV(H2)]
 Deg. of freedom     2
 Full point group                 C2V     NOp   4
 RotChk:  IX=0 Diff= 1.01D-15
 Largest Abelian subgroup         C2V     NOp   4
 Largest concise Abelian subgroup C2      NOp   2
                         Standard orientation:                         
 ---------------------------------------------------------------------
 Center     Atomic      Atomic             Coordinates (Angstroms)
 Number     Number       Type             X           Y           Z
 ---------------------------------------------------------------------
      1         15           0        0.000000    0.000000    0.118780
      2          1           0        0.000000    1.029846   -0.890850
      3          1           0       -0.000000   -1.029846   -0.890850
 ---------------------------------------------------------------------
 Rotational constants (GHZ):         261.9739299         236.4055896         124.2669471
 Leave Link  202 at Wed Oct  7 13:19:09 2020, MaxMem=  2684354560 cpu:               1.6 elap:               0.5
 (Enter /udrive/faculty/rpeverati/g16/g16/l301.exe)
 Standard basis: 6-31G(d) (5D, 7F)
 Ernie: Thresh=  0.10000D-02 Tol=  0.10000D-05 Strict=F.
 There are    12 symmetry adapted cartesian basis functions of A1  symmetry.
 There are     1 symmetry adapted cartesian basis functions of A2  symmetry.
 There are     4 symmetry adapted cartesian basis functions of B1  symmetry.
 There are     6 symmetry adapted cartesian basis functions of B2  symmetry.
 There are    11 symmetry adapted basis functions of A1  symmetry.
 There are     1 symmetry adapted basis functions of A2  symmetry.
 There are     4 symmetry adapted basis functions of B1  symmetry.
 There are     6 symmetry adapted basis functions of B2  symmetry.
    22 basis functions,    60 primitive gaussians,    23 cartesian basis functions
     9 alpha electrons        8 beta electrons
       nuclear repulsion energy        11.2646435532 Hartrees.
 IExCor=  404 DFT=T Ex=B Corr=P86 ExCW=0 ScaHFX=  0.000000
 ScaDFX=  1.000000  1.000000  1.000000  1.000000 ScalE2=  1.000000  1.000000
 IRadAn=      5 IRanWt=     -1 IRanGd=            0 ICorTp=0 IEmpDi=  4
 NAtoms=    3 NActive=    3 NUniq=    2 SFac= 2.25D+00 NAtFMM=   60 NAOKFM=F Big=F
 Integral buffers will be    131072 words long.
 Raffenetti 2 integral format.
 Two-electron integral symmetry is turned on.
 Leave Link  301 at Wed Oct  7 13:19:10 2020, MaxMem=  2684354560 cpu:               2.2 elap:               0.7
 (Enter /udrive/faculty/rpeverati/g16/g16/l302.exe)
 NPDir=0 NMtPBC=     1 NCelOv=     1 NCel=       1 NClECP=     1 NCelD=      1
         NCelK=      1 NCelE2=     1 NClLst=     1 CellRange=     0.0.
 One-electron integrals computed using PRISM.
 One-electron integral symmetry used in STVInt
 NBasis=    22 RedAO= T EigKep=  3.44D-02  NBF=    11     1     4     6
 NBsUse=    22 1.00D-06 EigRej= -1.00D+00 NBFU=    11     1     4     6
 Precomputing XC quadrature grid using
 IXCGrd= 4 IRadAn=           5 IRanWt=          -1 IRanGd=           0 AccXCQ= 0.00D+00.
 Generated NRdTot=       0 NPtTot=           0 NUsed=           0 NTot=          32
 NSgBfM=    23    23    23    23    23 MxSgAt=     3 MxSgA2=     3.
 Leave Link  302 at Wed Oct  7 13:19:11 2020, MaxMem=  2684354560 cpu:               3.8 elap:               0.7
 (Enter /udrive/faculty/rpeverati/g16/g16/l303.exe)
 DipDrv:  MaxL=1.
 Leave Link  303 at Wed Oct  7 13:19:12 2020, MaxMem=  2684354560 cpu:               1.6 elap:               0.7
 (Enter /udrive/faculty/rpeverati/g16/g16/l401.exe)
 Initial guess from the checkpoint file:  "MN_76_PH2_BH76_BP86_631Gs.chk"
 SCF N**3 symmetry information disabled.
 B after Tr=    -0.000000    0.000000   -0.000000
         Rot=    1.000000   -0.000000   -0.000000    0.000000 Ang=   0.00 deg.
 Guess basis will be translated and rotated to current coordinates.
 JPrj=2 DoOrth=T DoCkMO=T.
 Initial guess orbital symmetries:
 Alpha Orbitals:
       Occupied  (A1) (A1) (B1) (B2) (A1) (A1) (B2) (A1) (B1)
       Virtual   (B2) (A1) (A1) (B2) (B1) (A1) (A2) (B1) (A1) (B2)
                 (A1) (A1) (B2)
 Beta  Orbitals:
       Occupied  (A1) (A1) (B2) (B1) (A1) (A1) (B2) (A1)
       Virtual   (B1) (B2) (A1) (A1) (B2) (A1) (B1) (A1) (B2) (A2)
                 (B1) (A1) (A1) (B2)
 The electronic state of the initial guess is 2-B1.
 Initial guess <Sx>= 0.0000 <Sy>= 0.0000 <Sz>= 0.5000 <S**2>= 0.7533 S= 0.5017
 Generating alternative initial guess.
 ExpMin= 9.98D-02 ExpMax= 1.94D+04 ExpMxC= 2.91D+03 IAcc=2 IRadAn=         4 AccDes= 0.00D+00
 Harris functional with IExCor=  404 and IRadAn=       4 diagonalized for initial guess.
 HarFok:  IExCor=  404 AccDes= 0.00D+00 IRadAn=         4 IDoV= 1 UseB2=F ITyADJ=14
 ICtDFT=  3500011 ScaDFX=  1.000000  1.000000  1.000000  1.000000
 FoFCou: FMM=F IPFlag=           0 FMFlag=      100000 FMFlg1=           0
         NFxFlg=           0 DoJE=T BraDBF=F KetDBF=T FulRan=T
         wScrn=  0.000000 ICntrl=       500 IOpCl=  0 I1Cent=   200000004 NGrid=           0
         NMat0=    1 NMatS0=      1 NMatT0=    0 NMatD0=    1 NMtDS0=    0 NMtDT0=    0
 Petite list used in FoFCou.
 Harris En= -342.475633903253    
 Leave Link  401 at Wed Oct  7 13:19:13 2020, MaxMem=  2684354560 cpu:               6.9 elap:               1.1
 (Enter /udrive/faculty/rpeverati/g16/g16/l502.exe)
 Keep J ints in memory in symmetry-blocked form, NReq=10376515.
 FoFCou: FMM=F IPFlag=           0 FMFlag=           0 FMFlg1=           0
         NFxFlg=           0 DoJE=F BraDBF=F KetDBF=F FulRan=T
         wScrn=  0.000000 ICntrl=       600 IOpCl=  0 I1Cent=           0 NGrid=           0
         NMat0=    1 NMatS0=    253 NMatT0=    0 NMatD0=    1 NMtDS0=    0 NMtDT0=    0
 Petite list used in FoFCou.
 UHF open shell SCF:
 Using DIIS extrapolation, IDIIS=  1040.
 NGot=  2684354560 LenX=  2684342189 LenY=  2684341219
 Requested convergence on RMS density matrix=1.00D-08 within 120 cycles.
 Requested convergence on MAX density matrix=1.00D-06.
 Requested convergence on             energy=1.00D-06.
 No special actions if energy rises.
 Integral accuracy reduced to 1.0D-05 until final iterations.

 Cycle   1  Pass 0  IDiag  1:
 E= -342.515375870963    
 DIIS: error= 1.85D-03 at cycle   1 NSaved=   1.
 NSaved= 1 IEnMin= 1 EnMin= -342.515375870963     IErMin= 1 ErrMin= 1.85D-03
 ErrMax= 1.85D-03  0.00D+00 EMaxC= 1.00D-01 BMatC= 2.63D-04 BMatP= 2.63D-04
 IDIUse=3 WtCom= 9.82D-01 WtEn= 1.85D-02
 Coeff-Com:  0.100D+01
 Coeff-En:   0.100D+01
 Coeff:      0.100D+01
 Gap=     0.214 Goal=   None    Shift=    0.000
 Gap=     0.112 Goal=   None    Shift=    0.000
 GapD=    0.112 DampG=1.000 DampE=1.000 DampFc=1.0000 IDamp=-1.
 RMSDP=8.62D-04 MaxDP=4.78D-03              OVMax= 7.01D-03

 Cycle   2  Pass 0  IDiag  1:
 E= -342.515496236707     Delta-E=       -0.000120365744 Rises=F Damp=F
 DIIS: error= 6.33D-04 at cycle   2 NSaved=   2.
 NSaved= 2 IEnMin= 2 EnMin= -342.515496236707     IErMin= 2 ErrMin= 6.33D-04
 ErrMax= 6.33D-04  0.00D+00 EMaxC= 1.00D-01 BMatC= 2.80D-05 BMatP= 2.63D-04
 IDIUse=3 WtCom= 9.94D-01 WtEn= 6.33D-03
 Coeff-Com:  0.201D+00 0.799D+00
 Coeff-En:   0.000D+00 0.100D+01
 Coeff:      0.199D+00 0.801D+00
 Gap=     0.214 Goal=   None    Shift=    0.000
 Gap=     0.111 Goal=   None    Shift=    0.000
 RMSDP=2.65D-04 MaxDP=2.85D-03 DE=-1.20D-04 OVMax= 1.62D-03

 Cycle   3  Pass 0  IDiag  1:
 E= -342.515506593976     Delta-E=       -0.000010357269 Rises=F Damp=F
 DIIS: error= 1.83D-04 at cycle   3 NSaved=   3.
 NSaved= 3 IEnMin= 3 EnMin= -342.515506593976     IErMin= 3 ErrMin= 1.83D-04
 ErrMax= 1.83D-04  0.00D+00 EMaxC= 1.00D-01 BMatC= 3.52D-06 BMatP= 2.80D-05
 IDIUse=3 WtCom= 9.98D-01 WtEn= 1.83D-03
 Coeff-Com:  0.271D-01 0.279D+00 0.694D+00
 Coeff-En:   0.000D+00 0.000D+00 0.100D+01
 Coeff:      0.271D-01 0.278D+00 0.695D+00
 Gap=     0.214 Goal=   None    Shift=    0.000
 Gap=     0.112 Goal=   None    Shift=    0.000
 RMSDP=7.62D-05 MaxDP=8.64D-04 DE=-1.04D-05 OVMax= 4.69D-04

 Cycle   4  Pass 0  IDiag  1:
 E= -342.515507873825     Delta-E=       -0.000001279849 Rises=F Damp=F
 DIIS: error= 3.64D-05 at cycle   4 NSaved=   4.
 NSaved= 4 IEnMin= 4 EnMin= -342.515507873825     IErMin= 4 ErrMin= 3.64D-05
 ErrMax= 3.64D-05  0.00D+00 EMaxC= 1.00D-01 BMatC= 9.31D-08 BMatP= 3.52D-06
 IDIUse=1 WtCom= 1.00D+00 WtEn= 0.00D+00
 Coeff-Com:  0.453D-02 0.866D-01 0.255D+00 0.654D+00
 Coeff:      0.453D-02 0.866D-01 0.255D+00 0.654D+00
 Gap=     0.214 Goal=   None    Shift=    0.000
 Gap=     0.112 Goal=   None    Shift=    0.000
 RMSDP=1.64D-05 MaxDP=1.15D-04 DE=-1.28D-06 OVMax= 1.59D-04

 Cycle   5  Pass 0  IDiag  1:
 E= -342.515507910456     Delta-E=       -0.000000036631 Rises=F Damp=F
 DIIS: error= 9.57D-06 at cycle   5 NSaved=   5.
 NSaved= 5 IEnMin= 5 EnMin= -342.515507910456     IErMin= 5 ErrMin= 9.57D-06
 ErrMax= 9.57D-06  0.00D+00 EMaxC= 1.00D-01 BMatC= 9.64D-09 BMatP= 9.31D-08
 IDIUse=1 WtCom= 1.00D+00 WtEn= 0.00D+00
 Coeff-Com: -0.351D-04 0.847D-02 0.310D-01 0.275D+00 0.686D+00
 Coeff:     -0.351D-04 0.847D-02 0.310D-01 0.275D+00 0.686D+00
 Gap=     0.214 Goal=   None    Shift=    0.000
 Gap=     0.112 Goal=   None    Shift=    0.000
 RMSDP=4.64D-06 MaxDP=3.46D-05 DE=-3.66D-08 OVMax= 3.72D-05

 Initial convergence to 1.0D-05 achieved.  Increase integral accuracy.
 Cycle   6  Pass 1  IDiag  1:
 E= -342.515514664399     Delta-E=       -0.000006753943 Rises=F Damp=F
 DIIS: error= 1.04D-06 at cycle   1 NSaved=   1.
 NSaved= 1 IEnMin= 1 EnMin= -342.515514664399     IErMin= 1 ErrMin= 1.04D-06
 ErrMax= 1.04D-06  0.00D+00 EMaxC= 1.00D-01 BMatC= 1.47D-10 BMatP= 1.47D-10
 IDIUse=1 WtCom= 1.00D+00 WtEn= 0.00D+00
 Coeff-Com:  0.100D+01
 Coeff:      0.100D+01
 Gap=     0.214 Goal=   None    Shift=    0.000
 Gap=     0.112 Goal=   None    Shift=    0.000
 RMSDP=4.64D-06 MaxDP=3.46D-05 DE=-6.75D-06 OVMax= 4.60D-06

 Cycle   7  Pass 1  IDiag  1:
 E= -342.515514664461     Delta-E=       -0.000000000062 Rises=F Damp=F
 DIIS: error= 5.49D-07 at cycle   2 NSaved=   2.
 NSaved= 2 IEnMin= 2 EnMin= -342.515514664461     IErMin= 2 ErrMin= 5.49D-07
 ErrMax= 5.49D-07  0.00D+00 EMaxC= 1.00D-01 BMatC= 2.79D-11 BMatP= 1.47D-10
 IDIUse=1 WtCom= 1.00D+00 WtEn= 0.00D+00
 Coeff-Com:  0.247D+00 0.753D+00
 Coeff:      0.247D+00 0.753D+00
 Gap=     0.214 Goal=   None    Shift=    0.000
 Gap=     0.112 Goal=   None    Shift=    0.000
 RMSDP=3.04D-07 MaxDP=3.67D-06 DE=-6.23D-11 OVMax= 2.08D-06

 Cycle   8  Pass 1  IDiag  1:
 E= -342.515514664471     Delta-E=       -0.000000000010 Rises=F Damp=F
 DIIS: error= 3.18D-07 at cycle   3 NSaved=   3.
 NSaved= 3 IEnMin= 3 EnMin= -342.515514664471     IErMin= 3 ErrMin= 3.18D-07
 ErrMax= 3.18D-07  0.00D+00 EMaxC= 1.00D-01 BMatC= 4.52D-12 BMatP= 2.79D-11
 IDIUse=1 WtCom= 1.00D+00 WtEn= 0.00D+00
 Coeff-Com: -0.112D-01 0.252D+00 0.759D+00
 Coeff:     -0.112D-01 0.252D+00 0.759D+00
 Gap=     0.214 Goal=   None    Shift=    0.000
 Gap=     0.112 Goal=   None    Shift=    0.000
 RMSDP=1.13D-07 MaxDP=1.14D-06 DE=-9.55D-12 OVMax= 1.21D-06

 Cycle   9  Pass 1  IDiag  1:
 E= -342.515514664472     Delta-E=       -0.000000000001 Rises=F Damp=F
 DIIS: error= 1.14D-07 at cycle   4 NSaved=   4.
 NSaved= 4 IEnMin= 4 EnMin= -342.515514664472     IErMin= 4 ErrMin= 1.14D-07
 ErrMax= 1.14D-07  0.00D+00 EMaxC= 1.00D-01 BMatC= 4.97D-13 BMatP= 4.52D-12
 IDIUse=1 WtCom= 1.00D+00 WtEn= 0.00D+00
 Coeff-Com: -0.209D-01 0.107D-01 0.255D+00 0.755D+00
 Coeff:     -0.209D-01 0.107D-01 0.255D+00 0.755D+00
 Gap=     0.214 Goal=   None    Shift=    0.000
 Gap=     0.112 Goal=   None    Shift=    0.000
 RMSDP=3.73D-08 MaxDP=3.34D-07 DE=-1.42D-12 OVMax= 4.83D-07

 Cycle  10  Pass 1  IDiag  1:
 E= -342.515514664473     Delta-E=       -0.000000000001 Rises=F Damp=F
 DIIS: error= 2.69D-08 at cycle   5 NSaved=   5.
 NSaved= 5 IEnMin= 5 EnMin= -342.515514664473     IErMin= 5 ErrMin= 2.69D-08
 ErrMax= 2.69D-08  0.00D+00 EMaxC= 1.00D-01 BMatC= 4.43D-14 BMatP= 4.97D-13
 IDIUse=1 WtCom= 1.00D+00 WtEn= 0.00D+00
 Coeff-Com: -0.599D-02-0.370D-01-0.412D-01 0.213D+00 0.871D+00
 Coeff:     -0.599D-02-0.370D-01-0.412D-01 0.213D+00 0.871D+00
 Gap=     0.214 Goal=   None    Shift=    0.000
 Gap=     0.112 Goal=   None    Shift=    0.000
 RMSDP=1.18D-08 MaxDP=9.12D-08 DE=-5.68D-13 OVMax= 1.43D-07

 Cycle  11  Pass 1  IDiag  1:
 E= -342.515514664472     Delta-E=        0.000000000001 Rises=F Damp=F
 DIIS: error= 3.44D-09 at cycle   6 NSaved=   6.
 NSaved= 6 IEnMin= 5 EnMin= -342.515514664473     IErMin= 6 ErrMin= 3.44D-09
 ErrMax= 3.44D-09  0.00D+00 EMaxC= 1.00D-01 BMatC= 4.83D-16 BMatP= 4.43D-14
 IDIUse=1 WtCom= 1.00D+00 WtEn= 0.00D+00
 Coeff-Com:  0.497D-03-0.368D-02-0.161D-01-0.415D-02 0.834D-01 0.940D+00
 Coeff:      0.497D-03-0.368D-02-0.161D-01-0.415D-02 0.834D-01 0.940D+00
 Gap=     0.214 Goal=   None    Shift=    0.000
 Gap=     0.112 Goal=   None    Shift=    0.000
 RMSDP=1.30D-09 MaxDP=8.28D-09 DE= 6.25D-13 OVMax= 9.95D-09

 SCF Done:  E(UB-P86) =  -342.515514664     A.U. after   11 cycles
            NFock= 11  Conv=0.13D-08     -V/T= 2.0024
 <Sx>= 0.0000 <Sy>= 0.0000 <Sz>= 0.5000 <S**2>= 0.7533 S= 0.5017
 <L.S>= 0.000000000000E+00
 KE= 3.417019405569D+02 PE=-8.369978019351D+02 EE= 1.415157031605D+02
 Annihilation of the first spin contaminant:
 S**2 before annihilation     0.7533,   after     0.7500
 Leave Link  502 at Wed Oct  7 13:19:15 2020, MaxMem=  2684354560 cpu:              15.0 elap:               1.9
 (Enter /udrive/faculty/rpeverati/g16/g16/l508.exe)
 QCSCF skips out because SCF is already converged.
 Leave Link  508 at Wed Oct  7 13:19:16 2020, MaxMem=  2684354560 cpu:               0.5 elap:               0.6
 (Enter /udrive/faculty/rpeverati/g16/g16/l701.exe)
 ... and contract with generalized density number  0.
 Compute integral first derivatives.
 Leave Link  701 at Wed Oct  7 13:19:17 2020, MaxMem=  2684354560 cpu:               3.8 elap:               0.7
 (Enter /udrive/faculty/rpeverati/g16/g16/l702.exe)
 L702 exits ... SP integral derivatives will be done elsewhere.
 Leave Link  702 at Wed Oct  7 13:19:18 2020, MaxMem=  2684354560 cpu:               1.2 elap:               0.7
 (Enter /udrive/faculty/rpeverati/g16/g16/l703.exe)
 Integral derivatives from FoFJK, PRISM(SPDF).
 Compute integral first derivatives, UseDBF=F ICtDFT=           0.
 Calling FoFJK, ICntrl=      2527 FMM=F ISym2X=1 I1Cent= 0 IOpClX= 0 NMat=1 NMatS=1 NMatT=0.
 FoFJK:  IHMeth= 1 ICntrl=    2527 DoSepK=F KAlg= 0 I1Cent=           0 FoldK=F
 IRaf=         0 NMat=       1 IRICut=       1 DoRegI=T DoRafI=F ISym2E= 1 IDoP0=0 IntGTp=1.
 FoFCou: FMM=F IPFlag=           0 FMFlag=      100000 FMFlg1=         800
         NFxFlg=           0 DoJE=F BraDBF=F KetDBF=F FulRan=T
         wScrn=  0.000000 ICntrl=      2527 IOpCl=  0 I1Cent=           0 NGrid=           0
         NMat0=    1 NMatS0=      1 NMatT0=    0 NMatD0=    1 NMtDS0=    0 NMtDT0=    0
 Petite list used in FoFCou.
 Leave Link  703 at Wed Oct  7 13:19:19 2020, MaxMem=  2684354560 cpu:               6.9 elap:               1.1
 (Enter /udrive/faculty/rpeverati/g16/g16/l716.exe)
 Dipole        = 1.31894387D-19 0.00000000D+00-3.56192687D-01
 ***** Axes restored to original set *****
 -------------------------------------------------------------------
 Center     Atomic                   Forces (Hartrees/Bohr)
 Number     Number              X              Y              Z
 -------------------------------------------------------------------
      1       15          -0.000000000    0.000000000    0.000625107
      2        1           0.000000000    0.000035185   -0.000312553
      3        1           0.000000000   -0.000035185   -0.000312553
 -------------------------------------------------------------------
 Cartesian Forces:  Max     0.000625107 RMS     0.000255737
 Leave Link  716 at Wed Oct  7 13:19:20 2020, MaxMem=  2684354560 cpu:               0.9 elap:               0.5
 (Enter /udrive/faculty/rpeverati/g16/g16/l103.exe)

 GradGradGradGradGradGradGradGradGradGradGradGradGradGradGradGradGradGrad
 Berny optimization.
 Optmz: redundant internal coordinate code flag= 1
 Using GEDIIS/GDIIS optimizer.
 Red2BG:  D1=  3.76D-01 OD1=  1.98D-02 B2RMS=  0.00D+00 IAprox=0
 FormGI is forming the generalized inverse of G from B-inverse, IUseBI=4.
 Internal  Forces:  Max     0.000541138 RMS     0.000370511
 Search for a local minimum.
 Step number   2 out of a maximum of  100
 All quantities printed in internal units (Hartrees-Bohrs-Radians)
 RMS Force = .37051D-03 SwitMx=.10000D-02 MixMth= 2
 Mixed Optimization -- En-DIIS/RFO-DIIS
 Update second derivatives using D2CorX and points    1    2
 DE= -5.22D-04 DEPred=-5.18D-04 R= 1.01D+00
 TightC=F SS=  1.41D+00  RLast= 7.02D-02 DXNew= 5.0454D-01 2.1058D-01
 Trust test= 1.01D+00 RLast= 7.02D-02 DXMaxT set to 3.00D-01
 The second derivative matrix:
                          R1        R2        A1
           R1           0.21012
           R2          -0.00113   0.21012
           A1           0.00501   0.00501   0.15760
 ITU=  1  0
 Use linear search instead of GDIIS.
 Eigenvectors of the second derivative matrix:
                           1         2         3
     Eigenvalues --     0.15664   0.20995   0.21124
   1         R1        -0.09483   0.70072  -0.70711
   2         R2        -0.09483   0.70072   0.70711
   3         A1         0.99097   0.13411  -0.00000
 Iter=   1 RLamda= 0.00000000D+00 Sum=-1.45199533D-06.
 Iter=   2 RLamda=-1.45199533D-06 Sum=-1.45198224D-06.
 RFO step:  Lambda=-1.45199533D-06 EMin= 1.56639424D-01
 Quartic linear search produced a step of  0.03492.
 Iteration  1 RMS(Cart)=  0.00287844 RMS(Int)=  0.00000360
 Iteration  2 RMS(Cart)=  0.00000456 RMS(Int)=  0.00000000
 Iteration  3 RMS(Cart)=  0.00000000 RMS(Int)=  0.00000000
 ITry= 1 IFail=0 DXMaxC= 2.94D-03 DCOld= 1.00D+10 DXMaxT= 3.00D-01 DXLimC= 3.00D+00 Rises=F
 ClnCor:  largest displacement from symmetrization is 8.01D-16 for atom     3.
 Variable       Old X    -DE/DX   Delta X   Delta X   Delta X     New X
                                 (Linear)    (Quad)   (Total)
    R1        2.72536   0.00024   0.00168  -0.00033   0.00135   2.72671
    R2        2.72536   0.00024   0.00168  -0.00033   0.00135   2.72671
    A1        1.59062  -0.00054  -0.00060  -0.00297  -0.00357   1.58705
         Item               Value     Threshold  Converged?
 Maximum Force            0.000541     0.000450     NO 
 RMS     Force            0.000371     0.000300     NO 
 Maximum Displacement     0.002942     0.001800     NO 
 RMS     Displacement     0.002882     0.001200     NO 
 Predicted change in Energy=-1.253635D-06
 Lowest energy point so far.  Saving SCF results.
 Largest change from initial coordinates is atom    2       0.026 Angstoms.
 GradGradGradGradGradGradGradGradGradGradGradGradGradGradGradGradGradGrad

 Leave Link  103 at Wed Oct  7 13:19:21 2020, MaxMem=  2684354560 cpu:               2.0 elap:               0.6
 (Enter /udrive/faculty/rpeverati/g16/g16/l202.exe)
                          Input orientation:                          
 ---------------------------------------------------------------------
 Center     Atomic      Atomic             Coordinates (Angstroms)
 Number     Number       Type             X           Y           Z
 ---------------------------------------------------------------------
      1         15           0        0.000000   -0.000000    0.134911
      2          1           0        0.000000    1.028553   -0.877054
      3          1           0       -0.000000   -1.028553   -0.877054
 ---------------------------------------------------------------------
                    Distance matrix (angstroms):
                    1          2          3
     1  P    0.000000
     2  H    1.442912   0.000000
     3  H    1.442912   2.057107   0.000000
 Stoichiometry    H2P(2)
 Framework group  C2V[C2(P),SGV(H2)]
 Deg. of freedom     2
 Full point group                 C2V     NOp   4
 RotChk:  IX=0 Diff= 1.78D-15
 Largest Abelian subgroup         C2V     NOp   4
 Largest concise Abelian subgroup C2      NOp   2
                         Standard orientation:                         
 ---------------------------------------------------------------------
 Center     Atomic      Atomic             Coordinates (Angstroms)
 Number     Number       Type             X           Y           Z
 ---------------------------------------------------------------------
      1         15           0        0.000000    0.000000    0.119055
      2          1           0        0.000000    1.028553   -0.892911
      3          1           0       -0.000000   -1.028553   -0.892911
 ---------------------------------------------------------------------
 Rotational constants (GHZ):         260.7662137         237.0000220         124.1578756
 Leave Link  202 at Wed Oct  7 13:19:22 2020, MaxMem=  2684354560 cpu:               1.6 elap:               0.5
 (Enter /udrive/faculty/rpeverati/g16/g16/l301.exe)
 Standard basis: 6-31G(d) (5D, 7F)
 Ernie: Thresh=  0.10000D-02 Tol=  0.10000D-05 Strict=F.
 There are    12 symmetry adapted cartesian basis functions of A1  symmetry.
 There are     1 symmetry adapted cartesian basis functions of A2  symmetry.
 There are     4 symmetry adapted cartesian basis functions of B1  symmetry.
 There are     6 symmetry adapted cartesian basis functions of B2  symmetry.
 There are    11 symmetry adapted basis functions of A1  symmetry.
 There are     1 symmetry adapted basis functions of A2  symmetry.
 There are     4 symmetry adapted basis functions of B1  symmetry.
 There are     6 symmetry adapted basis functions of B2  symmetry.
    22 basis functions,    60 primitive gaussians,    23 cartesian basis functions
     9 alpha electrons        8 beta electrons
       nuclear repulsion energy        11.2595168041 Hartrees.
 IExCor=  404 DFT=T Ex=B Corr=P86 ExCW=0 ScaHFX=  0.000000
 ScaDFX=  1.000000  1.000000  1.000000  1.000000 ScalE2=  1.000000  1.000000
 IRadAn=      5 IRanWt=     -1 IRanGd=            0 ICorTp=0 IEmpDi=  4
 NAtoms=    3 NActive=    3 NUniq=    2 SFac= 2.25D+00 NAtFMM=   60 NAOKFM=F Big=F
 Integral buffers will be    131072 words long.
 Raffenetti 2 integral format.
 Two-electron integral symmetry is turned on.
 Leave Link  301 at Wed Oct  7 13:19:22 2020, MaxMem=  2684354560 cpu:               1.3 elap:               0.4
 (Enter /udrive/faculty/rpeverati/g16/g16/l302.exe)
 NPDir=0 NMtPBC=     1 NCelOv=     1 NCel=       1 NClECP=     1 NCelD=      1
         NCelK=      1 NCelE2=     1 NClLst=     1 CellRange=     0.0.
 One-electron integrals computed using PRISM.
 One-electron integral symmetry used in STVInt
 NBasis=    22 RedAO= T EigKep=  3.44D-02  NBF=    11     1     4     6
 NBsUse=    22 1.00D-06 EigRej= -1.00D+00 NBFU=    11     1     4     6
 Precomputing XC quadrature grid using
 IXCGrd= 4 IRadAn=           5 IRanWt=          -1 IRanGd=           0 AccXCQ= 0.00D+00.
 Generated NRdTot=       0 NPtTot=           0 NUsed=           0 NTot=          32
 NSgBfM=    23    23    23    23    23 MxSgAt=     3 MxSgA2=     3.
 Leave Link  302 at Wed Oct  7 13:19:23 2020, MaxMem=  2684354560 cpu:               4.1 elap:               0.8
 (Enter /udrive/faculty/rpeverati/g16/g16/l303.exe)
 DipDrv:  MaxL=1.
 Leave Link  303 at Wed Oct  7 13:19:24 2020, MaxMem=  2684354560 cpu:               1.2 elap:               0.5
 (Enter /udrive/faculty/rpeverati/g16/g16/l401.exe)
 Initial guess from the checkpoint file:  "MN_76_PH2_BH76_BP86_631Gs.chk"
 SCF N**3 symmetry information disabled.
 B after Tr=     0.000000   -0.000000   -0.000000
         Rot=    1.000000   -0.000000   -0.000000   -0.000000 Ang=   0.00 deg.
 Guess basis will be translated and rotated to current coordinates.
 JPrj=2 DoOrth=T DoCkMO=T.
 Initial guess orbital symmetries:
 Alpha Orbitals:
       Occupied  (A1) (A1) (B1) (B2) (A1) (A1) (B2) (A1) (B1)
       Virtual   (B2) (A1) (A1) (B2) (B1) (A1) (A2) (B1) (A1) (B2)
                 (A1) (A1) (B2)
 Beta  Orbitals:
       Occupied  (A1) (A1) (B2) (A1) (B1) (A1) (B2) (A1)
       Virtual   (B1) (B2) (A1) (A1) (B2) (A1) (B1) (A1) (B2) (A2)
                 (B1) (A1) (A1) (B2)
 The electronic state of the initial guess is 2-B1.
 Initial guess <Sx>= 0.0000 <Sy>= 0.0000 <Sz>= 0.5000 <S**2>= 0.7533 S= 0.5017
 Leave Link  401 at Wed Oct  7 13:19:26 2020, MaxMem=  2684354560 cpu:               2.7 elap:               1.2
 (Enter /udrive/faculty/rpeverati/g16/g16/l502.exe)
 Keep J ints in memory in symmetry-blocked form, NReq=10376515.
 FoFCou: FMM=F IPFlag=           0 FMFlag=           0 FMFlg1=           0
         NFxFlg=           0 DoJE=F BraDBF=F KetDBF=F FulRan=T
         wScrn=  0.000000 ICntrl=       600 IOpCl=  0 I1Cent=           0 NGrid=           0
         NMat0=    1 NMatS0=    253 NMatT0=    0 NMatD0=    1 NMtDS0=    0 NMtDT0=    0
 Petite list used in FoFCou.
 UHF open shell SCF:
 Using DIIS extrapolation, IDIIS=  1040.
 NGot=  2684354560 LenX=  2684342189 LenY=  2684341219
 Requested convergence on RMS density matrix=1.00D-08 within 120 cycles.
 Requested convergence on MAX density matrix=1.00D-06.
 Requested convergence on             energy=1.00D-06.
 No special actions if energy rises.

 Cycle   1  Pass 1  IDiag  1:
 E= -342.515515418614    
 DIIS: error= 1.16D-04 at cycle   1 NSaved=   1.
 NSaved= 1 IEnMin= 1 EnMin= -342.515515418614     IErMin= 1 ErrMin= 1.16D-04
 ErrMax= 1.16D-04  0.00D+00 EMaxC= 1.00D-01 BMatC= 8.04D-07 BMatP= 8.04D-07
 IDIUse=3 WtCom= 9.99D-01 WtEn= 1.16D-03
 Coeff-Com:  0.100D+01
 Coeff-En:   0.100D+01
 Coeff:      0.100D+01
 Gap=     0.214 Goal=   None    Shift=    0.000
 Gap=     0.112 Goal=   None    Shift=    0.000
 RMSDP=5.20D-05 MaxDP=2.34D-04              OVMax= 4.00D-04

 Cycle   2  Pass 1  IDiag  1:
 E= -342.515515884717     Delta-E=       -0.000000466103 Rises=F Damp=F
 DIIS: error= 1.41D-05 at cycle   2 NSaved=   2.
 NSaved= 2 IEnMin= 2 EnMin= -342.515515884717     IErMin= 2 ErrMin= 1.41D-05
 ErrMax= 1.41D-05  0.00D+00 EMaxC= 1.00D-01 BMatC= 1.19D-08 BMatP= 8.04D-07
 IDIUse=1 WtCom= 1.00D+00 WtEn= 0.00D+00
 Coeff-Com:  0.438D-01 0.956D+00
 Coeff:      0.438D-01 0.956D+00
 Gap=     0.214 Goal=   None    Shift=    0.000
 Gap=     0.112 Goal=   None    Shift=    0.000
 RMSDP=7.91D-06 MaxDP=7.19D-05 DE=-4.66D-07 OVMax= 4.73D-05

 Cycle   3  Pass 1  IDiag  1:
 E= -342.515515888310     Delta-E=       -0.000000003593 Rises=F Damp=F
 DIIS: error= 6.47D-06 at cycle   3 NSaved=   3.
 NSaved= 3 IEnMin= 3 EnMin= -342.515515888310     IErMin= 3 ErrMin= 6.47D-06
 ErrMax= 6.47D-06  0.00D+00 EMaxC= 1.00D-01 BMatC= 4.89D-09 BMatP= 1.19D-08
 IDIUse=1 WtCom= 1.00D+00 WtEn= 0.00D+00
 Coeff-Com:  0.788D-02 0.386D+00 0.606D+00
 Coeff:      0.788D-02 0.386D+00 0.606D+00
 Gap=     0.214 Goal=   None    Shift=    0.000
 Gap=     0.112 Goal=   None    Shift=    0.000
 RMSDP=3.50D-06 MaxDP=3.27D-05 DE=-3.59D-09 OVMax= 2.06D-05

 Cycle   4  Pass 1  IDiag  1:
 E= -342.515515890191     Delta-E=       -0.000000001881 Rises=F Damp=F
 DIIS: error= 1.78D-06 at cycle   4 NSaved=   4.
 NSaved= 4 IEnMin= 4 EnMin= -342.515515890191     IErMin= 4 ErrMin= 1.78D-06
 ErrMax= 1.78D-06  0.00D+00 EMaxC= 1.00D-01 BMatC= 2.12D-10 BMatP= 4.89D-09
 IDIUse=1 WtCom= 1.00D+00 WtEn= 0.00D+00
 Coeff-Com:  0.334D-04 0.933D-01 0.221D+00 0.685D+00
 Coeff:      0.334D-04 0.933D-01 0.221D+00 0.685D+00
 Gap=     0.214 Goal=   None    Shift=    0.000
 Gap=     0.112 Goal=   None    Shift=    0.000
 RMSDP=6.64D-07 MaxDP=4.89D-06 DE=-1.88D-09 OVMax= 7.13D-06

 Cycle   5  Pass 1  IDiag  1:
 E= -342.515515890275     Delta-E=       -0.000000000084 Rises=F Damp=F
 DIIS: error= 4.34D-07 at cycle   5 NSaved=   5.
 NSaved= 5 IEnMin= 5 EnMin= -342.515515890275     IErMin= 5 ErrMin= 4.34D-07
 ErrMax= 4.34D-07  0.00D+00 EMaxC= 1.00D-01 BMatC= 1.34D-11 BMatP= 2.12D-10
 IDIUse=1 WtCom= 1.00D+00 WtEn= 0.00D+00
 Coeff-Com: -0.267D-03 0.192D-01 0.572D-01 0.287D+00 0.637D+00
 Coeff:     -0.267D-03 0.192D-01 0.572D-01 0.287D+00 0.637D+00
 Gap=     0.214 Goal=   None    Shift=    0.000
 Gap=     0.112 Goal=   None    Shift=    0.000
 RMSDP=1.67D-07 MaxDP=1.01D-06 DE=-8.43D-11 OVMax= 1.44D-06

 Cycle   6  Pass 1  IDiag  1:
 E= -342.515515890282     Delta-E=       -0.000000000006 Rises=F Damp=F
 DIIS: error= 2.63D-08 at cycle   6 NSaved=   6.
 NSaved= 6 IEnMin= 6 EnMin= -342.515515890282     IErMin= 6 ErrMin= 2.63D-08
 ErrMax= 2.63D-08  0.00D+00 EMaxC= 1.00D-01 BMatC= 3.27D-14 BMatP= 1.34D-11
 IDIUse=1 WtCom= 1.00D+00 WtEn= 0.00D+00
 Coeff-Com: -0.324D-04 0.941D-03 0.420D-02 0.298D-01 0.803D-01 0.885D+00
 Coeff:     -0.324D-04 0.941D-03 0.420D-02 0.298D-01 0.803D-01 0.885D+00
 Gap=     0.214 Goal=   None    Shift=    0.000
 Gap=     0.112 Goal=   None    Shift=    0.000
 RMSDP=9.53D-09 MaxDP=9.72D-08 DE=-6.37D-12 OVMax= 8.19D-08

 SCF Done:  E(UB-P86) =  -342.515515890     A.U. after    6 cycles
            NFock=  6  Conv=0.95D-08     -V/T= 2.0024
 <Sx>= 0.0000 <Sy>= 0.0000 <Sz>= 0.5000 <S**2>= 0.7533 S= 0.5017
 <L.S>= 0.000000000000E+00
 KE= 3.417006455775D+02 PE=-8.369860593553D+02 EE= 1.415103810834D+02
 Annihilation of the first spin contaminant:
 S**2 before annihilation     0.7533,   after     0.7500
 Leave Link  502 at Wed Oct  7 13:19:27 2020, MaxMem=  2684354560 cpu:              10.6 elap:               1.4
 (Enter /udrive/faculty/rpeverati/g16/g16/l508.exe)
 QCSCF skips out because SCF is already converged.
 Leave Link  508 at Wed Oct  7 13:19:28 2020, MaxMem=  2684354560 cpu:               0.6 elap:               0.6
 (Enter /udrive/faculty/rpeverati/g16/g16/l701.exe)
 ... and contract with generalized density number  0.
 Compute integral first derivatives.
 Leave Link  701 at Wed Oct  7 13:19:29 2020, MaxMem=  2684354560 cpu:               4.0 elap:               0.7
 (Enter /udrive/faculty/rpeverati/g16/g16/l702.exe)
 L702 exits ... SP integral derivatives will be done elsewhere.
 Leave Link  702 at Wed Oct  7 13:19:30 2020, MaxMem=  2684354560 cpu:               1.8 elap:               0.6
 (Enter /udrive/faculty/rpeverati/g16/g16/l703.exe)
 Integral derivatives from FoFJK, PRISM(SPDF).
 Compute integral first derivatives, UseDBF=F ICtDFT=           0.
 Calling FoFJK, ICntrl=      2527 FMM=F ISym2X=1 I1Cent= 0 IOpClX= 0 NMat=1 NMatS=1 NMatT=0.
 FoFJK:  IHMeth= 1 ICntrl=    2527 DoSepK=F KAlg= 0 I1Cent=           0 FoldK=F
 IRaf=         0 NMat=       1 IRICut=       1 DoRegI=T DoRafI=F ISym2E= 1 IDoP0=0 IntGTp=1.
 FoFCou: FMM=F IPFlag=           0 FMFlag=      100000 FMFlg1=         800
         NFxFlg=           0 DoJE=F BraDBF=F KetDBF=F FulRan=T
         wScrn=  0.000000 ICntrl=      2527 IOpCl=  0 I1Cent=           0 NGrid=           0
         NMat0=    1 NMatS0=      1 NMatT0=    0 NMatD0=    1 NMtDS0=    0 NMtDT0=    0
 Petite list used in FoFCou.
 Leave Link  703 at Wed Oct  7 13:19:31 2020, MaxMem=  2684354560 cpu:               6.0 elap:               0.9
 (Enter /udrive/faculty/rpeverati/g16/g16/l716.exe)
 Dipole        = 1.70011496D-19-2.22044605D-16-3.54420738D-01
 ***** Axes restored to original set *****
 -------------------------------------------------------------------
 Center     Atomic                   Forces (Hartrees/Bohr)
 Number     Number              X              Y              Z
 -------------------------------------------------------------------
      1       15          -0.000000000    0.000000000   -0.000017237
      2        1           0.000000000    0.000015083    0.000008619
      3        1           0.000000000   -0.000015083    0.000008619
 -------------------------------------------------------------------
 Cartesian Forces:  Max     0.000017237 RMS     0.000010004
 Leave Link  716 at Wed Oct  7 13:19:32 2020, MaxMem=  2684354560 cpu:               1.5 elap:               0.5
 (Enter /udrive/faculty/rpeverati/g16/g16/l103.exe)

 GradGradGradGradGradGradGradGradGradGradGradGradGradGradGradGradGradGrad
 Berny optimization.
 Optmz: redundant internal coordinate code flag= 1
 Using GEDIIS/GDIIS optimizer.
 Red2BG:  D1=  3.75D-01 OD1=  1.66D-03 B2RMS=  0.00D+00 IAprox=0
 FormGI is forming the generalized inverse of G from B-inverse, IUseBI=4.
 Internal  Forces:  Max     0.000045596 RMS     0.000026604
 Search for a local minimum.
 Step number   3 out of a maximum of  100
 All quantities printed in internal units (Hartrees-Bohrs-Radians)
 RMS Force = .26604D-04 SwitMx=.10000D-02 MixMth= 2
 Mixed Optimization -- En-DIIS/RFO-DIIS
 Swapping is turned off.
 Update second derivatives using D2CorX and points    1    2    3
 DE= -1.23D-06 DEPred=-1.25D-06 R= 9.78D-01
 TightC=F SS=  1.41D+00  RLast= 4.04D-03 DXNew= 5.0454D-01 1.2133D-02
 Trust test= 9.78D-01 RLast= 4.04D-03 DXMaxT set to 3.00D-01
 The second derivative matrix:
                          R1        R2        A1
           R1           0.20453
           R2          -0.00672   0.20453
           A1           0.00780   0.00780   0.17047
 ITU=  1  1  0
 Eigenvectors of the second derivative matrix:
                           1         2         3
     Eigenvalues --     0.16657   0.20170   0.21124
   1         R1        -0.23538   0.66678  -0.70711
   2         R2        -0.23538   0.66678   0.70711
   3         A1         0.94297   0.33288  -0.00000
 DoSqrt=T IScMMF=    -3 MM Scaling Factor =       0.00000
 En-DIIS/RFO-DIIS/Sim-DIIS IScMMF=       -3 using points:     3    2
 Iter=   1 RLamda= 0.00000000D+00 Sum=-1.22658220D-08.
 Iter=   2 RLamda=-1.22658220D-08 Sum=-1.22658211D-08.
 RFO step:  Lambda=-1.22658220D-08.
 NNeg= 0 NGDIIS= 2 SimSw=  2.50D-03 Rises=F DC= -1.23D-06 SmlDif=  1.00D-05
 NRisDI= 0 DoIntr=F SqrtH=F CThrHd= 10.0 CDAdj=  3.0
 RMS Error=  0.1541100291D-03 NUsed= 2 OKEnD=F EnDIS=F
 Total RFO-DIIS matrix:
                 1             2             3 
      1   0.000000D+00 -0.100000D+01 -0.100000D+01
      2  -0.100000D+01  0.712497D-07 -0.842181D-06
      3  -0.100000D+01 -0.842181D-06  0.146012D-04
 InvSVX:  RCond= 1.84D-05 Info=           0 Equed=N FErr=  9.46D-16 BErr=  6.49D-17
 DidBck=F Rises=F RFO-DIIS coefs:    0.94416    0.05584
 Iteration  1 RMS(Cart)=  0.00024559 RMS(Int)=  0.00000002
 Iteration  2 RMS(Cart)=  0.00000002 RMS(Int)=  0.00000000
 ITry= 1 IFail=0 DXMaxC= 2.64D-04 DCOld= 1.00D+10 DXMaxT= 3.00D-01 DXLimC= 3.00D+00 Rises=F
 ClnCor:  largest displacement from symmetrization is 2.83D-15 for atom     3.
 Variable       Old X    -DE/DX   Delta X   Delta X   Delta X     New X
                                 (Linear)    (Quad)   (Total)
    R1        2.72671   0.00000  -0.00008   0.00009   0.00001   2.72672
    R2        2.72671   0.00000  -0.00008   0.00009   0.00001   2.72672
    A1        1.58705   0.00005   0.00020   0.00007   0.00027   1.58732
         Item               Value     Threshold  Converged?
 Maximum Force            0.000046     0.000450     YES
 RMS     Force            0.000027     0.000300     YES
 Maximum Displacement     0.000264     0.001800     YES
 RMS     Displacement     0.000246     0.001200     YES
 Predicted change in Energy=-6.132911D-09
 Optimization completed.
    -- Stationary point found.
                           ----------------------------
                           !   Optimized Parameters   !
                           ! (Angstroms and Degrees)  !
 --------------------------                            --------------------------
 ! Name  Definition              Value          Derivative Info.                !
 --------------------------------------------------------------------------------
 ! R1    R(1,2)                  1.4429         -DE/DX =    0.0                 !
 ! R2    R(1,3)                  1.4429         -DE/DX =    0.0                 !
 ! A1    A(2,1,3)               90.9315         -DE/DX =    0.0                 !
 --------------------------------------------------------------------------------
 Lowest energy point so far.  Saving SCF results.
 Largest change from initial coordinates is atom    2       0.027 Angstoms.
 GradGradGradGradGradGradGradGradGradGradGradGradGradGradGradGradGradGrad

 Leave Link  103 at Wed Oct  7 13:19:33 2020, MaxMem=  2684354560 cpu:               2.3 elap:               0.7
 (Enter /udrive/faculty/rpeverati/g16/g16/l202.exe)
                          Input orientation:                          
 ---------------------------------------------------------------------
 Center     Atomic      Atomic             Coordinates (Angstroms)
 Number     Number       Type             X           Y           Z
 ---------------------------------------------------------------------
      1         15           0        0.000000   -0.000000    0.134911
      2          1           0        0.000000    1.028553   -0.877054
      3          1           0       -0.000000   -1.028553   -0.877054
 ---------------------------------------------------------------------
                    Distance matrix (angstroms):
                    1          2          3
     1  P    0.000000
     2  H    1.442912   0.000000
     3  H    1.442912   2.057107   0.000000
 Stoichiometry    H2P(2)
 Framework group  C2V[C2(P),SGV(H2)]
 Deg. of freedom     2
 Full point group                 C2V     NOp   4
 RotChk:  IX=0 Diff= 7.42D-16
 Largest Abelian subgroup         C2V     NOp   4
 Largest concise Abelian subgroup C2      NOp   2
                         Standard orientation:                         
 ---------------------------------------------------------------------
 Center     Atomic      Atomic             Coordinates (Angstroms)
 Number     Number       Type             X           Y           Z
 ---------------------------------------------------------------------
      1         15           0        0.000000   -0.000000    0.119055
      2          1           0        0.000000    1.028553   -0.892911
      3          1           0       -0.000000   -1.028553   -0.892911
 ---------------------------------------------------------------------
 Rotational constants (GHZ):         260.7662137         237.0000220         124.1578756
 Leave Link  202 at Wed Oct  7 13:19:34 2020, MaxMem=  2684354560 cpu:               1.4 elap:               0.6
 (Enter /udrive/faculty/rpeverati/g16/g16/l601.exe)
 Copying SCF densities to generalized density rwf, IOpCl= 1 IROHF=0.

 **********************************************************************

            Population analysis using the SCF density.

 **********************************************************************

 Orbital symmetries:
 Alpha Orbitals:
       Occupied  (A1) (A1) (B1) (B2) (A1) (A1) (B2) (A1) (B1)
       Virtual   (B2) (A1) (A1) (B2) (B1) (A1) (A2) (B1) (A1) (B2)
                 (A1) (A1) (B2)
 Beta  Orbitals:
       Occupied  (A1) (A1) (B2) (A1) (B1) (A1) (B2) (A1)
       Virtual   (B1) (B2) (A1) (A1) (B2) (A1) (B1) (A1) (B2) (A2)
                 (B1) (A1) (A1) (B2)
 The electronic state is 2-B1.
 Alpha  occ. eigenvalues --  -76.36821  -6.32844  -4.54909  -4.54433  -4.54099
 Alpha  occ. eigenvalues --   -0.58143  -0.35153  -0.27878  -0.22014
 Alpha virt. eigenvalues --   -0.00621   0.04253   0.21116   0.24978   0.26476
 Alpha virt. eigenvalues --    0.27019   0.58515   0.59205   0.60085   0.63065
 Alpha virt. eigenvalues --    0.68002   0.89396   1.05077
  Beta  occ. eigenvalues --  -76.36476  -6.32462  -4.54193  -4.53874  -4.53868
  Beta  occ. eigenvalues --   -0.55743  -0.34564  -0.26589
  Beta virt. eigenvalues --   -0.15407   0.00081   0.06255   0.24011   0.25831
  Beta virt. eigenvalues --    0.27984   0.30712   0.60817   0.63235   0.63669
  Beta virt. eigenvalues --    0.64198   0.73029   0.90800   1.05525
          Condensed to atoms (all electrons):
               1          2          3
     1  P   14.490921   0.270747   0.270747
     2  H    0.270747   0.729000  -0.015954
     3  H    0.270747  -0.015954   0.729000
          Atomic-Atomic Spin Densities.
               1          2          3
     1  P    1.101949  -0.013337  -0.013337
     2  H   -0.013337  -0.027040   0.002740
     3  H   -0.013337   0.002740  -0.027040
 Mulliken charges and spin densities:
               1          2
     1  P   -0.032415   1.075274
     2  H    0.016207  -0.037637
     3  H    0.016207  -0.037637
 Sum of Mulliken charges =   0.00000   1.00000
 Mulliken charges and spin densities with hydrogens summed into heavy atoms:
               1          2
     1  P    0.000000   1.000000
 Electronic spatial extent (au):  <R**2>=             46.9608
 Charge=              0.0000 electrons
 Dipole moment (field-independent basis, Debye):
    X=              0.0000    Y=             -0.0000    Z=             -0.9008  Tot=              0.9008
 Quadrupole moment (field-independent basis, Debye-Ang):
   XX=            -14.9792   YY=            -13.9657   ZZ=            -15.3758
   XY=              0.0000   XZ=             -0.0000   YZ=              0.0000
 Traceless Quadrupole moment (field-independent basis, Debye-Ang):
   XX=             -0.2057   YY=              0.8079   ZZ=             -0.6023
   XY=              0.0000   XZ=             -0.0000   YZ=              0.0000
 Octapole moment (field-independent basis, Debye-Ang**2):
  XXX=              0.0000  YYY=             -0.0000  ZZZ=             -1.4006  XYY=              0.0000
  XXY=             -0.0000  XXZ=             -0.5338  XZZ=              0.0000  YZZ=             -0.0000
  YYZ=             -0.1856  XYZ=             -0.0000
 Hexadecapole moment (field-independent basis, Debye-Ang**3):
 XXXX=            -21.7810 YYYY=            -29.9404 ZZZZ=            -32.7300 XXXY=             -0.0000
 XXXZ=             -0.0000 YYYX=             -0.0000 YYYZ=              0.0000 ZZZX=             -0.0000
 ZZZY=              0.0000 XXYY=             -8.7435 XXZZ=             -9.1979 YYZZ=            -10.0357
 XXYZ=              0.0000 YYXZ=             -0.0000 ZZXY=             -0.0000
 N-N= 1.125951680411D+01 E-N=-8.369860594218D+02  KE= 3.417006455775D+02
                          Isotropic Fermi Contact Couplings
        Atom                 a.u.       MegaHertz       Gauss      10(-4) cm-1
     1  P(31)              0.09100     164.80778      58.80752      54.97396
     2  H(1)              -0.01021     -45.64393     -16.28689     -15.22518
     3  H(1)              -0.01021     -45.64393     -16.28689     -15.22518
 --------------------------------------------------------
       Center         ----  Spin Dipole Couplings  ----
                      3XX-RR        3YY-RR        3ZZ-RR
 --------------------------------------------------------
     1   Atom        2.681955     -1.299151     -1.382804
     2   Atom        0.001918      0.001342     -0.003260
     3   Atom        0.001918      0.001342     -0.003260
 --------------------------------------------------------
                        XY            XZ            YZ
 --------------------------------------------------------
     1   Atom        0.000000     -0.000000      0.000000
     2   Atom       -0.000000      0.000000     -0.029925
     3   Atom       -0.000000     -0.000000      0.029925
 --------------------------------------------------------


 ---------------------------------------------------------------------------------
              Anisotropic Spin Dipole Couplings in Principal Axis System
 ---------------------------------------------------------------------------------

       Atom             a.u.   MegaHertz   Gauss  10(-4) cm-1        Axes

              Baa    -1.3828  -298.940  -106.669   -99.716  0.0000  0.0000  1.0000
     1 P(31)  Bbb    -1.2992  -280.855  -100.216   -93.683  0.0000  1.0000  0.0000
              Bcc     2.6820   579.795   206.885   193.399  1.0000 -0.0000  0.0000
 
              Baa    -0.0310   -16.526    -5.897    -5.512 -0.0000  0.6795  0.7337
     2 H(1)   Bbb     0.0019     1.024     0.365     0.341  1.0000  0.0000  0.0000
              Bcc     0.0291    15.502     5.532     5.171 -0.0000  0.7337 -0.6795
 
              Baa    -0.0310   -16.526    -5.897    -5.512  0.0000 -0.6795  0.7337
     3 H(1)   Bbb     0.0019     1.024     0.365     0.341  1.0000  0.0000  0.0000
              Bcc     0.0291    15.502     5.532     5.171 -0.0000  0.7337  0.6795
 

 ---------------------------------------------------------------------------------

 No NMR shielding tensors so no spin-rotation constants.
 Leave Link  601 at Wed Oct  7 13:19:35 2020, MaxMem=  2684354560 cpu:               5.9 elap:               0.9
 (Enter /udrive/faculty/rpeverati/g16/g16/l9999.exe)

 Test job not archived.
 1\1\GINC-NODE17\FOpt\UBP86\6-31G(d)\H2P1(2)\RPEVERATI\07-Oct-2020\0\\#
 P Opt(MaxCyc=100) BP86/6-31G* 5D 7F Integral=UltraFineGrid SCF=(NoSymm
 ,XQC,MaxCyc=120) IOp(1/33=1)\\TS search on BH76.\\0,2\P,0.,0.,0.134911
 0908\H,0.,1.0285533837,-0.8770543437\H,0.,-1.0285533837,-0.8770543437\
 \Version=ES64L-G16RevA.03\State=2-B1\HF=-342.5155159\S2=0.753324\S2-1=
 0.\S2A=0.750004\RMSD=9.528e-09\RMSF=1.000e-05\Dipole=0.,0.,-0.3544207\
 Quadrupole=-0.152905,0.6006652,-0.4477602,0.,0.,0.\PG=C02V [C2(P1),SGV
 (H2)]\\@


 You can't act like a skunk without someone's getting wind of it.
 -- Lorene Workman
 Job cpu time:       0 days  0 hours  2 minutes 38.8 seconds.
 Elapsed time:       0 days  0 hours  0 minutes 32.5 seconds.
 File lengths (MBytes):  RWF=      5 Int=      0 D2E=      0 Chk=      1 Scr=      1
 Normal termination of Gaussian 16 at Wed Oct  7 13:19:37 2020.
