 Entering Gaussian System, Link 0=g16
 Input=MN_96_RKT22_BH76_BP86_631Gs.in
 Output=MN_96_RKT22_BH76_BP86_631Gs.log
 Initial command:
 /udrive/faculty/rpeverati/g16/g16/l1.exe "/udrive/scratch-directories/gaussian09/rpeverati/Gau-31044.inp" -scrdir="/udrive/scratch-directories/gaussian09/rpeverati/"
 Entering Link 1 = /udrive/faculty/rpeverati/g16/g16/l1.exe PID=     31045.
  
 Copyright (c) 1988,1990,1992,1993,1995,1998,2003,2009,2016,
            Gaussian, Inc.  All Rights Reserved.
  
 This is part of the Gaussian(R) 16 program.  It is based on
 the Gaussian(R) 09 system (copyright 2009, Gaussian, Inc.),
 the Gaussian(R) 03 system (copyright 2003, Gaussian, Inc.),
 the Gaussian(R) 98 system (copyright 1998, Gaussian, Inc.),
 the Gaussian(R) 94 system (copyright 1995, Gaussian, Inc.),
 the Gaussian 92(TM) system (copyright 1992, Gaussian, Inc.),
 the Gaussian 90(TM) system (copyright 1990, Gaussian, Inc.),
 the Gaussian 88(TM) system (copyright 1988, Gaussian, Inc.),
 the Gaussian 86(TM) system (copyright 1986, Carnegie Mellon
 University), and the Gaussian 82(TM) system (copyright 1983,
 Carnegie Mellon University). Gaussian is a federally registered
 trademark of Gaussian, Inc.
  
 This software contains proprietary and confidential information,
 including trade secrets, belonging to Gaussian, Inc.
  
 This software is provided under written license and may be
 used, copied, transmitted, or stored only in accord with that
 written license.
  
 The following legend is applicable only to US Government
 contracts under FAR:
  
                    RESTRICTED RIGHTS LEGEND
  
 Use, reproduction and disclosure by the US Government is
 subject to restrictions as set forth in subparagraphs (a)
 and (c) of the Commercial Computer Software - Restricted
 Rights clause in FAR 52.227-19.
  
 Gaussian, Inc.
 340 Quinnipiac St., Bldg. 40, Wallingford CT 06492
  
  
 ---------------------------------------------------------------
 Warning -- This program may not be used in any manner that
 competes with the business of Gaussian, Inc. or will provide
 assistance to any competitor of Gaussian, Inc.  The licensee
 of this program is prohibited from giving any competitor of
 Gaussian, Inc. access to this program.  By using this program,
 the user acknowledges that Gaussian, Inc. is engaged in the
 business of creating and licensing software in the field of
 computational chemistry and represents and warrants to the
 licensee that it is not a competitor of Gaussian, Inc. and that
 it will not use this program in any manner prohibited above.
 ---------------------------------------------------------------
  

 Cite this work as:
 Gaussian 16, Revision A.03,
 M. J. Frisch, G. W. Trucks, H. B. Schlegel, G. E. Scuseria, 
 M. A. Robb, J. R. Cheeseman, G. Scalmani, V. Barone, 
 G. A. Petersson, H. Nakatsuji, X. Li, M. Caricato, A. V. Marenich, 
 J. Bloino, B. G. Janesko, R. Gomperts, B. Mennucci, H. P. Hratchian, 
 J. V. Ortiz, A. F. Izmaylov, J. L. Sonnenberg, D. Williams-Young, 
 F. Ding, F. Lipparini, F. Egidi, J. Goings, B. Peng, A. Petrone, 
 T. Henderson, D. Ranasinghe, V. G. Zakrzewski, J. Gao, N. Rega, 
 G. Zheng, W. Liang, M. Hada, M. Ehara, K. Toyota, R. Fukuda, 
 J. Hasegawa, M. Ishida, T. Nakajima, Y. Honda, O. Kitao, H. Nakai, 
 T. Vreven, K. Throssell, J. A. Montgomery, Jr., J. E. Peralta, 
 F. Ogliaro, M. J. Bearpark, J. J. Heyd, E. N. Brothers, K. N. Kudin, 
 V. N. Staroverov, T. A. Keith, R. Kobayashi, J. Normand, 
 K. Raghavachari, A. P. Rendell, J. C. Burant, S. S. Iyengar, 
 J. Tomasi, M. Cossi, J. M. Millam, M. Klene, C. Adamo, R. Cammi, 
 J. W. Ochterski, R. L. Martin, K. Morokuma, O. Farkas, 
 J. B. Foresman, and D. J. Fox, Gaussian, Inc., Wallingford CT, 2016.
 
 ******************************************
 Gaussian 16:  ES64L-G16RevA.03 25-Dec-2016
                 7-Oct-2020 
 ******************************************
 %NoSave
 %nproc=12
 Will use up to   12 processors via shared memory.
 %mem=20GB
 %chk=MN_96_RKT22_BH76_BP86_631Gs
 ----------------------------------------------------------------------
 #P Opt(TS,MaxCyc=50,NoEigenTest,MaxStep=10,AddRedundant) BP86/6-31G* 5
 D 7F Integral=UltraFineGrid SCF=(NoSymm,XQC,MaxCyc=120) IOp(1/33=1)
 ----------------------------------------------------------------------
 1/5=1,6=50,8=10,11=1,18=120,26=4,33=1,38=1/1,3;
 2/9=110,12=2,17=6,18=5,40=1/2;
 3/5=1,6=6,7=1,8=11,11=2,25=1,30=1,71=1,74=404,75=-5/1,2,3;
 4/9=2/1;
 5/5=2,7=120,8=3,13=1,38=5/2,8;
 6/7=2,8=2,9=2,10=2,28=1/1;
 7//1,2,3,16;
 1/5=1,6=50,8=10,11=1,18=20,26=4,33=1/3(2);
 2/9=110/2;
 99//99;
 2/9=110/2;
 3/5=1,6=6,7=1,8=11,11=2,25=1,30=1,71=1,74=404,75=-5/1,2,3;
 4/5=5,9=2,16=3,69=1/1;
 5/5=2,7=120,8=3,13=1,38=5/2,8;
 7//1,2,3,16;
 1/5=1,6=50,8=10,11=1,18=20,26=4,33=1/3(-5);
 2/9=110/2;
 6/7=2,8=2,9=2,10=2,19=2,28=1/1;
 99/9=1/99;
 Leave Link    1 at Wed Oct  7 13:20:05 2020, MaxMem=  2684354560 cpu:               9.0 elap:               0.9
 (Enter /udrive/faculty/rpeverati/g16/g16/l101.exe)
 ONIOM data not found on unit 2.
 ------------------
 TS search on BH76.
 ------------------
 TstMul:  ICh=     0
 TstMul:  Mul=     1
 TstMul:  ICh=     0
 TstMul:  Mul=     1
 Symbolic Z-matrix:
 Charge =  0 Multiplicity = 1
 C                    -1.29962  -0.90486  -0.02015 
 C                    -1.20595   0.50582  -0.01341 
 C                     0.        1.18336   0.1533 
 C                     1.20595   0.50581  -0.01342 
 C                     1.29963  -0.90485  -0.02015 
 H                     2.1688   -1.32755  -0.5157 
 H                     1.03204  -1.45439   0.87317 
 H                     2.03713   1.08559  -0.3985 
 H                     0.        2.26292   0.08591 
 H                    -2.03713   1.08559  -0.39848 
 H                    -2.1688   -1.32754  -0.51572 
 H                    -0.00001  -1.18194  -0.52081 
 H                    -1.03206  -1.4544    0.87316 
 
 RdStrC is calling ZToCFu for IStruc=1 NZ=    13.
 PrtBox:  NBox=     2 Levels=  1 BoxLen=    8.00 SMaxX=        8.20
          Shift=            4.098430            2.748410            0.984185
 Box      1 Number                   0 centers from      1 to     12:
 Box      2 Number                   4 centers from     13 to     13:
 After GenITR:
 ITRead=  0  0  0  0  0  0  0  0  0  0  0  0  0
 MicOpt= -1 -1 -1 -1 -1 -1 -1 -1 -1 -1 -1 -1 -1
 Add virtual bond connecting atoms H12        and C1         Dist= 2.68D+00.
 Add virtual bond connecting atoms H12        and C5         Dist= 2.68D+00.
 The following ModRedundant input section has been read:
 
 ITRead=  0  0  0  0  0  0  0  0  0  0  0  0  0
 MicOpt= -1 -1 -1 -1 -1 -1 -1 -1 -1 -1 -1 -1 -1
 NAtoms=     13 NQM=       13 NQMF=       0 NMMI=      0 NMMIF=      0
                NMic=       0 NMicF=      0.
                    Isotopes and Nuclear Properties:
 (Nuclear quadrupole moments (NQMom) in fm**2, nuclear magnetic moments (NMagM)
  in nuclear magnetons)

  Atom         1           2           3           4           5           6           7           8           9          10
 IAtWgt=          12          12          12          12          12           1           1           1           1           1
 AtmWgt=  12.0000000  12.0000000  12.0000000  12.0000000  12.0000000   1.0078250   1.0078250   1.0078250   1.0078250   1.0078250
 NucSpn=           0           0           0           0           0           1           1           1           1           1
 AtZEff=   0.0000000   0.0000000   0.0000000   0.0000000   0.0000000   0.0000000   0.0000000   0.0000000   0.0000000   0.0000000
 NQMom=    0.0000000   0.0000000   0.0000000   0.0000000   0.0000000   0.0000000   0.0000000   0.0000000   0.0000000   0.0000000
 NMagM=    0.0000000   0.0000000   0.0000000   0.0000000   0.0000000   2.7928460   2.7928460   2.7928460   2.7928460   2.7928460
 AtZNuc=   6.0000000   6.0000000   6.0000000   6.0000000   6.0000000   1.0000000   1.0000000   1.0000000   1.0000000   1.0000000

  Atom        11          12          13
 IAtWgt=           1           1           1
 AtmWgt=   1.0078250   1.0078250   1.0078250
 NucSpn=           1           1           1
 AtZEff=   0.0000000   0.0000000   0.0000000
 NQMom=    0.0000000   0.0000000   0.0000000
 NMagM=    2.7928460   2.7928460   2.7928460
 AtZNuc=   1.0000000   1.0000000   1.0000000
 No MM parameters found.
 Leave Link  101 at Wed Oct  7 13:20:07 2020, MaxMem=  2684354560 cpu:              19.2 elap:               1.8
 (Enter /udrive/faculty/rpeverati/g16/g16/l103.exe)

 GradGradGradGradGradGradGradGradGradGradGradGradGradGradGradGradGradGrad
 Berny optimization.
 Optmz: redundant internal coordinate code flag= 1
 Initialization pass.
                           ----------------------------
                           !    Initial Parameters    !
                           ! (Angstroms and Degrees)  !
 --------------------------                            --------------------------
 ! Name  Definition              Value          Derivative Info.                !
 --------------------------------------------------------------------------------
 ! R1    R(1,2)                  1.4138         estimate D2E/DX2                !
 ! R2    R(1,11)                 1.0861         estimate D2E/DX2                !
 ! R3    R(1,12)                 1.42           estimate D2E/DX2                !
 ! R4    R(1,13)                 1.0824         estimate D2E/DX2                !
 ! R5    R(2,3)                  1.3933         estimate D2E/DX2                !
 ! R6    R(2,10)                 1.0841         estimate D2E/DX2                !
 ! R7    R(3,4)                  1.3933         estimate D2E/DX2                !
 ! R8    R(3,9)                  1.0817         estimate D2E/DX2                !
 ! R9    R(4,5)                  1.4138         estimate D2E/DX2                !
 ! R10   R(4,8)                  1.0841         estimate D2E/DX2                !
 ! R11   R(5,6)                  1.0861         estimate D2E/DX2                !
 ! R12   R(5,7)                  1.0824         estimate D2E/DX2                !
 ! R13   R(5,12)                 1.42           estimate D2E/DX2                !
 ! A1    A(2,1,11)             116.3274         estimate D2E/DX2                !
 ! A2    A(2,1,12)              97.8015         estimate D2E/DX2                !
 ! A3    A(2,1,13)             119.0957         estimate D2E/DX2                !
 ! A4    A(11,1,12)            119.7086         estimate D2E/DX2                !
 ! A5    A(11,1,13)            112.1348         estimate D2E/DX2                !
 ! A6    A(12,1,13)             88.0329         estimate D2E/DX2                !
 ! A7    A(1,2,3)              122.8982         estimate D2E/DX2                !
 ! A8    A(1,2,10)             118.7584         estimate D2E/DX2                !
 ! A9    A(3,2,10)             116.4911         estimate D2E/DX2                !
 ! A10   A(2,3,4)              119.893          estimate D2E/DX2                !
 ! A11   A(2,3,9)              118.5485         estimate D2E/DX2                !
 ! A12   A(4,3,9)              118.5485         estimate D2E/DX2                !
 ! A13   A(3,4,5)              122.8985         estimate D2E/DX2                !
 ! A14   A(3,4,8)              116.4909         estimate D2E/DX2                !
 ! A15   A(5,4,8)              118.7584         estimate D2E/DX2                !
 ! A16   A(4,5,6)              116.3283         estimate D2E/DX2                !
 ! A17   A(4,5,7)              119.0957         estimate D2E/DX2                !
 ! A18   A(4,5,12)              97.801          estimate D2E/DX2                !
 ! A19   A(6,5,7)              112.1349         estimate D2E/DX2                !
 ! A20   A(6,5,12)             119.7085         estimate D2E/DX2                !
 ! A21   A(7,5,12)              88.032          estimate D2E/DX2                !
 ! A22   A(1,12,5)             132.4725         estimate D2E/DX2                !
 ! D1    D(11,1,2,3)          -157.5701         estimate D2E/DX2                !
 ! D2    D(11,1,2,10)            6.3785         estimate D2E/DX2                !
 ! D3    D(12,1,2,3)           -28.8215         estimate D2E/DX2                !
 ! D4    D(12,1,2,10)          135.1272         estimate D2E/DX2                !
 ! D5    D(13,1,2,3)            63.2758         estimate D2E/DX2                !
 ! D6    D(13,1,2,10)         -132.7755         estimate D2E/DX2                !
 ! D7    D(2,1,12,5)            61.5015         estimate D2E/DX2                !
 ! D8    D(11,1,12,5)         -172.0882         estimate D2E/DX2                !
 ! D9    D(13,1,12,5)          -57.6025         estimate D2E/DX2                !
 ! D10   D(1,2,3,4)             16.1664         estimate D2E/DX2                !
 ! D11   D(1,2,3,9)            176.2677         estimate D2E/DX2                !
 ! D12   D(10,2,3,4)          -148.1199         estimate D2E/DX2                !
 ! D13   D(10,2,3,9)            11.9814         estimate D2E/DX2                !
 ! D14   D(2,3,4,5)            -16.1672         estimate D2E/DX2                !
 ! D15   D(2,3,4,8)            148.1195         estimate D2E/DX2                !
 ! D16   D(9,3,4,5)           -176.2685         estimate D2E/DX2                !
 ! D17   D(9,3,4,8)            -11.9818         estimate D2E/DX2                !
 ! D18   D(3,4,5,6)            157.571          estimate D2E/DX2                !
 ! D19   D(3,4,5,7)            -63.2736         estimate D2E/DX2                !
 ! D20   D(3,4,5,12)            28.8223         estimate D2E/DX2                !
 ! D21   D(8,4,5,6)             -6.378          estimate D2E/DX2                !
 ! D22   D(8,4,5,7)            132.7774         estimate D2E/DX2                !
 ! D23   D(8,4,5,12)          -135.1267         estimate D2E/DX2                !
 ! D24   D(4,5,12,1)           -61.502          estimate D2E/DX2                !
 ! D25   D(6,5,12,1)           172.087          estimate D2E/DX2                !
 ! D26   D(7,5,12,1)            57.6018         estimate D2E/DX2                !
 --------------------------------------------------------------------------------
 Maximum allowed force set to 1.00D+20.
 Trust Radius=1.00D-01 FncErr=1.00D-07 GrdErr=1.00D-06 EigMax=2.50D+02 EigMin=1.00D-04
 Number of steps in this run=     50 maximum allowed number of steps=    100.
 Search for a saddle point of order  1.
 GradGradGradGradGradGradGradGradGradGradGradGradGradGradGradGradGradGrad

 Leave Link  103 at Wed Oct  7 13:20:08 2020, MaxMem=  2684354560 cpu:               1.4 elap:               0.5
 (Enter /udrive/faculty/rpeverati/g16/g16/l202.exe)
                          Input orientation:                          
 ---------------------------------------------------------------------
 Center     Atomic      Atomic             Coordinates (Angstroms)
 Number     Number       Type             X           Y           Z
 ---------------------------------------------------------------------
      1          6           0       -1.299622   -0.904856   -0.020155
      2          6           0       -1.205947    0.505817   -0.013414
      3          6           0        0.000000    1.183362    0.153301
      4          6           0        1.205947    0.505814   -0.013422
      5          6           0        1.299627   -0.904851   -0.020147
      6          1           0        2.168796   -1.327552   -0.515697
      7          1           0        1.032044   -1.454385    0.873169
      8          1           0        2.037131    1.085586   -0.398504
      9          1           0        0.000001    2.262915    0.085905
     10          1           0       -2.037131    1.085586   -0.398481
     11          1           0       -2.168796   -1.327542   -0.515716
     12          1           0       -0.000011   -1.181944   -0.520808
     13          1           0       -1.032060   -1.454396    0.873158
 ---------------------------------------------------------------------
                    Distance matrix (angstroms):
                    1          2          3          4          5
     1  C    0.000000
     2  C    1.413796   0.000000
     3  C    2.465717   1.393259   0.000000
     4  C    2.875398   2.411894   1.393261   0.000000
     5  C    2.599250   2.875402   2.465714   1.413788   0.000000
     6  H    3.529045   3.873296   3.384660   2.130866   1.086140
     7  H    2.556692   3.104356   2.922505   2.158395   1.082406
     8  H    3.903707   3.316924   2.112807   1.084108   2.156132
     9  H    3.425645   2.133441   1.081655   2.133442   3.425641
    10  H    2.156133   1.084101   2.112801   3.316921   3.903708
    11  H    1.086143   2.130866   3.384656   3.873291   3.529053
    12  H    1.420007   2.135478   2.459491   2.135486   1.420036
    13  H    1.082401   2.158398   2.922517   3.104371   2.556709
                    6          7          8          9         10
     6  H    0.000000
     7  H    1.799233   0.000000
     8  H    2.419567   3.013106   0.000000
     9  H    4.237576   3.937413   2.402219   0.000000
    10  H    4.850443   4.181911   4.074262   2.402216   0.000000
    11  H    4.337592   3.491484   4.850438   4.237571   2.419559
    12  H    2.173695   1.755715   3.050672   3.497879   3.050658
    13  H    3.491487   2.064103   4.181933   3.937425   3.013095
                   11         12         13
    11  H    0.000000
    12  H    2.173672   0.000000
    13  H    1.799231   1.755704   0.000000
 Stoichiometry    C5H8
 Framework group  C1[X(C5H8)]
 Deg. of freedom    33
 Full point group                 C1      NOp   1
 Largest Abelian subgroup         C1      NOp   1
 Largest concise Abelian subgroup C1      NOp   1
                         Standard orientation:                         
 ---------------------------------------------------------------------
 Center     Atomic      Atomic             Coordinates (Angstroms)
 Number     Number       Type             X           Y           Z
 ---------------------------------------------------------------------
      1          6           0       -1.299623   -0.904855   -0.020155
      2          6           0       -1.205947    0.505819   -0.013414
      3          6           0        0.000001    1.183362    0.153301
      4          6           0        1.205947    0.505813   -0.013422
      5          6           0        1.299627   -0.904851   -0.020147
      6          1           0        2.168795   -1.327554   -0.515697
      7          1           0        1.032042   -1.454386    0.873169
      8          1           0        2.037132    1.085585   -0.398504
      9          1           0        0.000003    2.262916    0.085905
     10          1           0       -2.037130    1.085588   -0.398481
     11          1           0       -2.168797   -1.327539   -0.515716
     12          1           0       -0.000012   -1.181943   -0.520808
     13          1           0       -1.032061   -1.454395    0.873158
 ---------------------------------------------------------------------
 Rotational constants (GHZ):           8.1193781           5.1373721           3.2660768
 Leave Link  202 at Wed Oct  7 13:20:09 2020, MaxMem=  2684354560 cpu:               1.6 elap:               0.7
 (Enter /udrive/faculty/rpeverati/g16/g16/l301.exe)
 Standard basis: 6-31G(d) (5D, 7F)
 Ernie: Thresh=  0.10000D-02 Tol=  0.10000D-05 Strict=F.
 There are    91 symmetry adapted cartesian basis functions of A   symmetry.
 There are    86 symmetry adapted basis functions of A   symmetry.
    86 basis functions,   172 primitive gaussians,    91 cartesian basis functions
    19 alpha electrons       19 beta electrons
       nuclear repulsion energy       164.9366301686 Hartrees.
 IExCor=  404 DFT=T Ex=B Corr=P86 ExCW=0 ScaHFX=  0.000000
 ScaDFX=  1.000000  1.000000  1.000000  1.000000 ScalE2=  1.000000  1.000000
 IRadAn=      5 IRanWt=     -1 IRanGd=            0 ICorTp=0 IEmpDi=  4
 NAtoms=   13 NActive=   13 NUniq=   13 SFac= 1.00D+00 NAtFMM=   60 NAOKFM=F Big=F
 Integral buffers will be    131072 words long.
 Raffenetti 2 integral format.
 Two-electron integral symmetry is turned on.
 Leave Link  301 at Wed Oct  7 13:20:10 2020, MaxMem=  2684354560 cpu:               1.7 elap:               0.6
 (Enter /udrive/faculty/rpeverati/g16/g16/l302.exe)
 NPDir=0 NMtPBC=     1 NCelOv=     1 NCel=       1 NClECP=     1 NCelD=      1
         NCelK=      1 NCelE2=     1 NClLst=     1 CellRange=     0.0.
 One-electron integrals computed using PRISM.
 One-electron integral symmetry used in STVInt
 NBasis=    86 RedAO= T EigKep=  2.82D-03  NBF=    86
 NBsUse=    86 1.00D-06 EigRej= -1.00D+00 NBFU=    86
 Precomputing XC quadrature grid using
 IXCGrd= 4 IRadAn=           5 IRanWt=          -1 IRanGd=           0 AccXCQ= 0.00D+00.
 Generated NRdTot=       0 NPtTot=           0 NUsed=           0 NTot=          32
 NSgBfM=    91    91    91    91    91 MxSgAt=    13 MxSgA2=    13.
 Leave Link  302 at Wed Oct  7 13:20:11 2020, MaxMem=  2684354560 cpu:               5.0 elap:               0.8
 (Enter /udrive/faculty/rpeverati/g16/g16/l303.exe)
 DipDrv:  MaxL=1.
 Leave Link  303 at Wed Oct  7 13:20:12 2020, MaxMem=  2684354560 cpu:               1.9 elap:               0.5
 (Enter /udrive/faculty/rpeverati/g16/g16/l401.exe)
 SCF N**3 symmetry information disabled.
 ExpMin= 1.61D-01 ExpMax= 3.05D+03 ExpMxC= 4.57D+02 IAcc=3 IRadAn=         5 AccDes= 0.00D+00
 Harris functional with IExCor=  404 and IRadAn=       5 diagonalized for initial guess.
 HarFok:  IExCor=  404 AccDes= 0.00D+00 IRadAn=         5 IDoV= 1 UseB2=F ITyADJ=14
 ICtDFT=  3500011 ScaDFX=  1.000000  1.000000  1.000000  1.000000
 FoFCou: FMM=F IPFlag=           0 FMFlag=      100000 FMFlg1=           0
         NFxFlg=           0 DoJE=T BraDBF=F KetDBF=T FulRan=T
         wScrn=  0.000000 ICntrl=       500 IOpCl=  0 I1Cent=   200000004 NGrid=           0
         NMat0=    1 NMatS0=      1 NMatT0=    0 NMatD0=    1 NMtDS0=    0 NMtDT0=    0
 Petite list used in FoFCou.
 Harris En= -195.371131156271    
 JPrj=0 DoOrth=F DoCkMO=F.
 Leave Link  401 at Wed Oct  7 13:20:13 2020, MaxMem=  2684354560 cpu:               9.4 elap:               1.2
 (Enter /udrive/faculty/rpeverati/g16/g16/l502.exe)
 Integral symmetry usage will be decided dynamically.
 Closed shell SCF:
 Using DIIS extrapolation, IDIIS=  1040.
 NGot=  2684354560 LenX=  2684335663 LenY=  2684326941
 Requested convergence on RMS density matrix=1.00D-08 within 120 cycles.
 Requested convergence on MAX density matrix=1.00D-06.
 Requested convergence on             energy=1.00D-06.
 No special actions if energy rises.
 Fock matrices will be formed incrementally for  20 cycles.
 Integral accuracy reduced to 1.0D-05 until final iterations.

 Cycle   1  Pass 0  IDiag  1:
 FoFJK:  IHMeth= 1 ICntrl=     500 DoSepK=F KAlg= 0 I1Cent=           0 FoldK=F
 IRaf= 990000000 NMat=       1 IRICut=       1 DoRegI=T DoRafI=F ISym2E= 0 IDoP0=0 IntGTp=1.
 FoFCou: FMM=F IPFlag=           0 FMFlag=      100000 FMFlg1=           0
         NFxFlg=           0 DoJE=T BraDBF=F KetDBF=F FulRan=T
         wScrn=  0.000000 ICntrl=       500 IOpCl=  0 I1Cent=           0 NGrid=           0
         NMat0=    1 NMatS0=      1 NMatT0=    0 NMatD0=    1 NMtDS0=    0 NMtDT0=    0
 Symmetry not used in FoFCou.
 E= -195.090160348949    
 DIIS: error= 3.61D-02 at cycle   1 NSaved=   1.
 NSaved= 1 IEnMin= 1 EnMin= -195.090160348949     IErMin= 1 ErrMin= 3.61D-02
 ErrMax= 3.61D-02  0.00D+00 EMaxC= 1.00D-01 BMatC= 1.26D-01 BMatP= 1.26D-01
 IDIUse=3 WtCom= 6.39D-01 WtEn= 3.61D-01
 Coeff-Com:  0.100D+01
 Coeff-En:   0.100D+01
 Coeff:      0.100D+01
 Gap=     0.143 Goal=   None    Shift=    0.000
 GapD=    0.143 DampG=1.000 DampE=0.500 DampFc=0.5000 IDamp=-1.
 Damping current iteration by 5.00D-01
 RMSDP=1.12D-02 MaxDP=1.52D-01              OVMax= 1.69D-01

 Cycle   2  Pass 0  IDiag  1:
 RMSU=  5.54D-03    CP:  9.74D-01
 E= -195.147534039860     Delta-E=       -0.057373690910 Rises=F Damp=T
 DIIS: error= 6.33D-03 at cycle   2 NSaved=   2.
 NSaved= 2 IEnMin= 2 EnMin= -195.147534039860     IErMin= 2 ErrMin= 6.33D-03
 ErrMax= 6.33D-03  0.00D+00 EMaxC= 1.00D-01 BMatC= 6.15D-03 BMatP= 1.26D-01
 IDIUse=3 WtCom= 9.37D-01 WtEn= 6.33D-02
 Coeff-Com:  0.148D+00 0.852D+00
 Coeff-En:   0.243D+00 0.757D+00
 Coeff:      0.154D+00 0.846D+00
 Gap=     0.147 Goal=   None    Shift=    0.000
 RMSDP=1.99D-03 MaxDP=2.90D-02 DE=-5.74D-02 OVMax= 1.02D-01

 Cycle   3  Pass 0  IDiag  1:
 RMSU=  1.61D-03    CP:  9.78D-01  7.91D-01
 E= -195.238451456595     Delta-E=       -0.090917416735 Rises=F Damp=F
 DIIS: error= 3.13D-03 at cycle   3 NSaved=   3.
 NSaved= 3 IEnMin= 3 EnMin= -195.238451456595     IErMin= 3 ErrMin= 3.13D-03
 ErrMax= 3.13D-03  0.00D+00 EMaxC= 1.00D-01 BMatC= 1.13D-03 BMatP= 6.15D-03
 IDIUse=3 WtCom= 9.69D-01 WtEn= 3.13D-02
 Coeff-Com:  0.472D-01 0.335D+00 0.618D+00
 Coeff-En:   0.000D+00 0.000D+00 0.100D+01
 Coeff:      0.458D-01 0.325D+00 0.630D+00
 Gap=     0.145 Goal=   None    Shift=    0.000
 RMSDP=8.80D-04 MaxDP=1.01D-02 DE=-9.09D-02 OVMax= 3.92D-02

 Cycle   4  Pass 0  IDiag  1:
 RMSU=  7.25D-04    CP:  9.77D-01  7.97D-01  6.93D-01
 E= -195.238727437674     Delta-E=       -0.000275981080 Rises=F Damp=F
 DIIS: error= 3.61D-03 at cycle   4 NSaved=   4.
 NSaved= 4 IEnMin= 4 EnMin= -195.238727437674     IErMin= 3 ErrMin= 3.13D-03
 ErrMax= 3.61D-03  0.00D+00 EMaxC= 1.00D-01 BMatC= 7.80D-04 BMatP= 1.13D-03
 IDIUse=3 WtCom= 9.64D-01 WtEn= 3.61D-02
 Coeff-Com:  0.205D-01 0.159D+00 0.453D+00 0.368D+00
 Coeff-En:   0.000D+00 0.000D+00 0.447D+00 0.553D+00
 Coeff:      0.197D-01 0.153D+00 0.453D+00 0.375D+00
 Gap=     0.145 Goal=   None    Shift=    0.000
 RMSDP=4.78D-04 MaxDP=6.18D-03 DE=-2.76D-04 OVMax= 2.74D-02

 Cycle   5  Pass 0  IDiag  1:
 RMSU=  2.20D-04    CP:  9.77D-01  8.08D-01  7.38D-01  4.30D-01
 E= -195.239653602811     Delta-E=       -0.000926165137 Rises=F Damp=F
 DIIS: error= 8.29D-04 at cycle   5 NSaved=   5.
 NSaved= 5 IEnMin= 5 EnMin= -195.239653602811     IErMin= 5 ErrMin= 8.29D-04
 ErrMax= 8.29D-04  0.00D+00 EMaxC= 1.00D-01 BMatC= 5.99D-05 BMatP= 7.80D-04
 IDIUse=3 WtCom= 9.92D-01 WtEn= 8.29D-03
 Coeff-Com:  0.286D-02 0.314D-01 0.154D+00 0.240D+00 0.572D+00
 Coeff-En:   0.000D+00 0.000D+00 0.000D+00 0.675D-01 0.932D+00
 Coeff:      0.284D-02 0.311D-01 0.153D+00 0.238D+00 0.575D+00
 Gap=     0.145 Goal=   None    Shift=    0.000
 RMSDP=1.09D-04 MaxDP=1.25D-03 DE=-9.26D-04 OVMax= 4.61D-03

 Cycle   6  Pass 0  IDiag  1:
 RMSU=  5.17D-05    CP:  9.77D-01  8.05D-01  7.54D-01  4.85D-01  6.29D-01
 E= -195.239716585978     Delta-E=       -0.000062983167 Rises=F Damp=F
 DIIS: error= 2.43D-04 at cycle   6 NSaved=   6.
 NSaved= 6 IEnMin= 6 EnMin= -195.239716585978     IErMin= 6 ErrMin= 2.43D-04
 ErrMax= 2.43D-04  0.00D+00 EMaxC= 1.00D-01 BMatC= 5.01D-06 BMatP= 5.99D-05
 IDIUse=3 WtCom= 9.98D-01 WtEn= 2.43D-03
 Coeff-Com:  0.535D-03 0.937D-02 0.648D-01 0.126D+00 0.343D+00 0.457D+00
 Coeff-En:   0.000D+00 0.000D+00 0.000D+00 0.000D+00 0.000D+00 0.100D+01
 Coeff:      0.534D-03 0.935D-02 0.646D-01 0.126D+00 0.342D+00 0.458D+00
 Gap=     0.146 Goal=   None    Shift=    0.000
 RMSDP=2.87D-05 MaxDP=7.96D-04 DE=-6.30D-05 OVMax= 1.35D-03

 Cycle   7  Pass 0  IDiag  1:
 RMSU=  1.75D-05    CP:  9.77D-01  8.05D-01  7.53D-01  4.84D-01  6.55D-01
                    CP:  5.77D-01
 E= -195.239721276668     Delta-E=       -0.000004690689 Rises=F Damp=F
 DIIS: error= 6.79D-05 at cycle   7 NSaved=   7.
 NSaved= 7 IEnMin= 7 EnMin= -195.239721276668     IErMin= 7 ErrMin= 6.79D-05
 ErrMax= 6.79D-05  0.00D+00 EMaxC= 1.00D-01 BMatC= 4.31D-07 BMatP= 5.01D-06
 IDIUse=1 WtCom= 1.00D+00 WtEn= 0.00D+00
 Coeff-Com: -0.199D-04 0.140D-02 0.175D-01 0.454D-01 0.127D+00 0.273D+00
 Coeff-Com:  0.535D+00
 Coeff:     -0.199D-04 0.140D-02 0.175D-01 0.454D-01 0.127D+00 0.273D+00
 Coeff:      0.535D+00
 Gap=     0.146 Goal=   None    Shift=    0.000
 RMSDP=1.16D-05 MaxDP=1.91D-04 DE=-4.69D-06 OVMax= 4.44D-04

 Cycle   8  Pass 0  IDiag  1:
 RMSU=  3.66D-06    CP:  9.77D-01  8.05D-01  7.52D-01  4.94D-01  6.52D-01
                    CP:  5.99D-01  5.56D-01
 E= -195.239721825348     Delta-E=       -0.000000548680 Rises=F Damp=F
 DIIS: error= 6.07D-06 at cycle   8 NSaved=   8.
 NSaved= 8 IEnMin= 8 EnMin= -195.239721825348     IErMin= 8 ErrMin= 6.07D-06
 ErrMax= 6.07D-06  0.00D+00 EMaxC= 1.00D-01 BMatC= 3.74D-09 BMatP= 4.31D-07
 IDIUse=1 WtCom= 1.00D+00 WtEn= 0.00D+00
 Coeff-Com: -0.201D-04-0.105D-03 0.234D-02 0.778D-02 0.239D-01 0.606D-01
 Coeff-Com:  0.162D+00 0.743D+00
 Coeff:     -0.201D-04-0.105D-03 0.234D-02 0.778D-02 0.239D-01 0.606D-01
 Coeff:      0.162D+00 0.743D+00
 Gap=     0.146 Goal=   None    Shift=    0.000
 RMSDP=1.17D-06 MaxDP=1.23D-05 DE=-5.49D-07 OVMax= 2.93D-05

 Initial convergence to 1.0D-05 achieved.  Increase integral accuracy.
 Cycle   9  Pass 1  IDiag  1:
 E= -195.239704345133     Delta-E=        0.000017480214 Rises=F Damp=F
 DIIS: error= 7.93D-06 at cycle   1 NSaved=   1.
 NSaved= 1 IEnMin= 1 EnMin= -195.239704345133     IErMin= 1 ErrMin= 7.93D-06
 ErrMax= 7.93D-06  0.00D+00 EMaxC= 1.00D-01 BMatC= 3.48D-09 BMatP= 3.48D-09
 IDIUse=1 WtCom= 1.00D+00 WtEn= 0.00D+00
 Coeff-Com:  0.100D+01
 Coeff:      0.100D+01
 Gap=     0.146 Goal=   None    Shift=    0.000
 RMSDP=1.17D-06 MaxDP=1.23D-05 DE= 1.75D-05 OVMax= 3.04D-05

 Cycle  10  Pass 1  IDiag  1:
 RMSU=  2.86D-06    CP:  1.00D+00
 E= -195.239704334216     Delta-E=        0.000000010917 Rises=F Damp=F
 DIIS: error= 7.26D-07 at cycle   2 NSaved=   2.
 NSaved= 2 IEnMin= 1 EnMin= -195.239704345133     IErMin= 2 ErrMin= 7.26D-07
 ErrMax= 7.26D-07  0.00D+00 EMaxC= 1.00D-01 BMatC= 1.13D-10 BMatP= 3.48D-09
 IDIUse=1 WtCom= 1.00D+00 WtEn= 0.00D+00
 Coeff-Com:  0.589D-01 0.941D+00
 Coeff:      0.589D-01 0.941D+00
 Gap=     0.146 Goal=   None    Shift=    0.000
 RMSDP=3.20D-07 MaxDP=3.46D-06 DE= 1.09D-08 OVMax= 9.71D-06

 Cycle  11  Pass 1  IDiag  1:
 RMSU=  3.18D-07    CP:  1.00D+00  9.89D-01
 E= -195.239704334142     Delta-E=        0.000000000074 Rises=F Damp=F
 DIIS: error= 1.32D-06 at cycle   3 NSaved=   3.
 NSaved= 3 IEnMin= 1 EnMin= -195.239704345133     IErMin= 2 ErrMin= 7.26D-07
 ErrMax= 1.32D-06  0.00D+00 EMaxC= 1.00D-01 BMatC= 1.59D-10 BMatP= 1.13D-10
 IDIUse=1 WtCom= 1.00D+00 WtEn= 0.00D+00
 Coeff-Com:  0.451D-02 0.546D+00 0.449D+00
 Coeff:      0.451D-02 0.546D+00 0.449D+00
 Gap=     0.146 Goal=   None    Shift=    0.000
 RMSDP=2.57D-07 MaxDP=2.82D-06 DE= 7.37D-11 OVMax= 1.18D-05

 Cycle  12  Pass 1  IDiag  1:
 RMSU=  1.38D-07    CP:  1.00D+00  9.95D-01  3.19D-01
 E= -195.239704334297     Delta-E=       -0.000000000155 Rises=F Damp=F
 DIIS: error= 7.58D-07 at cycle   4 NSaved=   4.
 NSaved= 4 IEnMin= 1 EnMin= -195.239704345133     IErMin= 2 ErrMin= 7.26D-07
 ErrMax= 7.58D-07  0.00D+00 EMaxC= 1.00D-01 BMatC= 3.89D-11 BMatP= 1.13D-10
 IDIUse=1 WtCom= 1.00D+00 WtEn= 0.00D+00
 Coeff-Com: -0.105D-02 0.297D+00 0.337D+00 0.368D+00
 Coeff:     -0.105D-02 0.297D+00 0.337D+00 0.368D+00
 Gap=     0.146 Goal=   None    Shift=    0.000
 RMSDP=9.08D-08 MaxDP=1.12D-06 DE=-1.55D-10 OVMax= 5.02D-06

 Cycle  13  Pass 1  IDiag  1:
 RMSU=  3.75D-08    CP:  1.00D+00  9.97D-01  4.37D-01  4.68D-01
 E= -195.239704334343     Delta-E=       -0.000000000046 Rises=F Damp=F
 DIIS: error= 1.10D-07 at cycle   5 NSaved=   5.
 NSaved= 5 IEnMin= 1 EnMin= -195.239704345133     IErMin= 5 ErrMin= 1.10D-07
 ErrMax= 1.10D-07  0.00D+00 EMaxC= 1.00D-01 BMatC= 1.46D-12 BMatP= 3.89D-11
 IDIUse=1 WtCom= 1.00D+00 WtEn= 0.00D+00
 Coeff-Com: -0.961D-03 0.988D-01 0.146D+00 0.203D+00 0.553D+00
 Coeff:     -0.961D-03 0.988D-01 0.146D+00 0.203D+00 0.553D+00
 Gap=     0.146 Goal=   None    Shift=    0.000
 RMSDP=1.79D-08 MaxDP=2.32D-07 DE=-4.56D-11 OVMax= 5.38D-07

 Cycle  14  Pass 1  IDiag  1:
 RMSU=  7.35D-09    CP:  1.00D+00  9.98D-01  4.43D-01  4.78D-01  5.83D-01
 E= -195.239704334346     Delta-E=       -0.000000000003 Rises=F Damp=F
 DIIS: error= 2.48D-08 at cycle   6 NSaved=   6.
 NSaved= 6 IEnMin= 1 EnMin= -195.239704345133     IErMin= 6 ErrMin= 2.48D-08
 ErrMax= 2.48D-08  0.00D+00 EMaxC= 1.00D-01 BMatC= 7.12D-14 BMatP= 1.46D-12
 IDIUse=1 WtCom= 1.00D+00 WtEn= 0.00D+00
 Coeff-Com: -0.549D-03 0.289D-01 0.505D-01 0.683D-01 0.254D+00 0.599D+00
 Coeff:     -0.549D-03 0.289D-01 0.505D-01 0.683D-01 0.254D+00 0.599D+00
 Gap=     0.146 Goal=   None    Shift=    0.000
 RMSDP=4.41D-09 MaxDP=7.16D-08 DE=-3.24D-12 OVMax= 1.83D-07

 SCF Done:  E(RB-P86) =  -195.239704334     A.U. after   14 cycles
            NFock= 14  Conv=0.44D-08     -V/T= 2.0066
 KE= 1.939648021051D+02 PE=-7.816962945315D+02 EE= 2.275551579235D+02
 Leave Link  502 at Wed Oct  7 13:20:24 2020, MaxMem=  2684354560 cpu:             112.1 elap:               9.8
 (Enter /udrive/faculty/rpeverati/g16/g16/l508.exe)
 QCSCF skips out because SCF is already converged.
 Leave Link  508 at Wed Oct  7 13:20:25 2020, MaxMem=  2684354560 cpu:               0.0 elap:               0.4
 (Enter /udrive/faculty/rpeverati/g16/g16/l601.exe)
 Copying SCF densities to generalized density rwf, IOpCl= 0 IROHF=0.

 **********************************************************************

            Population analysis using the SCF density.

 **********************************************************************

 Orbital symmetries:
       Occupied  (A) (A) (A) (A) (A) (A) (A) (A) (A) (A) (A) (A)
                 (A) (A) (A) (A) (A) (A) (A)
       Virtual   (A) (A) (A) (A) (A) (A) (A) (A) (A) (A) (A) (A)
                 (A) (A) (A) (A) (A) (A) (A) (A) (A) (A) (A) (A)
                 (A) (A) (A) (A) (A) (A) (A) (A) (A) (A) (A) (A)
                 (A) (A) (A) (A) (A) (A) (A) (A) (A) (A) (A) (A)
                 (A) (A) (A) (A) (A) (A) (A) (A) (A) (A) (A) (A)
                 (A) (A) (A) (A) (A) (A) (A)
 The electronic state is 1-A.
 Alpha  occ. eigenvalues --   -9.90977  -9.90976  -9.90236  -9.90094  -9.90094
 Alpha  occ. eigenvalues --   -0.74943  -0.66801  -0.62516  -0.52940  -0.47678
 Alpha  occ. eigenvalues --   -0.44435  -0.37708  -0.36525  -0.36447  -0.34478
 Alpha  occ. eigenvalues --   -0.31834  -0.30596  -0.22779  -0.19376
 Alpha virt. eigenvalues --   -0.04822   0.00047   0.07207   0.10153   0.11914
 Alpha virt. eigenvalues --    0.14734   0.15990   0.16125   0.19026   0.21104
 Alpha virt. eigenvalues --    0.24387   0.26206   0.31674   0.38098   0.46907
 Alpha virt. eigenvalues --    0.47948   0.49585   0.52987   0.54733   0.56947
 Alpha virt. eigenvalues --    0.57329   0.58313   0.63838   0.64955   0.67967
 Alpha virt. eigenvalues --    0.68741   0.76479   0.80344   0.80918   0.82524
 Alpha virt. eigenvalues --    0.82826   0.87178   0.87742   0.89209   0.89382
 Alpha virt. eigenvalues --    0.98992   0.99519   1.04080   1.12155   1.16524
 Alpha virt. eigenvalues --    1.20225   1.26547   1.41488   1.47535   1.51218
 Alpha virt. eigenvalues --    1.56659   1.69784   1.76690   1.83710   1.85214
 Alpha virt. eigenvalues --    1.86795   1.88796   1.98484   2.00490   2.02128
 Alpha virt. eigenvalues --    2.09645   2.14717   2.17171   2.25315   2.32653
 Alpha virt. eigenvalues --    2.42828   2.48592   2.51894   2.55191   2.57630
 Alpha virt. eigenvalues --    2.78898   2.99970
          Condensed to atoms (all electrons):
               1          2          3          4          5          6
     1  C    5.319536   0.476444  -0.031877  -0.051778  -0.064969   0.002766
     2  C    0.476444   4.869695   0.566187  -0.020669  -0.051777   0.001233
     3  C   -0.031877   0.566187   4.802133   0.566180  -0.031877   0.003545
     4  C   -0.051778  -0.020669   0.566180   4.869690   0.476453  -0.022101
     5  C   -0.064969  -0.051777  -0.031877   0.476453   5.319535   0.348331
     6  H    0.002766   0.001233   0.003545  -0.022101   0.348331   0.557974
     7  H   -0.012852   0.000363  -0.003865  -0.035468   0.385885  -0.038582
     8  H   -0.000064   0.003985  -0.039722   0.372579  -0.055701  -0.007466
     9  H    0.007341  -0.049083   0.360658  -0.049083   0.007341  -0.000200
    10  H   -0.055702   0.372580  -0.039722   0.003985  -0.000064   0.000024
    11  H    0.348330  -0.022102   0.003545   0.001233   0.002766  -0.000147
    12  H    0.186095  -0.030762  -0.019815  -0.030760   0.186080   0.000806
    13  H    0.385885  -0.035467  -0.003864   0.000363  -0.012852   0.000597
               7          8          9         10         11         12
     1  C   -0.012852  -0.000064   0.007341  -0.055702   0.348330   0.186095
     2  C    0.000363   0.003985  -0.049083   0.372580  -0.022102  -0.030762
     3  C   -0.003865  -0.039722   0.360658  -0.039722   0.003545  -0.019815
     4  C   -0.035468   0.372579  -0.049083   0.003985   0.001233  -0.030760
     5  C    0.385885  -0.055701   0.007341  -0.000064   0.002766   0.186080
     6  H   -0.038582  -0.007466  -0.000200   0.000024  -0.000147   0.000806
     7  H    0.542598   0.003619  -0.000058  -0.000168   0.000597  -0.041508
     8  H    0.003619   0.581756  -0.007895  -0.000350   0.000024   0.002713
     9  H   -0.000058  -0.007895   0.608610  -0.007895  -0.000200  -0.000071
    10  H   -0.000168  -0.000350  -0.007895   0.581753  -0.007466   0.002713
    11  H    0.000597   0.000024  -0.000200  -0.007466   0.557976   0.000805
    12  H   -0.041508   0.002713  -0.000071   0.002713   0.000805   0.589383
    13  H    0.007032  -0.000168  -0.000058   0.003619  -0.038581  -0.041510
              13
     1  C    0.385885
     2  C   -0.035467
     3  C   -0.003864
     4  C    0.000363
     5  C   -0.012852
     6  H    0.000597
     7  H    0.007032
     8  H   -0.000168
     9  H   -0.000058
    10  H    0.003619
    11  H   -0.038581
    12  H   -0.041510
    13  H    0.542597
 Mulliken charges:
               1
     1  C   -0.509154
     2  C   -0.080627
     3  C   -0.131507
     4  C   -0.080625
     5  C   -0.509149
     6  H    0.153220
     7  H    0.192407
     8  H    0.146690
     9  H    0.130594
    10  H    0.146691
    11  H    0.153220
    12  H    0.195833
    13  H    0.192407
 Sum of Mulliken charges =  -0.00000
 Mulliken charges with hydrogens summed into heavy atoms:
               1
     1  C    0.032306
     2  C    0.066064
     3  C   -0.000913
     4  C    0.066066
     5  C   -0.163522
 Electronic spatial extent (au):  <R**2>=            420.4092
 Charge=             -0.0000 electrons
 Dipole moment (field-independent basis, Debye):
    X=             -0.0000    Y=             -0.0212    Z=             -0.1598  Tot=              0.1612
 Quadrupole moment (field-independent basis, Debye-Ang):
   XX=            -30.1179   YY=            -29.7972   ZZ=            -33.4628
   XY=             -0.0000   XZ=             -0.0000   YZ=             -1.3548
 Traceless Quadrupole moment (field-independent basis, Debye-Ang):
   XX=              1.0080   YY=              1.3287   ZZ=             -2.3368
   XY=             -0.0000   XZ=             -0.0000   YZ=             -1.3548
 Octapole moment (field-independent basis, Debye-Ang**2):
  XXX=             -0.0001  YYY=              3.9071  ZZZ=              0.6551  XYY=              0.0001
  XXY=              0.5885  XXZ=             -4.8355  XZZ=             -0.0000  YZZ=             -1.7212
  YYZ=              0.9738  XYZ=              0.0000
 Hexadecapole moment (field-independent basis, Debye-Ang**3):
 XXXX=           -303.2289 YYYY=           -209.5145 ZZZZ=            -47.5440 XXXY=             -0.0003
 XXXZ=             -0.0001 YYYX=             -0.0002 YYYZ=             -4.3098 ZZZX=              0.0000
 ZZZY=             -3.0500 XXYY=            -82.7021 XXZZ=            -61.5555 YYZZ=            -44.4854
 XXYZ=             -0.1780 YYXZ=             -0.0001 ZZXY=              0.0000
 N-N= 1.649366301686D+02 E-N=-7.816962953477D+02  KE= 1.939648021051D+02
 No NMR shielding tensors so no spin-rotation constants.
 Leave Link  601 at Wed Oct  7 13:20:26 2020, MaxMem=  2684354560 cpu:               4.0 elap:               0.7
 (Enter /udrive/faculty/rpeverati/g16/g16/l701.exe)
 ... and contract with generalized density number  0.
 Compute integral first derivatives.
 Leave Link  701 at Wed Oct  7 13:20:27 2020, MaxMem=  2684354560 cpu:               6.5 elap:               0.9
 (Enter /udrive/faculty/rpeverati/g16/g16/l702.exe)
 L702 exits ... SP integral derivatives will be done elsewhere.
 Leave Link  702 at Wed Oct  7 13:20:28 2020, MaxMem=  2684354560 cpu:               2.0 elap:               0.6
 (Enter /udrive/faculty/rpeverati/g16/g16/l703.exe)
 Integral derivatives from FoFJK, PRISM(SPDF).
 Compute integral first derivatives, UseDBF=F ICtDFT=           0.
 Calling FoFJK, ICntrl=      2527 FMM=F ISym2X=0 I1Cent= 0 IOpClX= 0 NMat=1 NMatS=1 NMatT=0.
 FoFJK:  IHMeth= 1 ICntrl=    2527 DoSepK=F KAlg= 0 I1Cent=           0 FoldK=F
 IRaf=         0 NMat=       1 IRICut=       1 DoRegI=T DoRafI=F ISym2E= 0 IDoP0=0 IntGTp=1.
 FoFCou: FMM=F IPFlag=           0 FMFlag=      100000 FMFlg1=         800
         NFxFlg=           0 DoJE=F BraDBF=F KetDBF=F FulRan=T
         wScrn=  0.000000 ICntrl=      2527 IOpCl=  0 I1Cent=           0 NGrid=           0
         NMat0=    1 NMatS0=      1 NMatT0=    0 NMatD0=    1 NMtDS0=    0 NMtDT0=    0
 Symmetry not used in FoFCou.
 Leave Link  703 at Wed Oct  7 13:20:30 2020, MaxMem=  2684354560 cpu:              19.7 elap:               2.1
 (Enter /udrive/faculty/rpeverati/g16/g16/l716.exe)
 Dipole        =-1.29705520D-06-8.34190027D-03-6.28684747D-02
 ***** Axes restored to original set *****
 -------------------------------------------------------------------
 Center     Atomic                   Forces (Hartrees/Bohr)
 Number     Number              X              Y              Z
 -------------------------------------------------------------------
      1        6           0.002929595    0.000254841   -0.005706557
      2        6          -0.002253015   -0.000229131    0.003515647
      3        6          -0.000000796    0.001178136    0.001946966
      4        6           0.002258031   -0.000225293    0.003513904
      5        6          -0.002928582    0.000252600   -0.005700733
      6        1           0.007700660   -0.004595885   -0.004058970
      7        1          -0.000521530   -0.005626778    0.009243152
      8        1           0.008032708    0.005475334   -0.003488652
      9        1          -0.000000011    0.010368886   -0.000260200
     10        1          -0.008036610    0.005477979   -0.003489537
     11        1          -0.007698810   -0.004595748   -0.004058187
     12        1          -0.000003075   -0.002106741   -0.000703453
     13        1           0.000521437   -0.005628202    0.009246618
 -------------------------------------------------------------------
 Cartesian Forces:  Max     0.010368886 RMS     0.004742206
 Leave Link  716 at Wed Oct  7 13:20:31 2020, MaxMem=  2684354560 cpu:               1.9 elap:               0.6
 (Enter /udrive/faculty/rpeverati/g16/g16/l103.exe)

 GradGradGradGradGradGradGradGradGradGradGradGradGradGradGradGradGradGrad
 Berny optimization.
 Optmz: redundant internal coordinate code flag= 1
 FormGI is forming the generalized inverse of G from B-inverse, IUseBI=4.
 Internal  Forces:  Max     0.011472066 RMS     0.004645032
 Search for a saddle point.
 Step number   1 out of a maximum of   50
 All quantities printed in internal units (Hartrees-Bohrs-Radians)
 Swapping is turned off.
 Second derivative matrix not updated -- first step.
 The second derivative matrix:
                          R1        R2        R3        R4        R5
           R1           0.43409
           R2           0.00000   0.35262
           R3           0.00000   0.00000   0.13683
           R4           0.00000   0.00000   0.00000   0.35706
           R5           0.00000   0.00000   0.00000   0.00000   0.46756
           R6           0.00000   0.00000   0.00000   0.00000   0.00000
           R7           0.00000   0.00000   0.00000   0.00000   0.00000
           R8           0.00000   0.00000   0.00000   0.00000   0.00000
           R9           0.00000   0.00000   0.00000   0.00000   0.00000
           R10          0.00000   0.00000   0.00000   0.00000   0.00000
           R11          0.00000   0.00000   0.00000   0.00000   0.00000
           R12          0.00000   0.00000   0.00000   0.00000   0.00000
           R13          0.00000   0.00000   0.00000   0.00000   0.00000
           A1           0.00000   0.00000   0.00000   0.00000   0.00000
           A2           0.00000   0.00000   0.00000   0.00000   0.00000
           A3           0.00000   0.00000   0.00000   0.00000   0.00000
           A4           0.00000   0.00000   0.00000   0.00000   0.00000
           A5           0.00000   0.00000   0.00000   0.00000   0.00000
           A6           0.00000   0.00000   0.00000   0.00000   0.00000
           A7           0.00000   0.00000   0.00000   0.00000   0.00000
           A8           0.00000   0.00000   0.00000   0.00000   0.00000
           A9           0.00000   0.00000   0.00000   0.00000   0.00000
           A10          0.00000   0.00000   0.00000   0.00000   0.00000
           A11          0.00000   0.00000   0.00000   0.00000   0.00000
           A12          0.00000   0.00000   0.00000   0.00000   0.00000
           A13          0.00000   0.00000   0.00000   0.00000   0.00000
           A14          0.00000   0.00000   0.00000   0.00000   0.00000
           A15          0.00000   0.00000   0.00000   0.00000   0.00000
           A16          0.00000   0.00000   0.00000   0.00000   0.00000
           A17          0.00000   0.00000   0.00000   0.00000   0.00000
           A18          0.00000   0.00000   0.00000   0.00000   0.00000
           A19          0.00000   0.00000   0.00000   0.00000   0.00000
           A20          0.00000   0.00000   0.00000   0.00000   0.00000
           A21          0.00000   0.00000   0.00000   0.00000   0.00000
           A22          0.00000   0.00000   0.00000   0.00000   0.00000
           D1           0.00000   0.00000   0.00000   0.00000   0.00000
           D2           0.00000   0.00000   0.00000   0.00000   0.00000
           D3           0.00000   0.00000   0.00000   0.00000   0.00000
           D4           0.00000   0.00000   0.00000   0.00000   0.00000
           D5           0.00000   0.00000   0.00000   0.00000   0.00000
           D6           0.00000   0.00000   0.00000   0.00000   0.00000
           D7           0.00000   0.00000   0.00000   0.00000   0.00000
           D8           0.00000   0.00000   0.00000   0.00000   0.00000
           D9           0.00000   0.00000   0.00000   0.00000   0.00000
           D10          0.00000   0.00000   0.00000   0.00000   0.00000
           D11          0.00000   0.00000   0.00000   0.00000   0.00000
           D12          0.00000   0.00000   0.00000   0.00000   0.00000
           D13          0.00000   0.00000   0.00000   0.00000   0.00000
           D14          0.00000   0.00000   0.00000   0.00000   0.00000
           D15          0.00000   0.00000   0.00000   0.00000   0.00000
           D16          0.00000   0.00000   0.00000   0.00000   0.00000
           D17          0.00000   0.00000   0.00000   0.00000   0.00000
           D18          0.00000   0.00000   0.00000   0.00000   0.00000
           D19          0.00000   0.00000   0.00000   0.00000   0.00000
           D20          0.00000   0.00000   0.00000   0.00000   0.00000
           D21          0.00000   0.00000   0.00000   0.00000   0.00000
           D22          0.00000   0.00000   0.00000   0.00000   0.00000
           D23          0.00000   0.00000   0.00000   0.00000   0.00000
           D24          0.00000   0.00000   0.00000   0.00000   0.00000
           D25          0.00000   0.00000   0.00000   0.00000   0.00000
           D26          0.00000   0.00000   0.00000   0.00000   0.00000
                          R6        R7        R8        R9        R10
           R6           0.35503
           R7           0.00000   0.46756
           R8           0.00000   0.00000   0.35795
           R9           0.00000   0.00000   0.00000   0.43410
           R10          0.00000   0.00000   0.00000   0.00000   0.35502
           R11          0.00000   0.00000   0.00000   0.00000   0.00000
           R12          0.00000   0.00000   0.00000   0.00000   0.00000
           R13          0.00000   0.00000   0.00000   0.00000   0.00000
           A1           0.00000   0.00000   0.00000   0.00000   0.00000
           A2           0.00000   0.00000   0.00000   0.00000   0.00000
           A3           0.00000   0.00000   0.00000   0.00000   0.00000
           A4           0.00000   0.00000   0.00000   0.00000   0.00000
           A5           0.00000   0.00000   0.00000   0.00000   0.00000
           A6           0.00000   0.00000   0.00000   0.00000   0.00000
           A7           0.00000   0.00000   0.00000   0.00000   0.00000
           A8           0.00000   0.00000   0.00000   0.00000   0.00000
           A9           0.00000   0.00000   0.00000   0.00000   0.00000
           A10          0.00000   0.00000   0.00000   0.00000   0.00000
           A11          0.00000   0.00000   0.00000   0.00000   0.00000
           A12          0.00000   0.00000   0.00000   0.00000   0.00000
           A13          0.00000   0.00000   0.00000   0.00000   0.00000
           A14          0.00000   0.00000   0.00000   0.00000   0.00000
           A15          0.00000   0.00000   0.00000   0.00000   0.00000
           A16          0.00000   0.00000   0.00000   0.00000   0.00000
           A17          0.00000   0.00000   0.00000   0.00000   0.00000
           A18          0.00000   0.00000   0.00000   0.00000   0.00000
           A19          0.00000   0.00000   0.00000   0.00000   0.00000
           A20          0.00000   0.00000   0.00000   0.00000   0.00000
           A21          0.00000   0.00000   0.00000   0.00000   0.00000
           A22          0.00000   0.00000   0.00000   0.00000   0.00000
           D1           0.00000   0.00000   0.00000   0.00000   0.00000
           D2           0.00000   0.00000   0.00000   0.00000   0.00000
           D3           0.00000   0.00000   0.00000   0.00000   0.00000
           D4           0.00000   0.00000   0.00000   0.00000   0.00000
           D5           0.00000   0.00000   0.00000   0.00000   0.00000
           D6           0.00000   0.00000   0.00000   0.00000   0.00000
           D7           0.00000   0.00000   0.00000   0.00000   0.00000
           D8           0.00000   0.00000   0.00000   0.00000   0.00000
           D9           0.00000   0.00000   0.00000   0.00000   0.00000
           D10          0.00000   0.00000   0.00000   0.00000   0.00000
           D11          0.00000   0.00000   0.00000   0.00000   0.00000
           D12          0.00000   0.00000   0.00000   0.00000   0.00000
           D13          0.00000   0.00000   0.00000   0.00000   0.00000
           D14          0.00000   0.00000   0.00000   0.00000   0.00000
           D15          0.00000   0.00000   0.00000   0.00000   0.00000
           D16          0.00000   0.00000   0.00000   0.00000   0.00000
           D17          0.00000   0.00000   0.00000   0.00000   0.00000
           D18          0.00000   0.00000   0.00000   0.00000   0.00000
           D19          0.00000   0.00000   0.00000   0.00000   0.00000
           D20          0.00000   0.00000   0.00000   0.00000   0.00000
           D21          0.00000   0.00000   0.00000   0.00000   0.00000
           D22          0.00000   0.00000   0.00000   0.00000   0.00000
           D23          0.00000   0.00000   0.00000   0.00000   0.00000
           D24          0.00000   0.00000   0.00000   0.00000   0.00000
           D25          0.00000   0.00000   0.00000   0.00000   0.00000
           D26          0.00000   0.00000   0.00000   0.00000   0.00000
                          R11       R12       R13       A1        A2
           R11          0.35263
           R12          0.00000   0.35705
           R13          0.00000   0.00000   0.13682
           A1           0.00000   0.00000   0.00000   0.16000
           A2           0.00000   0.00000   0.00000   0.00000   0.16000
           A3           0.00000   0.00000   0.00000   0.00000   0.00000
           A4           0.00000   0.00000   0.00000   0.00000   0.00000
           A5           0.00000   0.00000   0.00000   0.00000   0.00000
           A6           0.00000   0.00000   0.00000   0.00000   0.00000
           A7           0.00000   0.00000   0.00000   0.00000   0.00000
           A8           0.00000   0.00000   0.00000   0.00000   0.00000
           A9           0.00000   0.00000   0.00000   0.00000   0.00000
           A10          0.00000   0.00000   0.00000   0.00000   0.00000
           A11          0.00000   0.00000   0.00000   0.00000   0.00000
           A12          0.00000   0.00000   0.00000   0.00000   0.00000
           A13          0.00000   0.00000   0.00000   0.00000   0.00000
           A14          0.00000   0.00000   0.00000   0.00000   0.00000
           A15          0.00000   0.00000   0.00000   0.00000   0.00000
           A16          0.00000   0.00000   0.00000   0.00000   0.00000
           A17          0.00000   0.00000   0.00000   0.00000   0.00000
           A18          0.00000   0.00000   0.00000   0.00000   0.00000
           A19          0.00000   0.00000   0.00000   0.00000   0.00000
           A20          0.00000   0.00000   0.00000   0.00000   0.00000
           A21          0.00000   0.00000   0.00000   0.00000   0.00000
           A22          0.00000   0.00000   0.00000   0.00000   0.00000
           D1           0.00000   0.00000   0.00000   0.00000   0.00000
           D2           0.00000   0.00000   0.00000   0.00000   0.00000
           D3           0.00000   0.00000   0.00000   0.00000   0.00000
           D4           0.00000   0.00000   0.00000   0.00000   0.00000
           D5           0.00000   0.00000   0.00000   0.00000   0.00000
           D6           0.00000   0.00000   0.00000   0.00000   0.00000
           D7           0.00000   0.00000   0.00000   0.00000   0.00000
           D8           0.00000   0.00000   0.00000   0.00000   0.00000
           D9           0.00000   0.00000   0.00000   0.00000   0.00000
           D10          0.00000   0.00000   0.00000   0.00000   0.00000
           D11          0.00000   0.00000   0.00000   0.00000   0.00000
           D12          0.00000   0.00000   0.00000   0.00000   0.00000
           D13          0.00000   0.00000   0.00000   0.00000   0.00000
           D14          0.00000   0.00000   0.00000   0.00000   0.00000
           D15          0.00000   0.00000   0.00000   0.00000   0.00000
           D16          0.00000   0.00000   0.00000   0.00000   0.00000
           D17          0.00000   0.00000   0.00000   0.00000   0.00000
           D18          0.00000   0.00000   0.00000   0.00000   0.00000
           D19          0.00000   0.00000   0.00000   0.00000   0.00000
           D20          0.00000   0.00000   0.00000   0.00000   0.00000
           D21          0.00000   0.00000   0.00000   0.00000   0.00000
           D22          0.00000   0.00000   0.00000   0.00000   0.00000
           D23          0.00000   0.00000   0.00000   0.00000   0.00000
           D24          0.00000   0.00000   0.00000   0.00000   0.00000
           D25          0.00000   0.00000   0.00000   0.00000   0.00000
           D26          0.00000   0.00000   0.00000   0.00000   0.00000
                          A3        A4        A5        A6        A7
           A3           0.16000
           A4           0.00000   0.16000
           A5           0.00000   0.00000   0.16000
           A6           0.00000   0.00000   0.00000   0.16000
           A7           0.00000   0.00000   0.00000   0.00000   0.25000
           A8           0.00000   0.00000   0.00000   0.00000   0.00000
           A9           0.00000   0.00000   0.00000   0.00000   0.00000
           A10          0.00000   0.00000   0.00000   0.00000   0.00000
           A11          0.00000   0.00000   0.00000   0.00000   0.00000
           A12          0.00000   0.00000   0.00000   0.00000   0.00000
           A13          0.00000   0.00000   0.00000   0.00000   0.00000
           A14          0.00000   0.00000   0.00000   0.00000   0.00000
           A15          0.00000   0.00000   0.00000   0.00000   0.00000
           A16          0.00000   0.00000   0.00000   0.00000   0.00000
           A17          0.00000   0.00000   0.00000   0.00000   0.00000
           A18          0.00000   0.00000   0.00000   0.00000   0.00000
           A19          0.00000   0.00000   0.00000   0.00000   0.00000
           A20          0.00000   0.00000   0.00000   0.00000   0.00000
           A21          0.00000   0.00000   0.00000   0.00000   0.00000
           A22          0.00000   0.00000   0.00000   0.00000   0.00000
           D1           0.00000   0.00000   0.00000   0.00000   0.00000
           D2           0.00000   0.00000   0.00000   0.00000   0.00000
           D3           0.00000   0.00000   0.00000   0.00000   0.00000
           D4           0.00000   0.00000   0.00000   0.00000   0.00000
           D5           0.00000   0.00000   0.00000   0.00000   0.00000
           D6           0.00000   0.00000   0.00000   0.00000   0.00000
           D7           0.00000   0.00000   0.00000   0.00000   0.00000
           D8           0.00000   0.00000   0.00000   0.00000   0.00000
           D9           0.00000   0.00000   0.00000   0.00000   0.00000
           D10          0.00000   0.00000   0.00000   0.00000   0.00000
           D11          0.00000   0.00000   0.00000   0.00000   0.00000
           D12          0.00000   0.00000   0.00000   0.00000   0.00000
           D13          0.00000   0.00000   0.00000   0.00000   0.00000
           D14          0.00000   0.00000   0.00000   0.00000   0.00000
           D15          0.00000   0.00000   0.00000   0.00000   0.00000
           D16          0.00000   0.00000   0.00000   0.00000   0.00000
           D17          0.00000   0.00000   0.00000   0.00000   0.00000
           D18          0.00000   0.00000   0.00000   0.00000   0.00000
           D19          0.00000   0.00000   0.00000   0.00000   0.00000
           D20          0.00000   0.00000   0.00000   0.00000   0.00000
           D21          0.00000   0.00000   0.00000   0.00000   0.00000
           D22          0.00000   0.00000   0.00000   0.00000   0.00000
           D23          0.00000   0.00000   0.00000   0.00000   0.00000
           D24          0.00000   0.00000   0.00000   0.00000   0.00000
           D25          0.00000   0.00000   0.00000   0.00000   0.00000
           D26          0.00000   0.00000   0.00000   0.00000   0.00000
                          A8        A9        A10       A11       A12
           A8           0.16000
           A9           0.00000   0.16000
           A10          0.00000   0.00000   0.25000
           A11          0.00000   0.00000   0.00000   0.16000
           A12          0.00000   0.00000   0.00000   0.00000   0.16000
           A13          0.00000   0.00000   0.00000   0.00000   0.00000
           A14          0.00000   0.00000   0.00000   0.00000   0.00000
           A15          0.00000   0.00000   0.00000   0.00000   0.00000
           A16          0.00000   0.00000   0.00000   0.00000   0.00000
           A17          0.00000   0.00000   0.00000   0.00000   0.00000
           A18          0.00000   0.00000   0.00000   0.00000   0.00000
           A19          0.00000   0.00000   0.00000   0.00000   0.00000
           A20          0.00000   0.00000   0.00000   0.00000   0.00000
           A21          0.00000   0.00000   0.00000   0.00000   0.00000
           A22          0.00000   0.00000   0.00000   0.00000   0.00000
           D1           0.00000   0.00000   0.00000   0.00000   0.00000
           D2           0.00000   0.00000   0.00000   0.00000   0.00000
           D3           0.00000   0.00000   0.00000   0.00000   0.00000
           D4           0.00000   0.00000   0.00000   0.00000   0.00000
           D5           0.00000   0.00000   0.00000   0.00000   0.00000
           D6           0.00000   0.00000   0.00000   0.00000   0.00000
           D7           0.00000   0.00000   0.00000   0.00000   0.00000
           D8           0.00000   0.00000   0.00000   0.00000   0.00000
           D9           0.00000   0.00000   0.00000   0.00000   0.00000
           D10          0.00000   0.00000   0.00000   0.00000   0.00000
           D11          0.00000   0.00000   0.00000   0.00000   0.00000
           D12          0.00000   0.00000   0.00000   0.00000   0.00000
           D13          0.00000   0.00000   0.00000   0.00000   0.00000
           D14          0.00000   0.00000   0.00000   0.00000   0.00000
           D15          0.00000   0.00000   0.00000   0.00000   0.00000
           D16          0.00000   0.00000   0.00000   0.00000   0.00000
           D17          0.00000   0.00000   0.00000   0.00000   0.00000
           D18          0.00000   0.00000   0.00000   0.00000   0.00000
           D19          0.00000   0.00000   0.00000   0.00000   0.00000
           D20          0.00000   0.00000   0.00000   0.00000   0.00000
           D21          0.00000   0.00000   0.00000   0.00000   0.00000
           D22          0.00000   0.00000   0.00000   0.00000   0.00000
           D23          0.00000   0.00000   0.00000   0.00000   0.00000
           D24          0.00000   0.00000   0.00000   0.00000   0.00000
           D25          0.00000   0.00000   0.00000   0.00000   0.00000
           D26          0.00000   0.00000   0.00000   0.00000   0.00000
                          A13       A14       A15       A16       A17
           A13          0.25000
           A14          0.00000   0.16000
           A15          0.00000   0.00000   0.16000
           A16          0.00000   0.00000   0.00000   0.16000
           A17          0.00000   0.00000   0.00000   0.00000   0.16000
           A18          0.00000   0.00000   0.00000   0.00000   0.00000
           A19          0.00000   0.00000   0.00000   0.00000   0.00000
           A20          0.00000   0.00000   0.00000   0.00000   0.00000
           A21          0.00000   0.00000   0.00000   0.00000   0.00000
           A22          0.00000   0.00000   0.00000   0.00000   0.00000
           D1           0.00000   0.00000   0.00000   0.00000   0.00000
           D2           0.00000   0.00000   0.00000   0.00000   0.00000
           D3           0.00000   0.00000   0.00000   0.00000   0.00000
           D4           0.00000   0.00000   0.00000   0.00000   0.00000
           D5           0.00000   0.00000   0.00000   0.00000   0.00000
           D6           0.00000   0.00000   0.00000   0.00000   0.00000
           D7           0.00000   0.00000   0.00000   0.00000   0.00000
           D8           0.00000   0.00000   0.00000   0.00000   0.00000
           D9           0.00000   0.00000   0.00000   0.00000   0.00000
           D10          0.00000   0.00000   0.00000   0.00000   0.00000
           D11          0.00000   0.00000   0.00000   0.00000   0.00000
           D12          0.00000   0.00000   0.00000   0.00000   0.00000
           D13          0.00000   0.00000   0.00000   0.00000   0.00000
           D14          0.00000   0.00000   0.00000   0.00000   0.00000
           D15          0.00000   0.00000   0.00000   0.00000   0.00000
           D16          0.00000   0.00000   0.00000   0.00000   0.00000
           D17          0.00000   0.00000   0.00000   0.00000   0.00000
           D18          0.00000   0.00000   0.00000   0.00000   0.00000
           D19          0.00000   0.00000   0.00000   0.00000   0.00000
           D20          0.00000   0.00000   0.00000   0.00000   0.00000
           D21          0.00000   0.00000   0.00000   0.00000   0.00000
           D22          0.00000   0.00000   0.00000   0.00000   0.00000
           D23          0.00000   0.00000   0.00000   0.00000   0.00000
           D24          0.00000   0.00000   0.00000   0.00000   0.00000
           D25          0.00000   0.00000   0.00000   0.00000   0.00000
           D26          0.00000   0.00000   0.00000   0.00000   0.00000
                          A18       A19       A20       A21       A22
           A18          0.16000
           A19          0.00000   0.16000
           A20          0.00000   0.00000   0.16000
           A21          0.00000   0.00000   0.00000   0.16000
           A22          0.00000   0.00000   0.00000   0.00000   0.25000
           D1           0.00000   0.00000   0.00000   0.00000   0.00000
           D2           0.00000   0.00000   0.00000   0.00000   0.00000
           D3           0.00000   0.00000   0.00000   0.00000   0.00000
           D4           0.00000   0.00000   0.00000   0.00000   0.00000
           D5           0.00000   0.00000   0.00000   0.00000   0.00000
           D6           0.00000   0.00000   0.00000   0.00000   0.00000
           D7           0.00000   0.00000   0.00000   0.00000   0.00000
           D8           0.00000   0.00000   0.00000   0.00000   0.00000
           D9           0.00000   0.00000   0.00000   0.00000   0.00000
           D10          0.00000   0.00000   0.00000   0.00000   0.00000
           D11          0.00000   0.00000   0.00000   0.00000   0.00000
           D12          0.00000   0.00000   0.00000   0.00000   0.00000
           D13          0.00000   0.00000   0.00000   0.00000   0.00000
           D14          0.00000   0.00000   0.00000   0.00000   0.00000
           D15          0.00000   0.00000   0.00000   0.00000   0.00000
           D16          0.00000   0.00000   0.00000   0.00000   0.00000
           D17          0.00000   0.00000   0.00000   0.00000   0.00000
           D18          0.00000   0.00000   0.00000   0.00000   0.00000
           D19          0.00000   0.00000   0.00000   0.00000   0.00000
           D20          0.00000   0.00000   0.00000   0.00000   0.00000
           D21          0.00000   0.00000   0.00000   0.00000   0.00000
           D22          0.00000   0.00000   0.00000   0.00000   0.00000
           D23          0.00000   0.00000   0.00000   0.00000   0.00000
           D24          0.00000   0.00000   0.00000   0.00000   0.00000
           D25          0.00000   0.00000   0.00000   0.00000   0.00000
           D26          0.00000   0.00000   0.00000   0.00000   0.00000
                          D1        D2        D3        D4        D5
           D1           0.01906
           D2           0.00000   0.01906
           D3           0.00000   0.00000   0.01906
           D4           0.00000   0.00000   0.00000   0.01906
           D5           0.00000   0.00000   0.00000   0.00000   0.01906
           D6           0.00000   0.00000   0.00000   0.00000   0.00000
           D7           0.00000   0.00000   0.00000   0.00000   0.00000
           D8           0.00000   0.00000   0.00000   0.00000   0.00000
           D9           0.00000   0.00000   0.00000   0.00000   0.00000
           D10          0.00000   0.00000   0.00000   0.00000   0.00000
           D11          0.00000   0.00000   0.00000   0.00000   0.00000
           D12          0.00000   0.00000   0.00000   0.00000   0.00000
           D13          0.00000   0.00000   0.00000   0.00000   0.00000
           D14          0.00000   0.00000   0.00000   0.00000   0.00000
           D15          0.00000   0.00000   0.00000   0.00000   0.00000
           D16          0.00000   0.00000   0.00000   0.00000   0.00000
           D17          0.00000   0.00000   0.00000   0.00000   0.00000
           D18          0.00000   0.00000   0.00000   0.00000   0.00000
           D19          0.00000   0.00000   0.00000   0.00000   0.00000
           D20          0.00000   0.00000   0.00000   0.00000   0.00000
           D21          0.00000   0.00000   0.00000   0.00000   0.00000
           D22          0.00000   0.00000   0.00000   0.00000   0.00000
           D23          0.00000   0.00000   0.00000   0.00000   0.00000
           D24          0.00000   0.00000   0.00000   0.00000   0.00000
           D25          0.00000   0.00000   0.00000   0.00000   0.00000
           D26          0.00000   0.00000   0.00000   0.00000   0.00000
                          D6        D7        D8        D9        D10
           D6           0.01906
           D7           0.00000   0.00230
           D8           0.00000   0.00000   0.00230
           D9           0.00000   0.00000   0.00000   0.00230
           D10          0.00000   0.00000   0.00000   0.00000   0.02178
           D11          0.00000   0.00000   0.00000   0.00000   0.00000
           D12          0.00000   0.00000   0.00000   0.00000   0.00000
           D13          0.00000   0.00000   0.00000   0.00000   0.00000
           D14          0.00000   0.00000   0.00000   0.00000   0.00000
           D15          0.00000   0.00000   0.00000   0.00000   0.00000
           D16          0.00000   0.00000   0.00000   0.00000   0.00000
           D17          0.00000   0.00000   0.00000   0.00000   0.00000
           D18          0.00000   0.00000   0.00000   0.00000   0.00000
           D19          0.00000   0.00000   0.00000   0.00000   0.00000
           D20          0.00000   0.00000   0.00000   0.00000   0.00000
           D21          0.00000   0.00000   0.00000   0.00000   0.00000
           D22          0.00000   0.00000   0.00000   0.00000   0.00000
           D23          0.00000   0.00000   0.00000   0.00000   0.00000
           D24          0.00000   0.00000   0.00000   0.00000   0.00000
           D25          0.00000   0.00000   0.00000   0.00000   0.00000
           D26          0.00000   0.00000   0.00000   0.00000   0.00000
                          D11       D12       D13       D14       D15
           D11          0.02178
           D12          0.00000   0.02178
           D13          0.00000   0.00000   0.02178
           D14          0.00000   0.00000   0.00000   0.02178
           D15          0.00000   0.00000   0.00000   0.00000   0.02178
           D16          0.00000   0.00000   0.00000   0.00000   0.00000
           D17          0.00000   0.00000   0.00000   0.00000   0.00000
           D18          0.00000   0.00000   0.00000   0.00000   0.00000
           D19          0.00000   0.00000   0.00000   0.00000   0.00000
           D20          0.00000   0.00000   0.00000   0.00000   0.00000
           D21          0.00000   0.00000   0.00000   0.00000   0.00000
           D22          0.00000   0.00000   0.00000   0.00000   0.00000
           D23          0.00000   0.00000   0.00000   0.00000   0.00000
           D24          0.00000   0.00000   0.00000   0.00000   0.00000
           D25          0.00000   0.00000   0.00000   0.00000   0.00000
           D26          0.00000   0.00000   0.00000   0.00000   0.00000
                          D16       D17       D18       D19       D20
           D16          0.02178
           D17          0.00000   0.02178
           D18          0.00000   0.00000   0.01906
           D19          0.00000   0.00000   0.00000   0.01906
           D20          0.00000   0.00000   0.00000   0.00000   0.01906
           D21          0.00000   0.00000   0.00000   0.00000   0.00000
           D22          0.00000   0.00000   0.00000   0.00000   0.00000
           D23          0.00000   0.00000   0.00000   0.00000   0.00000
           D24          0.00000   0.00000   0.00000   0.00000   0.00000
           D25          0.00000   0.00000   0.00000   0.00000   0.00000
           D26          0.00000   0.00000   0.00000   0.00000   0.00000
                          D21       D22       D23       D24       D25
           D21          0.01906
           D22          0.00000   0.01906
           D23          0.00000   0.00000   0.01906
           D24          0.00000   0.00000   0.00000   0.00230
           D25          0.00000   0.00000   0.00000   0.00000   0.00230
           D26          0.00000   0.00000   0.00000   0.00000   0.00000
                          D26
           D26          0.00230
 ITU=  0
 Eigenvectors of the second derivative matrix:
                           1         2         3         4         5
     Eigenvalues --     0.00928   0.01888   0.02060   0.02145   0.02263
   1         R1         0.00081   0.00921   0.00002  -0.00740   0.00029
   2         R2         0.00000  -0.00000  -0.00000   0.00000   0.00000
   3         R3        -0.03729   0.00576  -0.00098  -0.00437  -0.01431
   4         R4         0.00000  -0.00000   0.00000  -0.00000  -0.00000
   5         R5         0.00982   0.00410   0.00024  -0.00327   0.00347
   6         R6        -0.00000  -0.00000   0.00000   0.00000  -0.00000
   7         R7         0.00982  -0.00410   0.00024   0.00327   0.00347
   8         R8         0.00000   0.00000  -0.00000   0.00000   0.00000
   9         R9         0.00081  -0.00921   0.00002   0.00740   0.00029
  10         R10        0.00000  -0.00000   0.00000  -0.00000   0.00000
  11         R11       -0.00000  -0.00000   0.00000  -0.00000  -0.00000
  12         R12        0.00000   0.00000  -0.00000   0.00000  -0.00000
  13         R13       -0.03729  -0.00576  -0.00097   0.00438  -0.01431
  14         A1         0.03575  -0.02483   0.00058   0.01797  -0.00887
  15         A2        -0.10205   0.03746  -0.00429  -0.03497   0.02422
  16         A3        -0.00457   0.01424   0.00016  -0.00736   0.00046
  17         A4         0.01619  -0.01142  -0.00363   0.00747  -0.00601
  18         A5         0.01407  -0.00357   0.00139   0.00496  -0.00417
  19         A6         0.02020  -0.00067   0.00541   0.00254   0.00037
  20         A7        -0.02257   0.02677   0.01048  -0.00179   0.01181
  21         A8         0.00989  -0.02140   0.02025   0.04804  -0.04537
  22         A9         0.01275  -0.02090   0.02251   0.05017  -0.04714
  23         A10        0.00808   0.00000   0.00879  -0.00001   0.03962
  24         A11        0.00866  -0.00109   0.01438  -0.00009  -0.01697
  25         A12        0.00866   0.00110   0.01438   0.00009  -0.01697
  26         A13       -0.02257  -0.02677   0.01049   0.00178   0.01182
  27         A14        0.01275   0.02091   0.02249  -0.05016  -0.04716
  28         A15        0.00989   0.02140   0.02023  -0.04803  -0.04538
  29         A16        0.03575   0.02483   0.00057  -0.01796  -0.00888
  30         A17       -0.00457  -0.01424   0.00016   0.00736   0.00046
  31         A18       -0.10204  -0.03746  -0.00427   0.03496   0.02423
  32         A19        0.01407   0.00357   0.00138  -0.00496  -0.00417
  33         A20        0.01619   0.01142  -0.00364  -0.00747  -0.00601
  34         A21        0.02020   0.00067   0.00541  -0.00255   0.00037
  35         A22       -0.05386   0.00000   0.00419  -0.00000   0.00317
  36         D1        -0.02302   0.26962   0.07554  -0.15967   0.19761
  37         D2        -0.02049   0.20016   0.30491   0.25741  -0.15234
  38         D3        -0.05820   0.26896   0.06812  -0.16604   0.20302
  39         D4        -0.05568   0.19950   0.29749   0.25105  -0.14693
  40         D5        -0.09293   0.29148   0.07198  -0.18391   0.21713
  41         D6        -0.09041   0.22202   0.30136   0.23318  -0.13282
  42         D7         0.39099  -0.13109   0.01344   0.07590  -0.02337
  43         D8         0.36416  -0.13963   0.00857   0.07524  -0.01878
  44         D9         0.39660  -0.14676   0.01270   0.08427  -0.02478
  45         D10       -0.08959  -0.17026  -0.13965   0.10707  -0.39336
  46         D11       -0.00683  -0.17000  -0.01699   0.10706  -0.37878
  47         D12       -0.09180  -0.10196  -0.36392  -0.30117  -0.05076
  48         D13       -0.00904  -0.10170  -0.24126  -0.30118  -0.03618
  49         D14        0.08960  -0.17018   0.13973   0.10688   0.39340
  50         D15        0.09180  -0.10184   0.36386  -0.30129   0.05065
  51         D16        0.00684  -0.17000   0.01707   0.10692   0.37883
  52         D17        0.00904  -0.10166   0.24120  -0.30125   0.03608
  53         D18        0.02301   0.26958  -0.07566  -0.15958  -0.19768
  54         D19        0.09292   0.29144  -0.07212  -0.18381  -0.21721
  55         D20        0.05820   0.26892  -0.06825  -0.16594  -0.20309
  56         D21        0.02049   0.20007  -0.30490   0.25745   0.15242
  57         D22        0.09040   0.22193  -0.30135   0.23322   0.13289
  58         D23        0.05567   0.19942  -0.29748   0.25108   0.14701
  59         D24       -0.39099  -0.13110  -0.01338   0.07589   0.02340
  60         D25       -0.36416  -0.13964  -0.00851   0.07523   0.01882
  61         D26       -0.39660  -0.14678  -0.01263   0.08426   0.02481
                           6         7         8         9        10
     Eigenvalues --     0.02347   0.05397   0.05595   0.06969   0.07365
   1         R1        -0.00002   0.01658  -0.00011   0.00085   0.01372
   2         R2        -0.00000  -0.00000  -0.00000   0.00000  -0.00000
   3         R3         0.00121   0.01165   0.00695  -0.06379  -0.01217
   4         R4        -0.00000   0.00000   0.00000   0.00000  -0.00000
   5         R5        -0.00029   0.00721  -0.00129   0.01018   0.00465
   6         R6        -0.00000   0.00000   0.00000   0.00000   0.00000
   7         R7        -0.00029  -0.00721  -0.00129   0.01018  -0.00465
   8         R8        -0.00000  -0.00000  -0.00000  -0.00000   0.00000
   9         R9        -0.00002  -0.01658  -0.00011   0.00085  -0.01372
  10         R10        0.00000   0.00000  -0.00000  -0.00000  -0.00000
  11         R11        0.00000   0.00000   0.00000   0.00000   0.00000
  12         R12        0.00000  -0.00000  -0.00000   0.00000   0.00000
  13         R13        0.00121  -0.01165   0.00695  -0.06380   0.01217
  14         A1        -0.00307  -0.11182  -0.06525  -0.06643   0.14387
  15         A2         0.00547  -0.10607  -0.10989  -0.00108   0.00370
  16         A3         0.00040   0.20065   0.11958  -0.11189   0.04058
  17         A4        -0.00612  -0.19160  -0.24857   0.03676   0.03681
  18         A5        -0.00023   0.16120   0.16411  -0.09862   0.03807
  19         A6         0.00558  -0.00174   0.08873   0.38136  -0.40705
  20         A7        -0.00382   0.06935   0.00152  -0.03868   0.04013
  21         A8        -0.01048  -0.03148  -0.01718   0.00204  -0.00814
  22         A9        -0.00951  -0.02279   0.00165   0.02687  -0.03853
  23         A10        0.04451  -0.00000   0.01092   0.00660   0.00000
  24         A11        0.07074  -0.00994  -0.02796  -0.02177   0.02376
  25         A12        0.07074   0.00994  -0.02796  -0.02177  -0.02376
  26         A13       -0.00381  -0.06936   0.00151  -0.03868  -0.04013
  27         A14       -0.00951   0.02279   0.00165   0.02687   0.03853
  28         A15       -0.01048   0.03148  -0.01717   0.00203   0.00814
  29         A16       -0.00308   0.11183  -0.06523  -0.06643  -0.14387
  30         A17        0.00041  -0.20067   0.11954  -0.11189  -0.04059
  31         A18        0.00548   0.10609  -0.10987  -0.00108  -0.00370
  32         A19       -0.00023  -0.16123   0.16408  -0.09860  -0.03806
  33         A20       -0.00612   0.19165  -0.24854   0.03674  -0.03681
  34         A21        0.00558   0.00174   0.08872   0.38135   0.40706
  35         A22        0.01004  -0.00001   0.09801   0.01690   0.00000
  36         D1         0.12408   0.23192   0.38466  -0.05862   0.04583
  37         D2         0.02162   0.29160   0.32537  -0.09555   0.01172
  38         D3         0.11872  -0.15139  -0.04628  -0.05138   0.17715
  39         D4         0.01626  -0.09171  -0.10556  -0.08830   0.14305
  40         D5         0.12831  -0.18141   0.01330   0.37094  -0.28461
  41         D6         0.02584  -0.12173  -0.04598   0.33402  -0.31871
  42         D7         0.00254   0.04101   0.16725   0.05778  -0.09622
  43         D8        -0.00062  -0.30288  -0.15314  -0.00734   0.11473
  44         D9         0.00116  -0.15749   0.03832   0.11833  -0.08130
[...]
 ! A2    A(2,1,12)              98.4496         -DE/DX =    0.0                 !
 ! A3    A(2,1,13)             118.7156         -DE/DX =    0.0                 !
 ! A4    A(11,1,12)            119.7146         -DE/DX =    0.0                 !
 ! A5    A(11,1,13)            111.2684         -DE/DX =    0.0                 !
 ! A6    A(12,1,13)             88.9282         -DE/DX =    0.0                 !
 ! A7    A(1,2,3)              122.8024         -DE/DX =    0.0                 !
 ! A8    A(1,2,10)             118.8155         -DE/DX =    0.0                 !
 ! A9    A(3,2,10)             116.3635         -DE/DX =    0.0                 !
 ! A10   A(2,3,4)              120.1598         -DE/DX =    0.0                 !
 ! A11   A(2,3,9)              118.5321         -DE/DX =    0.0                 !
 ! A12   A(4,3,9)              118.5328         -DE/DX =    0.0                 !
 ! A13   A(3,4,5)              122.7912         -DE/DX =    0.0                 !
 ! A14   A(3,4,8)              116.3704         -DE/DX =    0.0                 !
 ! A15   A(5,4,8)              118.8195         -DE/DX =    0.0                 !
 ! A16   A(4,5,6)              116.4397         -DE/DX =    0.0                 !
 ! A17   A(4,5,7)              118.6942         -DE/DX =    0.0                 !
 ! A18   A(4,5,12)              98.4714         -DE/DX =    0.0                 !
 ! A19   A(6,5,7)              111.2625         -DE/DX =    0.0                 !
 ! A20   A(6,5,12)             119.6942         -DE/DX =    0.0                 !
 ! A21   A(7,5,12)              88.9696         -DE/DX =    0.0                 !
 ! A22   A(1,12,5)             134.0675         -DE/DX =    0.0                 !
 ! D1    D(11,1,2,3)          -156.5738         -DE/DX =    0.0                 !
 ! D2    D(11,1,2,10)            6.6657         -DE/DX =    0.0                 !
 ! D3    D(12,1,2,3)           -27.2605         -DE/DX =    0.0                 !
 ! D4    D(12,1,2,10)          135.979          -DE/DX =    0.0                 !
 ! D5    D(13,1,2,3)            66.169          -DE/DX =    0.0                 !
 ! D6    D(13,1,2,10)         -130.5915         -DE/DX =    0.0                 !
 ! D7    D(2,1,12,5)            58.5654         -DE/DX =    0.0                 !
 ! D8    D(11,1,12,5)         -174.3386         -DE/DX =    0.0                 !
 ! D9    D(13,1,12,5)          -60.3188         -DE/DX =    0.0                 !
 ! D10   D(1,2,3,4)             15.7049         -DE/DX =    0.0                 !
 ! D11   D(1,2,3,9)            176.568          -DE/DX =    0.0                 !
 ! D12   D(10,2,3,4)          -147.9159         -DE/DX =    0.0                 !
 ! D13   D(10,2,3,9)            12.9472         -DE/DX =    0.0                 !
 ! D14   D(2,3,4,5)            -15.6907         -DE/DX =    0.0                 !
 ! D15   D(2,3,4,8)            147.93           -DE/DX =    0.0                 !
 ! D16   D(9,3,4,5)           -176.5536         -DE/DX =    0.0                 !
 ! D17   D(9,3,4,8)            -12.933          -DE/DX =    0.0                 !
 ! D18   D(3,4,5,6)            156.5666         -DE/DX =    0.0                 !
 ! D19   D(3,4,5,7)            -66.2205         -DE/DX =    0.0                 !
 ! D20   D(3,4,5,12)            27.265          -DE/DX =    0.0                 !
 ! D21   D(8,4,5,6)             -6.6731         -DE/DX =    0.0                 !
 ! D22   D(8,4,5,7)            130.5398         -DE/DX =    0.0                 !
 ! D23   D(8,4,5,12)          -135.9747         -DE/DX =    0.0                 !
 ! D24   D(4,5,12,1)           -58.5612         -DE/DX =    0.0                 !
 ! D25   D(6,5,12,1)           174.3428         -DE/DX =    0.0                 !
 ! D26   D(7,5,12,1)            60.3092         -DE/DX =    0.0                 !
 --------------------------------------------------------------------------------
 GradGradGradGradGradGradGradGradGradGradGradGradGradGradGradGradGradGrad

 Leave Link  103 at Wed Oct  7 13:27:09 2020, MaxMem=  2684354560 cpu:               6.6 elap:               0.9
 (Enter /udrive/faculty/rpeverati/g16/g16/l9999.exe)

 ----------------------------------------------------------------------

 Electric dipole moment (input orientation):
 (Debye = 10**-18 statcoulomb cm , SI units = C m)
                  (au)            (Debye)         (10**-30 SI)
   Tot        0.564053D-01      0.143368D+00      0.478224D+00
   x          0.911644D-04      0.231717D-03      0.772924D-03
   y          0.477641D-03      0.121404D-02      0.404961D-02
   z         -0.564032D-01     -0.143363D+00     -0.478206D+00

 Dipole polarizability, Alpha (input orientation).
 (esu units = cm**3 , SI units = C**2 m**2 J**-1)
 Alpha(0;0):
               (au)            (10**-24 esu)      (10**-40 SI)
   iso        0.568562D+02      0.842522D+01      0.937433D+01
   aniso      0.409595D+02      0.606958D+01      0.675331D+01
   xx         0.756845D+02      0.112153D+02      0.124787D+02
   yx        -0.387438D-02     -0.574123D-03     -0.638798D-03
   yy         0.645565D+02      0.956628D+01      0.106439D+02
   zx         0.155154D-01      0.229915D-02      0.255815D-02
   zy        -0.668649D+00     -0.990836D-01     -0.110245D+00
   zz         0.303277D+02      0.449410D+01      0.500036D+01

 ----------------------------------------------------------------------

 Dipole orientation:
     6         -2.48008664          1.72289506          0.03086633
     6         -2.30303665         -0.96744368          0.02880279
     6         -0.00009985         -2.25745175         -0.27206788
     6          2.30214409         -0.96765981          0.03419201
     6          2.47994044          1.72282886          0.03854591
     1          4.13004464          2.54072625          1.00771510
     1          2.04649975          2.75461762         -1.71210958
     1          3.88788431         -2.07721557          0.78986286
     1         -0.00024879         -4.32619632         -0.14564643
     1         -3.89008187         -2.07613531          0.78299339
     1         -4.13289400          2.54225094          0.99413869
     1         -0.00112887          2.28274583          0.92499664
     1         -2.04026634          2.75325531         -1.71903220

 Electric dipole moment (dipole orientation):
 (Debye = 10**-18 statcoulomb cm , SI units = C m)
                  (au)            (Debye)         (10**-30 SI)
   Tot        0.564053D-01      0.143368D+00      0.478224D+00
   x          0.000000D+00      0.000000D+00      0.000000D+00
   y          0.000000D+00      0.000000D+00      0.000000D+00
   z          0.564053D-01      0.143368D+00      0.478224D+00

 Dipole polarizability, Alpha (dipole orientation).
 (esu units = cm**3 , SI units = C**2 m**2 J**-1)
 Alpha(0;0):
               (au)            (10**-24 esu)      (10**-40 SI)
   iso        0.568562D+02      0.842522D+01      0.937433D+01
   aniso      0.409595D+02      0.606958D+01      0.675331D+01
   xx         0.756845D+02      0.112153D+02      0.124787D+02
   yx         0.536809D-02      0.795468D-03      0.885078D-03
   yy         0.645427D+02      0.956424D+01      0.106416D+02
   zx         0.577440D-01      0.855678D-02      0.952070D-02
   zy        -0.958385D+00     -0.142018D+00     -0.158016D+00
   zz         0.303416D+02      0.449615D+01      0.500265D+01

 ----------------------------------------------------------------------

 Test job not archived.
 1\1\GINC-NODE54\Freq\RBP86\6-31G(d)\C5H8\RPEVERATI\07-Oct-2020\0\\#P F
 req BP86/6-31G* 5D 7F Integral=UltraFineGrid SCF=(NoSymm,XQC,MaxCyc=12
 0) IOp(1/33=1) Geom=Check Guess=Read\\TS search on BH76.\\0,1\C,-1.312
 3709789,-0.9115368174,-0.0261747515\C,-1.21869179,0.5120682014,-0.0128
 757501\C,-0.0002937071,1.1933300309,0.1540825225\C,1.2182663356,0.5121
 900397,-0.0117878209\C,1.3123654569,-0.9114853374,-0.0259959668\H,2.18
 63937251,-1.3399455204,-0.5410929342\H,1.0815052621,-1.4653081262,0.89
 53823496\H,2.058045119,1.1027010961,-0.4053284973\H,-0.0002718882,2.28
 8589768,0.0964557526\H,-2.0578778267,1.1021268495,-0.4083506146\H,-2.1
 861709947,-1.3407832416,-0.5409828031\H,0.0002020211,-1.2037887641,-0.
 4996990996\H,-1.0811213177,-1.4646034725,0.8955562966\\Version=ES64L-G
 16RevA.03\State=1-A\HF=-195.2416014\RMSD=1.063e-09\RMSF=2.311e-05\Zero
 Point=0.1073877\Thermal=0.1121406\Dipole=0.0000912,0.0004776,-0.056403
 2\DipoleDeriv=0.1127763,0.0743562,0.0776823,-0.0560339,-0.160465,0.014
 0998,0.0674289,-0.1025831,-0.0001224,0.0038281,0.0506551,0.096973,0.16
 0753,0.0881576,-0.0647861,0.1476879,-0.1012091,-0.1216189,-0.1155405,-
 0.0000416,0.0000015,0.0000886,0.1675699,-0.0031071,0.0000211,0.0376646
 ,-0.16064,0.0044063,-0.0503167,-0.0966443,-0.1606123,0.0884466,-0.0645
 933,-0.1470249,-0.1006787,-0.1222104,0.1125496,-0.0742577,-0.0776765,0
 .0562432,-0.1605067,0.014082,-0.0676416,-0.1027213,0.0000016,-0.105215
 6,0.1510748,0.1017467,0.0649982,0.0419746,-0.0125557,0.0540006,0.01541
 25,0.0564272,-0.0117505,0.021775,0.0694411,0.0335089,0.0168347,0.05264
 26,0.0126149,0.1097042,-0.0331999,-0.0453338,-0.0720027,0.0568493,-0.0
 800775,-0.0049797,0.0291566,0.0804269,0.0458052,0.1032346,0.0442106,-0
 .0000348,-0.0000411,-0.0000032,-0.1405197,-0.0119555,-0.0000802,0.0566
 863,0.1204681,-0.0451553,0.0718323,-0.0570941,0.0798837,-0.004901,0.02
 93796,-0.0808892,0.0461132,0.1029355,-0.1049735,-0.1512098,-0.1016798,
 -0.0650486,0.0419465,-0.0125696,-0.0539106,0.0154792,0.056471,0.161976
 8,-0.0000668,-0.0000562,-0.0002278,0.0095643,-0.0223543,0.0000225,-0.0
 29272,0.0315053,-0.0117786,-0.0217634,-0.0695018,-0.0334724,0.0168779,
 0.0525609,-0.0126563,0.1095989,-0.0332516\Polar=75.684523,-0.0038744,6
 4.5564526,0.0155154,-0.668649,30.3277105\Quadrupole=0.7551881,1.012737
 6,-1.7679258,0.0011226,0.0020834,-1.026243\PG=C01 [X(C5H8)]\NImag=1\\0
 .34700406,0.12285103,0.55562501,0.19657223,-0.09382041,0.40415269,-0.0
 9030608,0.00330444,-0.01384610,0.60206277,-0.05509463,-0.30079710,0.01
 690206,0.00925873,0.62523448,-0.02224462,0.01287393,-0.06721759,0.1343
 3362,-0.04364242,0.18051400,0.02487751,-0.04867756,-0.01000722,-0.2617
 5245,-0.06782384,-0.04995039,0.62811732,-0.02444157,-0.02127688,-0.007
 28381,-0.11896136,-0.16258053,-0.01697058,-0.00001479,0.68145443,0.002
 78214,-0.00762666,0.00397218,-0.03147343,0.00041127,-0.05773008,0.0002
 5013,0.01483214,0.13156970,-0.01408205,0.01842646,0.00619282,-0.060904
 28,-0.02176808,0.00315479,-0.26191873,0.11901655,0.03126710,0.60248391
 ,0.02542339,-0.03127510,-0.01341985,0.02175319,0.04487921,-0.00398378,
 0.06783226,-0.16260644,0.00047434,-0.00916294,0.62520252,0.00315107,-0
 .00174059,-0.00166482,-0.00320731,-0.00399216,0.00429383,0.04974231,-0
 .01688051,-0.05763257,-0.13373805,-0.04329405,0.18004033,-0.07139708,0
 .03272709,0.02310973,-0.01408474,-0.02543308,-0.00315467,0.02486545,0.
 02444122,-0.00276361,-0.09032892,0.05509888,0.02222064,0.34712339,-0.0
 3271409,0.02323453,0.01787574,-0.01841124,-0.03128182,-0.00175594,0.04
 867837,-0.02124319,-0.00761305,-0.00328634,-0.30061810,0.01268668,-0.1
 2270811,0.55550227,-0.02312918,0.01789515,0.00400363,-0.00619996,-0.01
 343716,-0.00167650,0.01001951,-0.00726138,0.00396522,0.01382497,0.0167
 1604,-0.06717334,-0.19651956,-0.09379586,0.40402989,-0.00442741,0.0008
 0049,0.00190158,-0.00119844,-0.00133740,0.00005492,0.00370790,-0.00000
 099,0.00363064,0.00080620,0.00153120,-0.00086554,-0.21137652,0.0818697
 3,0.10821937,0.21633676,-0.00119416,0.00042554,0.00138161,-0.00117029,
 -0.00046308,0.00015318,-0.00100594,-0.00546055,-0.00023021,0.02859958,
 -0.00847593,-0.01347508,0.07509265,-0.08530125,-0.04161740,-0.08953504
 ,0.09141415,-0.00060733,0.00153391,0.00170367,-0.00163557,0.00012025,0
 .00020840,0.00068715,-0.00027336,0.00332240,-0.00065794,0.00385364,0.0
 0096138,0.09877564,-0.04465294,-0.10077429,-0.11553644,0.04575003,0.10
 281158,0.00672725,-0.00394141,-0.01048143,0.00278856,0.00758758,0.0009
 6234,-0.00928066,0.00030495,-0.00214358,0.00381161,-0.01179731,-0.0014
 9061,-0.03773430,-0.01156607,0.06052709,-0.00482555,-0.01245946,0.0199
 8861,0.06054495,0.00273969,-0.00025833,-0.00220078,0.00010604,0.001926
 80,0.00128721,-0.00428428,-0.00021761,-0.00179155,-0.00621850,-0.01859
 017,0.02343256,-0.02031889,-0.10382746,0.11280557,0.00285466,0.0066785
 1,-0.00954494,0.02842265,0.11539237,0.00769522,-0.00302598,-0.00266144
 ,0.00217932,0.00448018,0.00027871,-0.00494597,-0.00040021,-0.00033682,
 -0.00042836,-0.00927478,0.00473104,0.06797487,0.12197312,-0.22589099,0
 .00182586,0.00624376,-0.00984247,-0.05929014,-0.12208386,0.24043674,0.
 00162066,-0.00169984,-0.00046105,0.00012185,0.00496355,0.00282917,-0.0
 2357435,-0.01368915,0.00945747,-0.19643760,-0.10856363,0.07867537,0.00
 527688,0.00590600,-0.00009522,-0.00002158,-0.00037416,-0.00124884,0.00
 104781,0.00136493,-0.00012654,0.21470899,0.00160761,-0.00098799,0.0003
 3173,0.00279571,0.00003590,0.00131628,0.01207021,0.00944878,-0.0047415
 3,-0.10779987,-0.12736438,0.04668977,-0.01894030,-0.01294052,0.0139730
 3,0.00022661,0.00104967,0.00005794,-0.00119230,-0.00413843,-0.00149325
 ,0.11230707,0.13506536,0.00396700,-0.00612037,-0.00306961,0.00571621,0
 .00152413,0.00581931,-0.00576889,0.00795037,0.00059357,0.08926926,0.04
 189035,-0.06932788,0.00614240,0.00836597,0.00791116,-0.00330571,-0.000
 71214,-0.00202470,0.00166393,0.00115666,0.00129437,-0.08673628,-0.0555
 0846,0.05981640,-0.00383470,-0.00112429,-0.00227169,0.00216816,-0.0289
 0625,0.00252711,-0.05374942,-0.00001419,-0.00001555,0.00216097,0.02891
 150,-0.00251952,-0.00383409,0.00111902,0.00226009,0.00003387,0.0014809
 0,0.00022065,-0.00003913,-0.00012503,-0.00016722,0.00064892,-0.0002256
 2,-0.00073373,0.05707354,-0.00272243,0.00094659,-0.00077242,0.00259704
 ,-0.01192147,0.00163502,-0.00000865,-0.31749095,0.01354164,-0.00259443
 ,-0.01192470,0.00163028,0.00272106,0.00095215,-0.00076494,-0.00004098,
 -0.00076172,0.00008280,-0.00006398,-0.00005807,0.00000121,0.00022253,0
 .00091710,-0.00028576,0.00000898,0.33857610,-0.00031772,-0.00070965,0.
 00649153,0.00061868,-0.00013319,0.00045137,-0.00003004,0.01977232,-0.0
 3339501,-0.00059611,-0.00012296,0.00044687,0.00031469,-0.00070199,0.00
 650957,0.00026605,0.00059934,0.00046214,0.00012467,-0.00133642,-0.0001
 3871,-0.00160406,-0.00114765,-0.00333822,0.00001461,-0.01507368,0.0255
 6920,0.00527776,-0.00591045,0.00009075,-0.19619569,0.10841478,-0.07898
 359,-0.02356695,0.01366994,-0.00949984,0.00013284,-0.00496611,-0.00283
 865,0.00162331,0.00170628,0.00046140,0.00032506,0.00022298,0.00033332,
 -0.00072805,-0.00017277,-0.00042246,-0.00046294,0.00055941,0.00065195,
 0.00064601,-0.00022274,0.00160903,0.21445763,0.01892256,-0.01291651,0.
 01402834,0.10762215,-0.12726509,0.04690105,-0.01205434,0.00945727,-0.0
 0476577,-0.00280142,0.00003490,0.00131488,-0.00160711,-0.00099360,0.00
 032906,-0.00016772,0.00000147,-0.00024985,0.00050220,0.00026415,-0.000
 12292,-0.00056035,0.00048575,0.00075710,0.00023027,0.00091529,-0.00114
 854,-0.11213630,0.13493611,-0.00613995,0.00836283,0.00789340,-0.089591
 75,0.04211951,-0.06967967,0.00575075,0.00796153,0.00058479,-0.00571522
 ,0.00151454,0.00579695,-0.00395638,-0.00610670,-0.00306331,-0.00072675
 ,-0.00009275,-0.00044066,0.00201573,0.00077921,0.00100530,-0.00065300,
 0.00075344,0.00214174,0.00073691,-0.00028513,-0.00332464,0.08709035,-0
 .05575035,0.06019336,-0.21130263,-0.08203824,-0.10816847,0.00082348,-0
 .00150925,0.00086574,0.00370523,-0.00000247,-0.00363012,-0.00118660,0.
 00133179,-0.00005370,-0.00442020,-0.00079097,-0.00189739,-0.00072094,-
 0.00010826,0.00004179,-0.00045438,0.00017404,0.00111654,0.00032254,0.0
 0016718,0.00072401,0.00003313,0.00004076,-0.00026516,-0.00002845,-0.00
 022315,0.00330868,0.21624922,-0.07523611,-0.08544487,-0.04167790,-0.02
 859305,-0.00848593,-0.01347183,0.00100914,-0.00546422,-0.00022223,0.00
 116837,-0.00046188,0.00015380,0.00119147,0.00042280,0.00137966,0.00010
 856,-0.00000216,-0.00044953,0.00060504,0.00026803,-0.00058132,-0.00022
 239,0.00000110,-0.00009215,-0.00148244,-0.00076219,0.00059473,0.000376
 42,0.00105006,-0.00071503,0.08968991,0.09156421,-0.09872612,-0.0446990
 3,-0.10072478,0.00066879,0.00384797,0.00096948,-0.00068454,-0.00026593
 ,0.00332798,0.00162508,0.00012671,0.00020635,0.00060010,0.00152576,0.0
 0170019,-0.00004157,-0.00044969,-0.00010243,0.00091755,-0.00050465,0.0
 0024886,-0.00033121,-0.00024890,-0.00043841,-0.00021892,0.00008395,0.0
 0046121,0.00125548,0.00005441,-0.00202724,0.11547079,0.04582193,0.1027
 6225,0.04762971,-0.04628768,-0.02201648,0.01266611,0.05984237,0.008124
 54,-0.04215387,-0.00000227,-0.00000643,0.01267744,-0.05981280,-0.00811
 666,0.04757407,0.04626138,0.02204277,0.00181499,0.00105675,0.00055722,
 -0.02057284,-0.00527517,-0.01386443,-0.00252676,-0.00107542,-0.0095737
 1,-0.00126836,-0.00000155,-0.00000826,-0.00253541,0.00108234,0.0095538
 8,0.00180977,-0.00105435,-0.00054958,-0.03454841,-0.00045471,-0.023610
 73,-0.00402335,0.01345434,-0.01070966,-0.00779398,-0.00000305,-0.00380
 400,-0.00047948,-0.01347305,-0.01072495,-0.00780994,0.00047332,-0.0236
 5085,-0.00402060,0.00386546,0.00062708,0.00427610,0.00432773,0.0020660
 3,0.00389562,0.00017375,-0.00183537,0.00029541,0.00000018,0.00066903,0
 .00073990,-0.00017318,-0.00182666,0.00029783,-0.00386706,0.00063171,0.
 00427502,-0.00000637,0.07010470,0.00506937,-0.00477942,-0.02682294,0.0
 0201185,0.00105833,-0.00094366,-0.00000234,-0.00077923,0.00209162,-0.0
 0202853,0.00104582,-0.00095176,-0.00505449,-0.00478267,-0.02688377,0.0
 0569544,0.00303168,0.00346583,-0.01434210,-0.00238602,-0.01163471,-0.0
 0012668,0.00014111,-0.00038131,-0.00000003,0.00020545,-0.00006008,0.00
 012792,0.00014228,-0.00038322,-0.00568552,0.00302665,0.00345428,0.0000
 0297,0.00646007,0.07067640,-0.03778701,0.01156995,-0.06061468,0.003810
 75,0.01180553,0.00148103,-0.00927697,-0.00030586,0.00214507,0.00278522
 ,-0.00757942,-0.00095935,0.00671276,0.00393604,0.01048612,-0.00045434,
 -0.00060556,-0.00091828,-0.00128526,0.00073264,-0.00154670,-0.00072442
 ,-0.00050031,-0.00201644,-0.00003889,0.00006438,-0.00012638,0.00105489
 ,0.00119088,-0.00167325,-0.00483017,0.01243944,-0.01998587,-0.02056644
 ,-0.00431736,0.01433213,0.06059987,0.02031342,-0.10366416,0.11267904,0
 .00624429,-0.01857170,0.02345187,0.00428248,-0.00021610,-0.00178892,-0
 .00010633,0.00192502,0.00128436,-0.00273820,-0.00025495,-0.00220116,-0
 .00017457,0.00026829,-0.00050404,-0.00072963,0.00049417,0.00038843,0.0
 0017168,0.00026302,0.00077889,0.00012697,-0.00005717,-0.00133221,-0.00
 136826,-0.00414316,0.00116107,-0.00286428,0.00668336,-0.00956754,0.005
 27277,0.00206367,-0.00238405,-0.02843035,0.11520970,-0.06807210,0.1218
 5629,-0.22605592,0.00042565,-0.00925877,0.00471239,0.00493951,-0.00040
 135,-0.00033298,-0.00216981,0.00447397,0.00027361,-0.00768937,-0.00301
 812,-0.00265744,-0.00111785,-0.00058232,0.00024917,0.00154793,0.000387
 01,0.00251012,0.00042086,-0.00012351,0.00100360,0.00016729,0.00000158,
 -0.00013523,0.00012433,-0.00148969,0.00130320,-0.00182720,0.00623322,-
 0.00983773,0.01385416,0.00388741,-0.01162668,0.05939658,-0.12196573,0.
 24059389\\0.00006019,-0.00001759,-0.00000064,-0.00000097,0.00003919,0.
 00002510,-0.00002745,-0.00000619,-0.00000177,0.00000975,-0.00002335,-0
 .00000336,0.00003785,0.00003478,0.00004291,-0.00000180,-0.00000462,-0.
 00000624,0.00000484,-0.00000225,-0.00000289,0.00000294,0.00000094,-0.0
 0000064,-0.00000107,0.00000233,-0.00000081,0.00000562,-0.00000371,-0.0
 0002289,-0.00000615,-0.00000418,0.00000683,-0.00007596,-0.00001794,-0.
 00004240,-0.00000780,0.00000260,0.00000679\\\@


 IN THE FIGHT BETWEEN YOU AND THE WORLD, BACK THE WORLD

                                        -- FRANZ KAFKA
 Job cpu time:       0 days  0 hours  9 minutes 38.9 seconds.
 Elapsed time:       0 days  0 hours  0 minutes 57.6 seconds.
 File lengths (MBytes):  RWF=     17 Int=      0 D2E=      0 Chk=      2 Scr=      1
 Normal termination of Gaussian 16 at Wed Oct  7 13:27:11 2020.
