 Entering Gaussian System, Link 0=g16
 Input=MN_92_RKT18_BH76_BP86_631Gs.in
 Output=MN_92_RKT18_BH76_BP86_631Gs.log
 Initial command:
 /udrive/faculty/rpeverati/g16/g16/l1.exe "/udrive/scratch-directories/gaussian09/rpeverati/Gau-39537.inp" -scrdir="/udrive/scratch-directories/gaussian09/rpeverati/"
 Entering Link 1 = /udrive/faculty/rpeverati/g16/g16/l1.exe PID=     39538.
  
 Copyright (c) 1988,1990,1992,1993,1995,1998,2003,2009,2016,
            Gaussian, Inc.  All Rights Reserved.
  
 This is part of the Gaussian(R) 16 program.  It is based on
 the Gaussian(R) 09 system (copyright 2009, Gaussian, Inc.),
 the Gaussian(R) 03 system (copyright 2003, Gaussian, Inc.),
 the Gaussian(R) 98 system (copyright 1998, Gaussian, Inc.),
 the Gaussian(R) 94 system (copyright 1995, Gaussian, Inc.),
 the Gaussian 92(TM) system (copyright 1992, Gaussian, Inc.),
 the Gaussian 90(TM) system (copyright 1990, Gaussian, Inc.),
 the Gaussian 88(TM) system (copyright 1988, Gaussian, Inc.),
 the Gaussian 86(TM) system (copyright 1986, Carnegie Mellon
 University), and the Gaussian 82(TM) system (copyright 1983,
 Carnegie Mellon University). Gaussian is a federally registered
 trademark of Gaussian, Inc.
  
 This software contains proprietary and confidential information,
 including trade secrets, belonging to Gaussian, Inc.
  
 This software is provided under written license and may be
 used, copied, transmitted, or stored only in accord with that
 written license.
  
 The following legend is applicable only to US Government
 contracts under FAR:
  
                    RESTRICTED RIGHTS LEGEND
  
 Use, reproduction and disclosure by the US Government is
 subject to restrictions as set forth in subparagraphs (a)
 and (c) of the Commercial Computer Software - Restricted
 Rights clause in FAR 52.227-19.
  
 Gaussian, Inc.
 340 Quinnipiac St., Bldg. 40, Wallingford CT 06492
  
  
 ---------------------------------------------------------------
 Warning -- This program may not be used in any manner that
 competes with the business of Gaussian, Inc. or will provide
 assistance to any competitor of Gaussian, Inc.  The licensee
 of this program is prohibited from giving any competitor of
 Gaussian, Inc. access to this program.  By using this program,
 the user acknowledges that Gaussian, Inc. is engaged in the
 business of creating and licensing software in the field of
 computational chemistry and represents and warrants to the
 licensee that it is not a competitor of Gaussian, Inc. and that
 it will not use this program in any manner prohibited above.
 ---------------------------------------------------------------
  

 Cite this work as:
 Gaussian 16, Revision A.03,
 M. J. Frisch, G. W. Trucks, H. B. Schlegel, G. E. Scuseria, 
 M. A. Robb, J. R. Cheeseman, G. Scalmani, V. Barone, 
 G. A. Petersson, H. Nakatsuji, X. Li, M. Caricato, A. V. Marenich, 
 J. Bloino, B. G. Janesko, R. Gomperts, B. Mennucci, H. P. Hratchian, 
 J. V. Ortiz, A. F. Izmaylov, J. L. Sonnenberg, D. Williams-Young, 
 F. Ding, F. Lipparini, F. Egidi, J. Goings, B. Peng, A. Petrone, 
 T. Henderson, D. Ranasinghe, V. G. Zakrzewski, J. Gao, N. Rega, 
 G. Zheng, W. Liang, M. Hada, M. Ehara, K. Toyota, R. Fukuda, 
 J. Hasegawa, M. Ishida, T. Nakajima, Y. Honda, O. Kitao, H. Nakai, 
 T. Vreven, K. Throssell, J. A. Montgomery, Jr., J. E. Peralta, 
 F. Ogliaro, M. J. Bearpark, J. J. Heyd, E. N. Brothers, K. N. Kudin, 
 V. N. Staroverov, T. A. Keith, R. Kobayashi, J. Normand, 
 K. Raghavachari, A. P. Rendell, J. C. Burant, S. S. Iyengar, 
 J. Tomasi, M. Cossi, J. M. Millam, M. Klene, C. Adamo, R. Cammi, 
 J. W. Ochterski, R. L. Martin, K. Morokuma, O. Farkas, 
 J. B. Foresman, and D. J. Fox, Gaussian, Inc., Wallingford CT, 2016.
 
 ******************************************
 Gaussian 16:  ES64L-G16RevA.03 25-Dec-2016
                 7-Oct-2020 
 ******************************************
 %NoSave
 %nproc=12
 Will use up to   12 processors via shared memory.
 %mem=20GB
 %chk=MN_92_RKT18_BH76_BP86_631Gs
 ----------------------------------------------------------------------
 #P Opt(TS,MaxCyc=50,NoEigenTest,MaxStep=10,AddRedundant) BP86/6-31G* 5
 D 7F Integral=UltraFineGrid SCF=(NoSymm,XQC,MaxCyc=120) IOp(1/33=1)
 ----------------------------------------------------------------------
 1/5=1,6=50,8=10,11=1,18=120,26=4,33=1,38=1/1,3;
 2/9=110,12=2,17=6,18=5,40=1/2;
 3/5=1,6=6,7=1,8=11,11=2,25=1,30=1,71=1,74=404,75=-5/1,2,3;
 4/9=2/1;
 5/5=2,7=120,8=3,13=1,38=5/2,8;
 6/7=2,8=2,9=2,10=2,28=1/1;
 7//1,2,3,16;
 1/5=1,6=50,8=10,11=1,18=20,26=4,33=1/3(2);
 2/9=110/2;
 99//99;
 2/9=110/2;
 3/5=1,6=6,7=1,8=11,11=2,25=1,30=1,71=1,74=404,75=-5/1,2,3;
 4/5=5,9=2,16=3,69=1/1;
 5/5=2,7=120,8=3,13=1,38=5/2,8;
 7//1,2,3,16;
 1/5=1,6=50,8=10,11=1,18=20,26=4,33=1/3(-5);
 2/9=110/2;
 6/7=2,8=2,9=2,10=2,19=2,28=1/1;
 99/9=1/99;
 Leave Link    1 at Wed Oct  7 13:19:49 2020, MaxMem=  2684354560 cpu:              10.4 elap:               1.0
 (Enter /udrive/faculty/rpeverati/g16/g16/l101.exe)
 ONIOM data not found on unit 2.
 ------------------
 TS search on BH76.
 ------------------
 TstMul:  ICh=     0
 TstMul:  Mul=     3
 TstMul:  ICh=     0
 TstMul:  Mul=     3
 Symbolic Z-matrix:
 Charge =  0 Multiplicity = 3
 C                    -1.19958  -0.01113  -0.00003 
 N                     1.40072   0.12986   0.00002 
 H                    -1.42666  -0.51293   0.93306 
 H                    -1.41991  -0.59138  -0.88814 
 H                    -1.52024   1.0228   -0.04578 
 H                     0.18893   0.1269    0.001 
 H                     1.57034  -0.88767  -0.00005 
 
 RdStrC is calling ZToCFu for IStruc=1 NZ=     7.
 PrtBox:  NBox=     1 Levels=  1 BoxLen=    8.00 SMaxX=        5.84
          Shift=            2.872830            1.677450            1.678350
 Box      1 Number                   0 centers from      1 to      7:
 After GenITR:
 ITRead=  0  0  0  0  0  0  0
 MicOpt= -1 -1 -1 -1 -1 -1 -1
 Add virtual bond connecting atoms H6         and N2         Dist= 2.29D+00.
 Add virtual bond connecting atoms H6         and C1         Dist= 2.64D+00.
 The following ModRedundant input section has been read:
 
 ITRead=  0  0  0  0  0  0  0
 MicOpt= -1 -1 -1 -1 -1 -1 -1
 NAtoms=      7 NQM=        7 NQMF=       0 NMMI=      0 NMMIF=      0
                NMic=       0 NMicF=      0.
                    Isotopes and Nuclear Properties:
 (Nuclear quadrupole moments (NQMom) in fm**2, nuclear magnetic moments (NMagM)
  in nuclear magnetons)

  Atom         1           2           3           4           5           6           7
 IAtWgt=          12          14           1           1           1           1           1
 AtmWgt=  12.0000000  14.0030740   1.0078250   1.0078250   1.0078250   1.0078250   1.0078250
 NucSpn=           0           2           1           1           1           1           1
 AtZEff=   0.0000000   0.0000000   0.0000000   0.0000000   0.0000000   0.0000000   0.0000000
 NQMom=    0.0000000   2.0440000   0.0000000   0.0000000   0.0000000   0.0000000   0.0000000
 NMagM=    0.0000000   0.4037610   2.7928460   2.7928460   2.7928460   2.7928460   2.7928460
 AtZNuc=   6.0000000   7.0000000   1.0000000   1.0000000   1.0000000   1.0000000   1.0000000
 No MM parameters found.
 Leave Link  101 at Wed Oct  7 13:19:51 2020, MaxMem=  2684354560 cpu:              13.4 elap:               1.4
 (Enter /udrive/faculty/rpeverati/g16/g16/l103.exe)

 GradGradGradGradGradGradGradGradGradGradGradGradGradGradGradGradGradGrad
 Berny optimization.
 Optmz: redundant internal coordinate code flag= 1
 Initialization pass.
                           ----------------------------
                           !    Initial Parameters    !
                           ! (Angstroms and Degrees)  !
 --------------------------                            --------------------------
 ! Name  Definition              Value          Derivative Info.                !
 --------------------------------------------------------------------------------
 ! R1    R(1,3)                  1.0835         estimate D2E/DX2                !
 ! R2    R(1,4)                  1.0835         estimate D2E/DX2                !
 ! R3    R(1,5)                  1.0835         estimate D2E/DX2                !
 ! R4    R(1,6)                  1.3953         estimate D2E/DX2                !
 ! R5    R(2,6)                  1.2118         estimate D2E/DX2                !
 ! R6    R(2,7)                  1.0316         estimate D2E/DX2                !
 ! A1    A(3,1,4)              114.5334         estimate D2E/DX2                !
 ! A2    A(3,1,5)              114.6001         estimate D2E/DX2                !
 ! A3    A(3,1,6)              104.6982         estimate D2E/DX2                !
 ! A4    A(4,1,5)              114.5979         estimate D2E/DX2                !
 ! A5    A(4,1,6)              104.8289         estimate D2E/DX2                !
 ! A6    A(5,1,6)              101.5452         estimate D2E/DX2                !
 ! A7    A(6,2,7)               99.3239         estimate D2E/DX2                !
 ! A8    L(1,6,2,7,-1)         174.4634         estimate D2E/DX2                !
 ! A9    L(1,6,2,7,-2)         179.8668         estimate D2E/DX2                !
 ! D1    D(3,1,2,7)             62.3573         estimate D2E/DX2                !
 ! D2    D(4,1,2,7)            -57.4187         estimate D2E/DX2                !
 ! D3    D(5,1,2,7)           -177.5008         estimate D2E/DX2                !
 --------------------------------------------------------------------------------
 Maximum allowed force set to 1.00D+20.
 Trust Radius=1.00D-01 FncErr=1.00D-07 GrdErr=1.00D-06 EigMax=2.50D+02 EigMin=1.00D-04
 Number of steps in this run=     50 maximum allowed number of steps=    100.
 Search for a saddle point of order  1.
 GradGradGradGradGradGradGradGradGradGradGradGradGradGradGradGradGradGrad

 Leave Link  103 at Wed Oct  7 13:19:52 2020, MaxMem=  2684354560 cpu:               1.0 elap:               0.6
 (Enter /udrive/faculty/rpeverati/g16/g16/l202.exe)
                          Input orientation:                          
 ---------------------------------------------------------------------
 Center     Atomic      Atomic             Coordinates (Angstroms)
 Number     Number       Type             X           Y           Z
 ---------------------------------------------------------------------
      1          6           0       -1.199576   -0.011126   -0.000030
      2          7           0        1.400716    0.129862    0.000015
      3          1           0       -1.426662   -0.512932    0.933056
      4          1           0       -1.419909   -0.591382   -0.888145
      5          1           0       -1.520236    1.022804   -0.045783
      6          1           0        0.188926    0.126896    0.001001
      7          1           0        1.570339   -0.887668   -0.000053
 ---------------------------------------------------------------------
                    Distance matrix (angstroms):
                    1          2          3          4          5
     1  C    0.000000
     2  N    2.604112   0.000000
     3  H    1.083525   3.045951   0.000000
     4  H    1.083509   3.043838   1.822902   0.000000
     5  H    1.083480   3.054735   1.823559   1.823523   0.000000
     6  H    1.395346   1.211794   1.971860   1.973539   1.930305
     7  H    2.905297   1.031572   3.161191   3.133381   3.633683
                    6          7
     6  H    0.000000
     7  H    1.713955   0.000000
 Stoichiometry    CH5N(3)
 Framework group  C1[X(CH5N)]
 Deg. of freedom    15
 Full point group                 C1      NOp   1
 Largest Abelian subgroup         C1      NOp   1
 Largest concise Abelian subgroup C1      NOp   1
                         Standard orientation:                         
 ---------------------------------------------------------------------
 Center     Atomic      Atomic             Coordinates (Angstroms)
 Number     Number       Type             X           Y           Z
 ---------------------------------------------------------------------
      1          6           0       -1.199577   -0.011126   -0.000030
      2          7           0        1.400715    0.129862    0.000015
      3          1           0       -1.426663   -0.512932    0.933056
      4          1           0       -1.419910   -0.591382   -0.888145
      5          1           0       -1.520237    1.022804   -0.045783
      6          1           0        0.188925    0.126896    0.001001
      7          1           0        1.570338   -0.887668   -0.000053
 ---------------------------------------------------------------------
 Rotational constants (GHZ):         116.4476060           9.1611211           8.9994566
 Leave Link  202 at Wed Oct  7 13:19:53 2020, MaxMem=  2684354560 cpu:               1.4 elap:               0.7
 (Enter /udrive/faculty/rpeverati/g16/g16/l301.exe)
 Standard basis: 6-31G(d) (5D, 7F)
 Ernie: Thresh=  0.10000D-02 Tol=  0.10000D-05 Strict=F.
 There are    40 symmetry adapted cartesian basis functions of A   symmetry.
 There are    38 symmetry adapted basis functions of A   symmetry.
    38 basis functions,    76 primitive gaussians,    40 cartesian basis functions
    10 alpha electrons        8 beta electrons
       nuclear repulsion energy        33.4595449307 Hartrees.
 IExCor=  404 DFT=T Ex=B Corr=P86 ExCW=0 ScaHFX=  0.000000
 ScaDFX=  1.000000  1.000000  1.000000  1.000000 ScalE2=  1.000000  1.000000
 IRadAn=      5 IRanWt=     -1 IRanGd=            0 ICorTp=0 IEmpDi=  4
 NAtoms=    7 NActive=    7 NUniq=    7 SFac= 1.00D+00 NAtFMM=   60 NAOKFM=F Big=F
 Integral buffers will be    131072 words long.
 Raffenetti 2 integral format.
 Two-electron integral symmetry is turned on.
 Leave Link  301 at Wed Oct  7 13:19:54 2020, MaxMem=  2684354560 cpu:               2.4 elap:               0.8
 (Enter /udrive/faculty/rpeverati/g16/g16/l302.exe)
 NPDir=0 NMtPBC=     1 NCelOv=     1 NCel=       1 NClECP=     1 NCelD=      1
         NCelK=      1 NCelE2=     1 NClLst=     1 CellRange=     0.0.
 One-electron integrals computed using PRISM.
 One-electron integral symmetry used in STVInt
 NBasis=    38 RedAO= T EigKep=  9.06D-03  NBF=    38
 NBsUse=    38 1.00D-06 EigRej= -1.00D+00 NBFU=    38
 Precomputing XC quadrature grid using
 IXCGrd= 4 IRadAn=           5 IRanWt=          -1 IRanGd=           0 AccXCQ= 0.00D+00.
 Generated NRdTot=       0 NPtTot=           0 NUsed=           0 NTot=          32
 NSgBfM=    40    40    40    40    40 MxSgAt=     7 MxSgA2=     7.
 Leave Link  302 at Wed Oct  7 13:19:55 2020, MaxMem=  2684354560 cpu:               4.3 elap:               0.8
 (Enter /udrive/faculty/rpeverati/g16/g16/l303.exe)
 DipDrv:  MaxL=1.
 Leave Link  303 at Wed Oct  7 13:19:57 2020, MaxMem=  2684354560 cpu:               1.6 elap:               0.7
 (Enter /udrive/faculty/rpeverati/g16/g16/l401.exe)
 SCF N**3 symmetry information disabled.
 ExpMin= 1.61D-01 ExpMax= 4.17D+03 ExpMxC= 6.27D+02 IAcc=3 IRadAn=         5 AccDes= 0.00D+00
 Harris functional with IExCor=  404 and IRadAn=       5 diagonalized for initial guess.
 HarFok:  IExCor=  404 AccDes= 0.00D+00 IRadAn=         5 IDoV= 1 UseB2=F ITyADJ=14
 ICtDFT=  3500011 ScaDFX=  1.000000  1.000000  1.000000  1.000000
 FoFCou: FMM=F IPFlag=           0 FMFlag=      100000 FMFlg1=           0
         NFxFlg=           0 DoJE=T BraDBF=F KetDBF=T FulRan=T
         wScrn=  0.000000 ICntrl=       500 IOpCl=  0 I1Cent=   200000004 NGrid=           0
         NMat0=    1 NMatS0=      1 NMatT0=    0 NMatD0=    1 NMtDS0=    0 NMtDT0=    0
 Petite list used in FoFCou.
 Harris En= -95.6982344780141    
 JPrj=0 DoOrth=F DoCkMO=F.
 Initial guess <Sx>= 0.0000 <Sy>= 0.0000 <Sz>= 1.0000 <S**2>= 2.0000 S= 1.0000
 Leave Link  401 at Wed Oct  7 13:19:58 2020, MaxMem=  2684354560 cpu:               5.2 elap:               0.9
 (Enter /udrive/faculty/rpeverati/g16/g16/l502.exe)
 Keep J ints in memory in canonical form, NReq=10631630.
 FoFCou: FMM=F IPFlag=           0 FMFlag=           0 FMFlg1=           0
         NFxFlg=           0 DoJE=F BraDBF=F KetDBF=F FulRan=T
         wScrn=  0.000000 ICntrl=       600 IOpCl=  0 I1Cent=           0 NGrid=           0
         NMat0=    1 NMatS0=    741 NMatT0=    0 NMatD0=    1 NMtDS0=    0 NMtDT0=    0
 Symmetry not used in FoFCou.
 Two-electron integral symmetry not used.
 UHF open shell SCF:
 Using DIIS extrapolation, IDIIS=  1040.
 NGot=  2684354560 LenX=  2684075284 LenY=  2684073243
 Requested convergence on RMS density matrix=1.00D-08 within 120 cycles.
 Requested convergence on MAX density matrix=1.00D-06.
 Requested convergence on             energy=1.00D-06.
 No special actions if energy rises.
 Integral accuracy reduced to 1.0D-05 until final iterations.

 Cycle   1  Pass 0  IDiag  1:
 E= -95.6326684205311    
 DIIS: error= 5.96D-02 at cycle   1 NSaved=   1.
 NSaved= 1 IEnMin= 1 EnMin= -95.6326684205311     IErMin= 1 ErrMin= 5.96D-02
 ErrMax= 5.96D-02  0.00D+00 EMaxC= 1.00D-01 BMatC= 2.35D-01 BMatP= 2.35D-01
 IDIUse=3 WtCom= 4.04D-01 WtEn= 5.96D-01
 Coeff-Com:  0.100D+01
 Coeff-En:   0.100D+01
 Coeff:      0.100D+01
 Gap=     0.238 Goal=   None    Shift=    0.000
 Gap=     0.104 Goal=   None    Shift=    0.000
 GapD=    0.104 DampG=1.000 DampE=0.500 DampFc=0.5000 IDamp=-1.
 Damping current iteration by 5.00D-01
 RMSDP=1.53D-02 MaxDP=1.83D-01              OVMax= 2.52D-01

 Cycle   2  Pass 0  IDiag  1:
 E= -95.6541979931823     Delta-E=       -0.021529572651 Rises=F Damp=T
 DIIS: error= 1.48D-02 at cycle   2 NSaved=   2.
 NSaved= 2 IEnMin= 2 EnMin= -95.6541979931823     IErMin= 2 ErrMin= 1.48D-02
 ErrMax= 1.48D-02  0.00D+00 EMaxC= 1.00D-01 BMatC= 2.31D-02 BMatP= 2.35D-01
 IDIUse=3 WtCom= 8.52D-01 WtEn= 1.48D-01
 Coeff-Com:  0.189D+00 0.811D+00
 Coeff-En:   0.315D+00 0.685D+00
 Coeff:      0.207D+00 0.793D+00
 Gap=     0.268 Goal=   None    Shift=    0.000
 Gap=     0.127 Goal=   None    Shift=    0.000
 RMSDP=4.41D-03 MaxDP=4.76D-02 DE=-2.15D-02 OVMax= 2.17D-01

 Cycle   3  Pass 0  IDiag  1:
 E= -95.6939459334254     Delta-E=       -0.039747940243 Rises=F Damp=F
 DIIS: error= 1.66D-02 at cycle   3 NSaved=   3.
 NSaved= 3 IEnMin= 3 EnMin= -95.6939459334254     IErMin= 2 ErrMin= 1.48D-02
 ErrMax= 1.66D-02  0.00D+00 EMaxC= 1.00D-01 BMatC= 2.09D-02 BMatP= 2.31D-02
 IDIUse=3 WtCom= 8.34D-01 WtEn= 1.66D-01
 Coeff-Com:  0.888D-01 0.500D+00 0.411D+00
 Coeff-En:   0.000D+00 0.000D+00 0.100D+01
 Coeff:      0.740D-01 0.417D+00 0.509D+00
 Gap=     0.266 Goal=   None    Shift=    0.000
 Gap=     0.124 Goal=   None    Shift=    0.000
 RMSDP=3.08D-03 MaxDP=3.26D-02 DE=-3.97D-02 OVMax= 9.11D-02

 Cycle   4  Pass 0  IDiag  1:
 E= -95.6983162193214     Delta-E=       -0.004370285896 Rises=F Damp=F
 DIIS: error= 8.26D-03 at cycle   4 NSaved=   4.
 NSaved= 4 IEnMin= 4 EnMin= -95.6983162193214     IErMin= 4 ErrMin= 8.26D-03
 ErrMax= 8.26D-03  0.00D+00 EMaxC= 1.00D-01 BMatC= 5.62D-03 BMatP= 2.09D-02
 IDIUse=3 WtCom= 9.17D-01 WtEn= 8.26D-02
 Coeff-Com:  0.287D-02-0.388D-01 0.334D+00 0.702D+00
 Coeff-En:   0.000D+00 0.000D+00 0.256D+00 0.744D+00
 Coeff:      0.263D-02-0.356D-01 0.327D+00 0.706D+00
 Gap=     0.262 Goal=   None    Shift=    0.000
 Gap=     0.128 Goal=   None    Shift=    0.000
 RMSDP=1.05D-03 MaxDP=1.31D-02 DE=-4.37D-03 OVMax= 2.73D-02

 Cycle   5  Pass 0  IDiag  1:
 E= -95.6998607431506     Delta-E=       -0.001544523829 Rises=F Damp=F
 DIIS: error= 4.60D-04 at cycle   5 NSaved=   5.
 NSaved= 5 IEnMin= 5 EnMin= -95.6998607431506     IErMin= 5 ErrMin= 4.60D-04
 ErrMax= 4.60D-04  0.00D+00 EMaxC= 1.00D-01 BMatC= 3.54D-05 BMatP= 5.62D-03
 IDIUse=3 WtCom= 9.95D-01 WtEn= 4.60D-03
 Coeff-Com: -0.478D-02-0.333D-01 0.607D-01 0.180D+00 0.797D+00
 Coeff-En:   0.000D+00 0.000D+00 0.000D+00 0.000D+00 0.100D+01
 Coeff:     -0.476D-02-0.332D-01 0.605D-01 0.180D+00 0.798D+00
 Gap=     0.262 Goal=   None    Shift=    0.000
 Gap=     0.128 Goal=   None    Shift=    0.000
 RMSDP=1.22D-04 MaxDP=1.34D-03 DE=-1.54D-03 OVMax= 1.67D-03

 Cycle   6  Pass 0  IDiag  1:
 E= -95.6998709823547     Delta-E=       -0.000010239204 Rises=F Damp=F
 DIIS: error= 1.66D-04 at cycle   6 NSaved=   6.
 NSaved= 6 IEnMin= 6 EnMin= -95.6998709823547     IErMin= 6 ErrMin= 1.66D-04
 ErrMax= 1.66D-04  0.00D+00 EMaxC= 1.00D-01 BMatC= 2.90D-06 BMatP= 3.54D-05
 IDIUse=3 WtCom= 9.98D-01 WtEn= 1.66D-03
 Coeff-Com: -0.117D-02-0.153D-02-0.171D-01-0.360D-01 0.176D+00 0.880D+00
 Coeff-En:   0.000D+00 0.000D+00 0.000D+00 0.000D+00 0.000D+00 0.100D+01
 Coeff:     -0.117D-02-0.152D-02-0.171D-01-0.359D-01 0.176D+00 0.880D+00
 Gap=     0.262 Goal=   None    Shift=    0.000
 Gap=     0.128 Goal=   None    Shift=    0.000
 RMSDP=3.90D-05 MaxDP=3.95D-04 DE=-1.02D-05 OVMax= 4.72D-04

 Cycle   7  Pass 0  IDiag  1:
 E= -95.6998720085640     Delta-E=       -0.000001026209 Rises=F Damp=F
 DIIS: error= 3.28D-05 at cycle   7 NSaved=   7.
 NSaved= 7 IEnMin= 7 EnMin= -95.6998720085640     IErMin= 7 ErrMin= 3.28D-05
 ErrMax= 3.28D-05  0.00D+00 EMaxC= 1.00D-01 BMatC= 7.06D-08 BMatP= 2.90D-06
 IDIUse=1 WtCom= 1.00D+00 WtEn= 0.00D+00
 Coeff-Com: -0.926D-05 0.108D-02-0.441D-02-0.105D-01-0.653D-02 0.128D+00
 Coeff-Com:  0.892D+00
 Coeff:     -0.926D-05 0.108D-02-0.441D-02-0.105D-01-0.653D-02 0.128D+00
 Coeff:      0.892D+00
 Gap=     0.262 Goal=   None    Shift=    0.000
 Gap=     0.128 Goal=   None    Shift=    0.000
 RMSDP=6.25D-06 MaxDP=7.19D-05 DE=-1.03D-06 OVMax= 1.05D-04

 Initial convergence to 1.0D-05 achieved.  Increase integral accuracy.
 Cycle   8  Pass 1  IDiag  1:
 E= -95.6998716574824     Delta-E=        0.000000351082 Rises=F Damp=F
 DIIS: error= 7.27D-06 at cycle   1 NSaved=   1.
 NSaved= 1 IEnMin= 1 EnMin= -95.6998716574824     IErMin= 1 ErrMin= 7.27D-06
 ErrMax= 7.27D-06  0.00D+00 EMaxC= 1.00D-01 BMatC= 5.96D-09 BMatP= 5.96D-09
 IDIUse=1 WtCom= 1.00D+00 WtEn= 0.00D+00
 Coeff-Com:  0.100D+01
 Coeff:      0.100D+01
 Gap=     0.262 Goal=   None    Shift=    0.000
 Gap=     0.128 Goal=   None    Shift=    0.000
 RMSDP=6.25D-06 MaxDP=7.19D-05 DE= 3.51D-07 OVMax= 7.79D-05

 Cycle   9  Pass 1  IDiag  1:
 E= -95.6998716584563     Delta-E=       -0.000000000974 Rises=F Damp=F
 DIIS: error= 8.64D-06 at cycle   2 NSaved=   2.
 NSaved= 2 IEnMin= 2 EnMin= -95.6998716584563     IErMin= 1 ErrMin= 7.27D-06
 ErrMax= 8.64D-06  0.00D+00 EMaxC= 1.00D-01 BMatC= 7.01D-09 BMatP= 5.96D-09
 IDIUse=1 WtCom= 1.00D+00 WtEn= 0.00D+00
 Coeff-Com:  0.524D+00 0.476D+00
 Coeff:      0.524D+00 0.476D+00
 Gap=     0.262 Goal=   None    Shift=    0.000
 Gap=     0.128 Goal=   None    Shift=    0.000
 RMSDP=1.76D-06 MaxDP=2.06D-05 DE=-9.74D-10 OVMax= 5.63D-05

 Cycle  10  Pass 1  IDiag  1:
 E= -95.6998716592268     Delta-E=       -0.000000000771 Rises=F Damp=F
 DIIS: error= 5.24D-06 at cycle   3 NSaved=   3.
 NSaved= 3 IEnMin= 3 EnMin= -95.6998716592268     IErMin= 3 ErrMin= 5.24D-06
 ErrMax= 5.24D-06  0.00D+00 EMaxC= 1.00D-01 BMatC= 2.15D-09 BMatP= 5.96D-09
 IDIUse=1 WtCom= 1.00D+00 WtEn= 0.00D+00
 Coeff-Com:  0.216D+00 0.336D+00 0.448D+00
 Coeff:      0.216D+00 0.336D+00 0.448D+00
 Gap=     0.262 Goal=   None    Shift=    0.000
 Gap=     0.128 Goal=   None    Shift=    0.000
 RMSDP=6.61D-07 MaxDP=6.35D-06 DE=-7.71D-10 OVMax= 1.82D-05

 Cycle  11  Pass 1  IDiag  1:
 E= -95.6998716598287     Delta-E=       -0.000000000602 Rises=F Damp=F
 DIIS: error= 7.04D-07 at cycle   4 NSaved=   4.
 NSaved= 4 IEnMin= 4 EnMin= -95.6998716598287     IErMin= 4 ErrMin= 7.04D-07
 ErrMax= 7.04D-07  0.00D+00 EMaxC= 1.00D-01 BMatC= 3.35D-11 BMatP= 2.15D-09
 IDIUse=1 WtCom= 1.00D+00 WtEn= 0.00D+00
 Coeff-Com: -0.823D-01-0.729D-01 0.208D-01 0.113D+01
 Coeff:     -0.823D-01-0.729D-01 0.208D-01 0.113D+01
 Gap=     0.262 Goal=   None    Shift=    0.000
 Gap=     0.128 Goal=   None    Shift=    0.000
 RMSDP=1.60D-07 MaxDP=1.90D-06 DE=-6.02D-10 OVMax= 2.48D-06

 Cycle  12  Pass 1  IDiag  1:
 E= -95.6998716598437     Delta-E=       -0.000000000015 Rises=F Damp=F
 DIIS: error= 2.17D-07 at cycle   5 NSaved=   5.
 NSaved= 5 IEnMin= 5 EnMin= -95.6998716598437     IErMin= 5 ErrMin= 2.17D-07
 ErrMax= 2.17D-07  0.00D+00 EMaxC= 1.00D-01 BMatC= 4.95D-12 BMatP= 3.35D-11
 IDIUse=1 WtCom= 1.00D+00 WtEn= 0.00D+00
 Coeff-Com: -0.485D-01-0.512D-01-0.124D-01 0.514D+00 0.599D+00
 Coeff:     -0.485D-01-0.512D-01-0.124D-01 0.514D+00 0.599D+00
 Gap=     0.262 Goal=   None    Shift=    0.000
 Gap=     0.128 Goal=   None    Shift=    0.000
 RMSDP=3.46D-08 MaxDP=3.89D-07 DE=-1.49D-11 OVMax= 4.77D-07

 Cycle  13  Pass 1  IDiag  1:
 E= -95.6998716598450     Delta-E=       -0.000000000001 Rises=F Damp=F
 DIIS: error= 6.15D-08 at cycle   6 NSaved=   6.
 NSaved= 6 IEnMin= 6 EnMin= -95.6998716598450     IErMin= 6 ErrMin= 6.15D-08
 ErrMax= 6.15D-08  0.00D+00 EMaxC= 1.00D-01 BMatC= 2.74D-13 BMatP= 4.95D-12
 IDIUse=1 WtCom= 1.00D+00 WtEn= 0.00D+00
 Coeff-Com: -0.155D-01-0.175D-01-0.536D-02 0.146D+00 0.253D+00 0.639D+00
 Coeff:     -0.155D-01-0.175D-01-0.536D-02 0.146D+00 0.253D+00 0.639D+00
 Gap=     0.262 Goal=   None    Shift=    0.000
 Gap=     0.128 Goal=   None    Shift=    0.000
 RMSDP=8.98D-09 MaxDP=1.01D-07 DE=-1.36D-12 OVMax= 1.30D-07

 SCF Done:  E(UB-P86) =  -95.6998716598     A.U. after   13 cycles
            NFock= 13  Conv=0.90D-08     -V/T= 2.0060
 <Sx>= 0.0000 <Sy>= 0.0000 <Sz>= 1.0000 <S**2>= 2.0067 S= 1.0022
 <L.S>= 0.000000000000E+00
 KE= 9.512890582147D+01 PE=-2.894330023983D+02 EE= 6.514467998621D+01
 Annihilation of the first spin contaminant:
 S**2 before annihilation     2.0067,   after     2.0000
 Leave Link  502 at Wed Oct  7 13:20:01 2020, MaxMem=  2684354560 cpu:              26.7 elap:               2.8
 (Enter /udrive/faculty/rpeverati/g16/g16/l508.exe)
 QCSCF skips out because SCF is already converged.
 Leave Link  508 at Wed Oct  7 13:20:02 2020, MaxMem=  2684354560 cpu:               0.4 elap:               0.7
 (Enter /udrive/faculty/rpeverati/g16/g16/l601.exe)
 Copying SCF densities to generalized density rwf, IOpCl= 1 IROHF=0.

 **********************************************************************

            Population analysis using the SCF density.

 **********************************************************************

 Orbital symmetries:
 Alpha Orbitals:
       Occupied  (A) (A) (A) (A) (A) (A) (A) (A) (A) (A)
       Virtual   (A) (A) (A) (A) (A) (A) (A) (A) (A) (A) (A) (A)
                 (A) (A) (A) (A) (A) (A) (A) (A) (A) (A) (A) (A)
                 (A) (A) (A) (A)
 Beta  Orbitals:
       Occupied  (A) (A) (A) (A) (A) (A) (A) (A)
       Virtual   (A) (A) (A) (A) (A) (A) (A) (A) (A) (A) (A) (A)
                 (A) (A) (A) (A) (A) (A) (A) (A) (A) (A) (A) (A)
                 (A) (A) (A) (A) (A) (A)
 The electronic state is 3-A.
 Alpha  occ. eigenvalues --  -14.05251  -9.91009  -0.76747  -0.63070  -0.41202
 Alpha  occ. eigenvalues --   -0.37177  -0.37044  -0.30661  -0.26213  -0.19033
 Alpha virt. eigenvalues --    0.07156   0.10341   0.14181   0.14380   0.24500
 Alpha virt. eigenvalues --    0.46345   0.46546   0.50371   0.63572   0.64111
 Alpha virt. eigenvalues --    0.67412   0.78401   0.84320   0.84511   0.85158
 Alpha virt. eigenvalues --    0.89601   1.09445   1.35412   1.56453   1.57139
 Alpha virt. eigenvalues --    1.58757   1.60128   1.60161   1.78246   2.11033
 Alpha virt. eigenvalues --    2.14209   2.16449   2.30864
  Beta  occ. eigenvalues --  -14.02584  -9.90141  -0.70536  -0.60905  -0.38567
  Beta  occ. eigenvalues --   -0.36491  -0.36286  -0.26700
  Beta virt. eigenvalues --   -0.13876  -0.12236   0.08275   0.11370   0.14797
  Beta virt. eigenvalues --    0.14984   0.27066   0.47322   0.48112   0.54793
  Beta virt. eigenvalues --    0.67803   0.69376   0.72224   0.79921   0.85166
  Beta virt. eigenvalues --    0.85236   0.87170   0.91564   1.13369   1.39242
  Beta virt. eigenvalues --    1.60251   1.60970   1.65057   1.66106   1.70286
  Beta virt. eigenvalues --    1.84489   2.14511   2.15706   2.20663   2.35208
          Condensed to atoms (all electrons):
               1          2          3          4          5          6
     1  C    5.462746  -0.102657   0.366220   0.366174   0.370177   0.187376
     2  N   -0.102657   7.220741   0.001053   0.001064   0.000851   0.148678
     3  H    0.366220   0.001053   0.507469  -0.025928  -0.025249  -0.010492
     4  H    0.366174   0.001064  -0.025928   0.508341  -0.025320  -0.010619
     5  H    0.370177   0.000851  -0.025249  -0.025320   0.492087  -0.009433
     6  H    0.187376   0.148678  -0.010492  -0.010619  -0.009433   0.439873
     7  H    0.016032   0.221268  -0.000614  -0.000671   0.000117  -0.040589
               7
     1  C    0.016032
     2  N    0.221268
     3  H   -0.000614
     4  H   -0.000671
     5  H    0.000117
     6  H   -0.040589
     7  H    0.513870
          Atomic-Atomic Spin Densities.
               1          2          3          4          5          6
     1  C    0.749527  -0.113417  -0.013259  -0.013072  -0.016347   0.032145
     2  N   -0.113417   1.694704   0.002602   0.002651   0.003478  -0.039420
     3  H   -0.013259   0.002602  -0.012786   0.002084   0.003109   0.000596
     4  H   -0.013072   0.002651   0.002084  -0.013317   0.003151   0.000613
     5  H   -0.016347   0.003478   0.003109   0.003151  -0.010535   0.000300
     6  H    0.032145  -0.039420   0.000596   0.000613   0.000300  -0.071934
     7  H    0.005259  -0.015201  -0.000211  -0.000216  -0.000133   0.006703
               7
     1  C    0.005259
     2  N   -0.015201
     3  H   -0.000211
     4  H   -0.000216
     5  H   -0.000133
     6  H    0.006703
     7  H   -0.038493
 Mulliken charges and spin densities:
               1          2
     1  C   -0.666068   0.630837
     2  N   -0.490998   1.535399
     3  H    0.187542  -0.017866
     4  H    0.186959  -0.018106
     5  H    0.196770  -0.016976
     6  H    0.295207  -0.070997
     7  H    0.290588  -0.042290
 Sum of Mulliken charges =  -0.00000   2.00000
 Mulliken charges and spin densities with hydrogens summed into heavy atoms:
               1          2
     1  C   -0.094797   0.577889
     2  N    0.094797   1.422111
 Electronic spatial extent (au):  <R**2>=            159.6561
 Charge=              0.0000 electrons
 Dipole moment (field-independent basis, Debye):
    X=             -0.9642    Y=             -1.4179    Z=              0.0005  Tot=              1.7146
 Quadrupole moment (field-independent basis, Debye-Ang):
   XX=            -16.3144   YY=            -13.8438   ZZ=            -14.1885
   XY=             -2.6724   XZ=             -0.0008   YZ=             -0.0021
 Traceless Quadrupole moment (field-independent basis, Debye-Ang):
   XX=             -1.5322   YY=              0.9384   ZZ=              0.5937
   XY=             -2.6724   XZ=             -0.0008   YZ=             -0.0021
 Octapole moment (field-independent basis, Debye-Ang**2):
  XXX=             -0.2385  YYY=             -0.9480  ZZZ=              0.0970  XYY=              0.1705
  XXY=             -4.2125  XXZ=              0.0038  XZZ=             -0.2053  YZZ=             -1.0176
  YYZ=             -0.0972  XYZ=              0.0115
 Hexadecapole moment (field-independent basis, Debye-Ang**3):
 XXXX=           -176.8521 YYYY=            -23.2951 ZZZZ=            -19.7475 XXXY=             -8.9281
 XXXZ=             -0.0052 YYYX=             -4.2494 YYYZ=              0.0037 ZZZX=             -0.1522
 ZZZY=             -0.0061 XXYY=            -29.5947 XXZZ=            -30.1019 YYZZ=             -7.2820
 XXYZ=             -0.0283 YYXZ=              0.1496 ZZXY=              0.5986
 N-N= 3.345954493075D+01 E-N=-2.894330046377D+02  KE= 9.512890582147D+01
                          Isotropic Fermi Contact Couplings
        Atom                 a.u.       MegaHertz       Gauss      10(-4) cm-1
     1  C(13)              0.16530      92.91545      33.15454      30.99326
     2  N(14)              0.16280      26.30078       9.38477       8.77300
     3  H(1)              -0.00521     -11.65295      -4.15806      -3.88701
     4  H(1)              -0.00534     -11.94462      -4.26214      -3.98430
     5  H(1)              -0.00536     -11.97293      -4.27224      -3.99374
     6  H(1)              -0.02887     -64.51982     -23.02228     -21.52150
     7  H(1)              -0.01921     -42.93256     -15.31940     -14.32076
 --------------------------------------------------------
       Center         ----  Spin Dipole Couplings  ----
                      3XX-RR        3YY-RR        3ZZ-RR
 --------------------------------------------------------
     1   Atom        0.677283     -0.340328     -0.336955
     2   Atom        0.088164     -1.582043      1.493879
     3   Atom        0.007858     -0.028009      0.020151
     4   Atom        0.007663     -0.021356      0.013693
     5   Atom        0.010313      0.036693     -0.047006
     6   Atom        0.304893     -0.171827     -0.133066
     7   Atom       -0.096711      0.172849     -0.076139
 --------------------------------------------------------
                        XY            XZ            YZ
 --------------------------------------------------------
     1   Atom        0.053871      0.000968      0.000102
     2   Atom        0.284264      0.001284      0.000024
     3   Atom        0.012027     -0.016034     -0.036585
     4   Atom        0.013178      0.014920      0.040201
     5   Atom       -0.021684      0.001083     -0.003698
     6   Atom        0.001642     -0.000146      0.000032
     7   Atom       -0.058700      0.000029      0.000019
 --------------------------------------------------------


 ---------------------------------------------------------------------------------
              Anisotropic Spin Dipole Couplings in Principal Axis System
 ---------------------------------------------------------------------------------

       Atom             a.u.   MegaHertz   Gauss  10(-4) cm-1        Axes

              Baa    -0.3432   -46.050   -16.432   -15.361 -0.0527  0.9986 -0.0081
     1 C(13)  Bbb    -0.3370   -45.216   -16.134   -15.083 -0.0014  0.0081  1.0000
              Bcc     0.6801    91.267    32.566    30.443  0.9986  0.0527  0.0010
 
              Baa    -1.6291   -62.831   -22.420   -20.958 -0.1633  0.9866  0.0001
     2 N(14)  Bbb     0.1352     5.215     1.861     1.740  0.9866  0.1633 -0.0009
              Bcc     1.4939    57.616    20.559    19.219  0.0009  0.0001  1.0000
 
              Baa    -0.0479   -25.558    -9.120    -8.525 -0.0580  0.8849  0.4621
     3 H(1)   Bbb    -0.0015    -0.777    -0.277    -0.259  0.9001 -0.1538  0.4075
              Bcc     0.0494    26.335     9.397     8.784 -0.4317 -0.4396  0.7876
 
              Baa    -0.0478   -25.528    -9.109    -8.515 -0.0557  0.8420 -0.5366
     4 H(1)   Bbb    -0.0015    -0.804    -0.287    -0.268  0.9021 -0.1879 -0.3885
              Bcc     0.0494    26.332     9.396     8.784  0.4279  0.5057  0.7491
 
              Baa    -0.0472   -25.167    -8.980    -8.395 -0.0024  0.0434  0.9991
     5 H(1)   Bbb    -0.0019    -0.993    -0.354    -0.331  0.8722  0.4887 -0.0191
              Bcc     0.0490    26.161     9.335     8.726 -0.4891  0.8714 -0.0391
 
              Baa    -0.1718   -91.682   -32.714   -30.582 -0.0034  1.0000 -0.0008
     6 H(1)   Bbb    -0.1331   -70.998   -25.334   -23.682  0.0003  0.0008  1.0000
              Bcc     0.3049   162.679    58.048    54.264  1.0000  0.0034 -0.0003
 
              Baa    -0.1089   -58.125   -20.740   -19.388  0.9790  0.2039 -0.0010
     7 H(1)   Bbb    -0.0761   -40.624   -14.496   -13.551  0.0010  0.0002  1.0000
              Bcc     0.1851    98.749    35.236    32.939 -0.2039  0.9790  0.0000
 

 ---------------------------------------------------------------------------------

 No NMR shielding tensors so no spin-rotation constants.
 Leave Link  601 at Wed Oct  7 13:20:04 2020, MaxMem=  2684354560 cpu:               5.4 elap:               0.9
 (Enter /udrive/faculty/rpeverati/g16/g16/l701.exe)
 ... and contract with generalized density number  0.
 Compute integral first derivatives.
 Leave Link  701 at Wed Oct  7 13:20:05 2020, MaxMem=  2684354560 cpu:               3.7 elap:               0.8
 (Enter /udrive/faculty/rpeverati/g16/g16/l702.exe)
 L702 exits ... SP integral derivatives will be done elsewhere.
 Leave Link  702 at Wed Oct  7 13:20:06 2020, MaxMem=  2684354560 cpu:               1.6 elap:               0.5
 (Enter /udrive/faculty/rpeverati/g16/g16/l703.exe)
 Integral derivatives from FoFJK, PRISM(SPDF).
 Compute integral first derivatives, UseDBF=F ICtDFT=           0.
 Calling FoFJK, ICntrl=      2527 FMM=F ISym2X=0 I1Cent= 0 IOpClX= 0 NMat=1 NMatS=1 NMatT=0.
 FoFJK:  IHMeth= 1 ICntrl=    2527 DoSepK=F KAlg= 0 I1Cent=           0 FoldK=F
 IRaf=         0 NMat=       1 IRICut=       1 DoRegI=T DoRafI=F ISym2E= 0 IDoP0=0 IntGTp=1.
 FoFCou: FMM=F IPFlag=           0 FMFlag=      100000 FMFlg1=         800
         NFxFlg=           0 DoJE=F BraDBF=F KetDBF=F FulRan=T
         wScrn=  0.000000 ICntrl=      2527 IOpCl=  0 I1Cent=           0 NGrid=           0
         NMat0=    1 NMatS0=      1 NMatT0=    0 NMatD0=    1 NMtDS0=    0 NMtDT0=    0
 Symmetry not used in FoFCou.
 Leave Link  703 at Wed Oct  7 13:20:07 2020, MaxMem=  2684354560 cpu:               7.5 elap:               1.2
 (Enter /udrive/faculty/rpeverati/g16/g16/l716.exe)
 Dipole        =-3.79335172D-01-5.57836520D-01 2.00390663D-04
 ***** Axes restored to original set *****
 -------------------------------------------------------------------
 Center     Atomic                   Forces (Hartrees/Bohr)
 Number     Number              X              Y              Z
 -------------------------------------------------------------------
      1        6           0.009613482   -0.000491873   -0.000009842
      2        7           0.006655872    0.012611055    0.000015429
      3        1          -0.002908835   -0.004439890    0.008255575
      4        1          -0.002900541   -0.005129374   -0.007855600
      5        1          -0.003340455    0.008921195   -0.000389373
      6        1          -0.010973991    0.003302869   -0.000019732
      7        1           0.003854468   -0.014773983    0.000003543
 -------------------------------------------------------------------
 Cartesian Forces:  Max     0.014773983 RMS     0.006705103
 Leave Link  716 at Wed Oct  7 13:20:08 2020, MaxMem=  2684354560 cpu:               2.0 elap:               0.7
 (Enter /udrive/faculty/rpeverati/g16/g16/l103.exe)

 GradGradGradGradGradGradGradGradGradGradGradGradGradGradGradGradGradGrad
 Berny optimization.
 Optmz: redundant internal coordinate code flag= 1
 FormGI is forming the generalized inverse of G from B-inverse, IUseBI=4.
 Internal  Forces:  Max     0.015206590 RMS     0.005969423
 Search for a saddle point.
 Step number   1 out of a maximum of   50
 All quantities printed in internal units (Hartrees-Bohrs-Radians)
 Swapping is turned off.
 Second derivative matrix not updated -- first step.
 The second derivative matrix:
                          R1        R2        R3        R4        R5
           R1           0.35572
           R2           0.00000   0.35574
           R3           0.00000   0.00000   0.35577
           R4           0.00000   0.00000   0.00000   0.14538
           R5           0.00000   0.00000   0.00000   0.00000   0.23824
           R6           0.00000   0.00000   0.00000   0.00000   0.00000
           A1           0.00000   0.00000   0.00000   0.00000   0.00000
           A2           0.00000   0.00000   0.00000   0.00000   0.00000
           A3           0.00000   0.00000   0.00000   0.00000   0.00000
           A4           0.00000   0.00000   0.00000   0.00000   0.00000
           A5           0.00000   0.00000   0.00000   0.00000   0.00000
           A6           0.00000   0.00000   0.00000   0.00000   0.00000
           A7           0.00000   0.00000   0.00000   0.00000   0.00000
           A8           0.00000   0.00000   0.00000   0.00000   0.00000
           A9           0.00000   0.00000   0.00000   0.00000   0.00000
           D1           0.00000   0.00000   0.00000   0.00000   0.00000
           D2           0.00000   0.00000   0.00000   0.00000   0.00000
           D3           0.00000   0.00000   0.00000   0.00000   0.00000
                          R6        A1        A2        A3        A4
           R6           0.42542
           A1           0.00000   0.16000
           A2           0.00000   0.00000   0.16000
           A3           0.00000   0.00000   0.00000   0.16000
           A4           0.00000   0.00000   0.00000   0.00000   0.16000
           A5           0.00000   0.00000   0.00000   0.00000   0.00000
           A6           0.00000   0.00000   0.00000   0.00000   0.00000
           A7           0.00000   0.00000   0.00000   0.00000   0.00000
           A8           0.00000   0.00000   0.00000   0.00000   0.00000
           A9           0.00000   0.00000   0.00000   0.00000   0.00000
           D1           0.00000   0.00000   0.00000   0.00000   0.00000
           D2           0.00000   0.00000   0.00000   0.00000   0.00000
           D3           0.00000   0.00000   0.00000   0.00000   0.00000
                          A5        A6        A7        A8        A9
           A5           0.16000
           A6           0.00000   0.16000
           A7           0.00000   0.00000   0.16000
           A8           0.00000   0.00000   0.00000   0.00230
           A9           0.00000   0.00000   0.00000   0.00000   0.00230
           D1           0.00000   0.00000   0.00000   0.00000   0.00000
           D2           0.00000   0.00000   0.00000   0.00000   0.00000
           D3           0.00000   0.00000   0.00000   0.00000   0.00000
                          D1        D2        D3
           D1           0.00230
           D2           0.00000   0.00230
           D3           0.00000   0.00000   0.00230
 ITU=  0
 Eigenvectors of the second derivative matrix:
                           1         2         3         4         5
     Eigenvalues --     0.00230   0.00230   0.00230   0.10985   0.10997
   1         R1         0.00000   0.00000   0.00000   0.00000  -0.00000
   2         R2        -0.00000  -0.00000   0.00000  -0.00000  -0.00000
   3         R3        -0.00000  -0.00000   0.00000   0.00000   0.00000
   4         R4        -0.00000  -0.00000  -0.00000  -0.00050  -0.00452
   5         R5         0.00000   0.00000  -0.00000   0.00014   0.00144
   6         R6         0.00000   0.00000  -0.00000   0.00001  -0.00000
   7         A1        -0.00000  -0.00000  -0.00000  -0.02958  -0.62902
   8         A2        -0.00000   0.00000   0.00000   0.55882   0.29210
   9         A3         0.00000   0.00000   0.00000   0.20500  -0.12154
  10         A4        -0.00000   0.00000   0.00000  -0.52953   0.34380
  11         A5        -0.00000   0.00000  -0.00000  -0.21505  -0.10280
  12         A6         0.00000  -0.00000   0.00000   0.01253   0.24131
  13         A7        -0.00000  -0.00000  -0.00000  -0.00014   0.00001
  14         A8        -0.00537  -0.00225  -0.99081   0.00736   0.07576
  15         A9        -0.98062   0.17215   0.00504   0.05248  -0.00460
  16         D1         0.06345   0.57175  -0.09981  -0.24997  -0.38309
  17         D2         0.05913   0.57251   0.09108  -0.21301   0.40527
  18         D3         0.17561   0.56186   0.00324   0.45536  -0.02141
                           6         7         8         9        10
     Eigenvalues --     0.14538   0.16000   0.16000   0.16000   0.16000
   1         R1         0.00000  -0.00000   0.00000  -0.00000   0.00000
   2         R2        -0.00000   0.00000  -0.00000  -0.00000  -0.00000
   3         R3         0.00000  -0.00000  -0.00000   0.00000   0.00000
   4         R4        -0.99999   0.00000  -0.00000   0.00000   0.00000
   5         R5        -0.00000  -0.00000  -0.00000  -0.00000   0.00000
   6         R6        -0.00000   0.00000  -0.00000  -0.00000   0.00000
   7         A1         0.00380   0.35529  -0.01153   0.24663  -0.11291
   8         A2        -0.00213   0.18215   0.36527   0.14681   0.14700
   9         A3         0.00059  -0.50964  -0.58185  -0.19486   0.39697
  10         A4        -0.00171   0.15538  -0.09586   0.25042   0.33446
  11         A5         0.00076  -0.44207   0.61074  -0.46527  -0.09374
  12         A6        -0.00146   0.03921  -0.36852  -0.18792  -0.78879
  13         A7         0.00000   0.59979  -0.09944  -0.75176   0.25537
  14         A8        -0.00010  -0.00000   0.00000   0.00000   0.00000
  15         A9        -0.00000  -0.00000  -0.00000  -0.00000  -0.00000
  16         D1         0.00054   0.00000   0.00000  -0.00000   0.00000
  17         D2        -0.00050   0.00000  -0.00000  -0.00000  -0.00000
  18         D3        -0.00004   0.00000  -0.00000   0.00000  -0.00000
                          11        12        13        14        15
     Eigenvalues --     0.23824   0.35572   0.35574   0.35577   0.42542
   1         R1         0.00000  -1.00000   0.00000   0.00000   0.00000
   2         R2         0.00000  -0.00000  -1.00000  -0.00000   0.00000
   3         R3        -0.00000   0.00000  -0.00000   1.00000   0.00000
   4         R4        -0.00001   0.00000   0.00000   0.00000   0.00000
   5         R5        -1.00000  -0.00000  -0.00000  -0.00000  -0.00000
   6         R6        -0.00000   0.00000   0.00000  -0.00000   1.00000
   7         A1        -0.00199   0.00000   0.00000   0.00000  -0.00000
   8         A2         0.00109   0.00000  -0.00000  -0.00000  -0.00002
   9         A3        -0.00032   0.00000   0.00000  -0.00000  -0.00001
  10         A4         0.00092  -0.00000  -0.00000   0.00000   0.00002
  11         A5        -0.00039   0.00000  -0.00000   0.00000   0.00001
  12         A6         0.00076  -0.00000   0.00000  -0.00000   0.00000
  13         A7        -0.00000   0.00000   0.00000   0.00000   0.00000
  14         A8        -0.00017  -0.00000  -0.00000  -0.00000   0.00000
  15         A9        -0.00000   0.00000   0.00000   0.00000   0.00000
  16         D1         0.00092   0.00000   0.00000   0.00000  -0.00001
  17         D2        -0.00086  -0.00000   0.00000  -0.00000  -0.00001
  18         D3        -0.00005   0.00000  -0.00000  -0.00000   0.00002
 Eigenvalue     1 is   2.30D-03 should be less than     0.000000 Eigenvector:
                          A9        D3        D1        D2        A8
   1                   -0.98062   0.17561   0.06345   0.05913  -0.00537
                          A3        A6        A4        A2        A7
   1                    0.00000   0.00000  -0.00000  -0.00000  -0.00000
 RLam0= 2.30D-03.
 Iter=   1 RLamda= 0.00000000D+00 Sum=-4.20753021D-03.
 Iter=   2 RLamda=-4.20753021D-03 Sum=-2.67724251D-03.
 Iter=   3 RLamda=-2.67724251D-03 Sum=-2.93918387D-03.
 Iter=   4 RLamda=-2.93918387D-03 Sum=-2.88385472D-03.
 Iter=   5 RLamda=-2.88385472D-03 Sum=-2.89508859D-03.
 Iter=   6 RLamda=-2.89508859D-03 Sum=-2.89278888D-03.
 Iter=   7 RLamda=-2.89278888D-03 Sum=-2.89325887D-03.
 Iter=   8 RLamda=-2.89325887D-03 Sum=-2.89316279D-03.
 Iter=   9 RLamda=-2.89316279D-03 Sum=-2.89318243D-03.
 Iter=  10 RLamda=-2.89318243D-03 Sum=-2.89317841D-03.
 RFO step:  Lambda0=2.300485054D-03 Lambda=-2.89318243D-03.
 Linear search not attempted -- option 19 set.
 Maximum step size (   0.100) exceeded in Quadratic search.
    -- Step size scaled by   0.159
 Iteration  1 RMS(Cart)=  0.03553365 RMS(Int)=  0.00156110
 Iteration  2 RMS(Cart)=  0.00178441 RMS(Int)=  0.00022137
 Iteration  3 RMS(Cart)=  0.00000334 RMS(Int)=  0.00022135
 Iteration  4 RMS(Cart)=  0.00000000 RMS(Int)=  0.00022135
 ITry= 1 IFail=0 DXMaxC= 7.68D-02 DCOld= 1.00D+10 DXMaxT= 1.00D-01 DXLimC= 3.00D+00 Rises=F
 Variable       Old X    -DE/DX   Delta X   Delta X   Delta X     New X
                                 (Linear)    (Quad)   (Total)
    R1        2.04757   0.00978   0.00000   0.00432   0.00432   2.05189
    R2        2.04753   0.00978   0.00000   0.00432   0.00432   2.05186
    R3        2.04748   0.00952   0.00000   0.00421   0.00421   2.05169
    R4        2.63682  -0.00035   0.00000  -0.00037  -0.00037   2.63645
    R5        2.28996   0.01050   0.00000   0.00691   0.00691   2.29686
    R6        1.94939   0.01521   0.00000   0.00563   0.00563   1.95502
    A1        1.99899  -0.00063   0.00000  -0.00050  -0.00060   1.99839
    A2        2.00015  -0.00085   0.00000  -0.00089  -0.00118   1.99897
    A3        1.82733   0.00124   0.00000   0.00122   0.00107   1.82839
    A4        2.00011  -0.00085   0.00000  -0.00088  -0.00048   1.99963
    A5        1.82961   0.00135   0.00000   0.00133   0.00145   1.83106
    A6        1.77230   0.00048   0.00000   0.00042   0.00044   1.77274
    A7        1.73353   0.00268   0.00000   0.00260   0.00261   1.73614
    A8        3.04496  -0.00232   0.00000  -0.07043  -0.07044   2.97452
    A9        3.13927   0.00004   0.00000  -0.06993  -0.06985   3.06942
    D1        1.08834  -0.00006   0.00000  -0.00224  -0.00241   1.08593
    D2       -1.00215   0.00005   0.00000   0.01047   0.01002  -0.99213
    D3       -3.09797  -0.00001   0.00000   0.01281   0.01342  -3.08456
         Item               Value     Threshold  Converged?
 Maximum Force            0.015207     0.000450     NO 
 RMS     Force            0.005969     0.000300     NO 
 Maximum Displacement     0.076798     0.001800     NO 
 RMS     Displacement     0.035981     0.001200     NO 
 Predicted change in Energy=-4.213822D-04
 Lowest energy point so far.  Saving SCF results.
 Largest change from initial coordinates is atom    6       0.041 Angstoms.
 GradGradGradGradGradGradGradGradGradGradGradGradGradGradGradGradGradGrad

 Leave Link  103 at Wed Oct  7 13:20:09 2020, MaxMem=  2684354560 cpu:               4.8 elap:               0.9
 (Enter /udrive/faculty/rpeverati/g16/g16/l202.exe)
                          Input orientation:                          
 ---------------------------------------------------------------------
 Center     Atomic      Atomic             Coordinates (Angstroms)
 Number     Number       Type             X           Y           Z
 ---------------------------------------------------------------------
      1          6           0       -1.192098   -0.009079    0.002917
      2          7           0        1.405448    0.120444   -0.011805
      3          1           0       -1.423896   -0.514297    0.935662
      4          1           0       -1.381850   -0.599634   -0.888256
      5          1           0       -1.541640    1.017311   -0.052781
      6          1           0        0.191587    0.167536    0.028690
      7          1           0        1.536046   -0.905826   -0.014366
 ---------------------------------------------------------------------
                    Distance matrix (angstroms):
                    1          2          3          4          5
     1  C    0.000000
     2  N    2.600815   0.000000
     3  H    1.085812   3.050537   0.000000
     4  H    1.085796   3.009271   1.826397   0.000000
     5  H    1.085706   3.080808   1.826665   1.827036   0.000000
     6  H    1.395149   1.215449   1.974152   1.976119   1.932054
     7  H    2.871798   1.034550   3.133226   3.061300   3.629337
                    6          7
     6  H    0.000000
     7  H    1.720909   0.000000
 Stoichiometry    CH5N(3)
 Framework group  C1[X(CH5N)]
 Deg. of freedom    15
 Full point group                 C1      NOp   1
 RotChk:  IX=3 Diff= 1.24D-02
 Largest Abelian subgroup         C1      NOp   1
 Largest concise Abelian subgroup C1      NOp   1
                         Standard orientation:                         
 ---------------------------------------------------------------------
 Center     Atomic      Atomic             Coordinates (Angstroms)
 Number     Number       Type             X           Y           Z
 ---------------------------------------------------------------------
      1          6           0       -1.195731   -0.011417   -0.001100
      2          7           0        1.401303    0.128760   -0.000877
      3          1           0       -1.431063   -0.513058    0.932689
      4          1           0       -1.377695   -0.607067   -0.890506
      5          1           0       -1.549138    1.013238   -0.063897
      6          1           0        0.187038    0.171034    0.032108
      7          1           0        1.536122   -0.896963    0.002348
 ---------------------------------------------------------------------
 Rotational constants (GHZ):         115.5720962           9.1962019           9.0301351
 Leave Link  202 at Wed Oct  7 13:20:10 2020, MaxMem=  2684354560 cpu:               1.2 elap:               0.5
 (Enter /udrive/faculty/rpeverati/g16/g16/l301.exe)
 Standard basis: 6-31G(d) (5D, 7F)
 Ernie: Thresh=  0.10000D-02 Tol=  0.10000D-05 Strict=F.
 There are    40 symmetry adapted cartesian basis functions of A   symmetry.
 There are    38 symmetry adapted basis functions of A   symmetry.
    38 basis functions,    76 primitive gaussians,    40 cartesian basis functions
    10 alpha electrons        8 beta electrons
       nuclear repulsion energy        33.4493211329 Hartrees.
 IExCor=  404 DFT=T Ex=B Corr=P86 ExCW=0 ScaHFX=  0.000000
 ScaDFX=  1.000000  1.000000  1.000000  1.000000 ScalE2=  1.000000  1.000000
 IRadAn=      5 IRanWt=     -1 IRanGd=            0 ICorTp=0 IEmpDi=  4
 NAtoms=    7 NActive=    7 NUniq=    7 SFac= 1.00D+00 NAtFMM=   60 NAOKFM=F Big=F
 Integral buffers will be    131072 words long.
 Raffenetti 2 integral format.
 Two-electron integral symmetry is turned on.
 Leave Link  301 at Wed Oct  7 13:20:12 2020, MaxMem=  2684354560 cpu:               2.9 elap:               0.8
 (Enter /udrive/faculty/rpeverati/g16/g16/l302.exe)
 NPDir=0 NMtPBC=     1 NCelOv=     1 NCel=       1 NClECP=     1 NCelD=      1
         NCelK=      1 NCelE2=     1 NClLst=     1 CellRange=     0.0.
 One-electron integrals computed using PRISM.
 One-electron integral symmetry used in STVInt
 NBasis=    38 RedAO= T EigKep=  9.65D-03  NBF=    38
 NBsUse=    38 1.00D-06 EigRej= -1.00D+00 NBFU=    38
 Precomputing XC quadrature grid using
 IXCGrd= 4 IRadAn=           5 IRanWt=          -1 IRanGd=           0 AccXCQ= 0.00D+00.
 Generated NRdTot=       0 NPtTot=           0 NUsed=           0 NTot=          32
 NSgBfM=    40    40    40    40    40 MxSgAt=     7 MxSgA2=     7.
 Leave Link  302 at Wed Oct  7 13:20:13 2020, MaxMem=  2684354560 cpu:               3.9 elap:               0.9
 (Enter /udrive/faculty/rpeverati/g16/g16/l303.exe)
 DipDrv:  MaxL=1.
 Leave Link  303 at Wed Oct  7 13:20:14 2020, MaxMem=  2684354560 cpu:               2.5 elap:               0.7
 (Enter /udrive/faculty/rpeverati/g16/g16/l401.exe)
 Initial guess from the checkpoint file:  "MN_92_RKT18_BH76_BP86_631Gs.chk"
 SCF N**3 symmetry information disabled.
 B after Tr=    -0.000000   -0.000000    0.000000
         Rot=    0.999993    0.003541    0.001224   -0.000650 Ang=   0.44 deg.
 Guess basis will be translated and rotated to current coordinates.
 JPrj=2 DoOrth=T DoCkMO=T.
 Initial guess <Sx>= 0.0000 <Sy>= 0.0000 <Sz>= 1.0000 <S**2>= 2.0067 S= 1.0022
 Generating alternative initial guess.
 ExpMin= 1.61D-01 ExpMax= 4.17D+03 ExpMxC= 6.27D+02 IAcc=2 IRadAn=         4 AccDes= 0.00D+00
 Harris functional with IExCor=  404 and IRadAn=       4 diagonalized for initial guess.
 HarFok:  IExCor=  404 AccDes= 0.00D+00 IRadAn=         4 IDoV= 1 UseB2=F ITyADJ=14
 ICtDFT=  3500011 ScaDFX=  1.000000  1.000000  1.000000  1.000000
 FoFCou: FMM=F IPFlag=           0 FMFlag=      100000 FMFlg1=           0
         NFxFlg=           0 DoJE=T BraDBF=F KetDBF=T FulRan=T
         wScrn=  0.000000 ICntrl=       500 IOpCl=  0 I1Cent=   200000004 NGrid=           0
         NMat0=    1 NMatS0=      1 NMatT0=    0 NMatD0=    1 NMtDS0=    0 NMtDT0=    0
 Petite list used in FoFCou.
 Harris En= -95.6978543691727    
 Leave Link  401 at Wed Oct  7 13:20:16 2020, MaxMem=  2684354560 cpu:              12.5 elap:               1.5
 (Enter /udrive/faculty/rpeverati/g16/g16/l502.exe)
 Keep J ints in memory in canonical form, NReq=10631630.
 FoFCou: FMM=F IPFlag=           0 FMFlag=           0 FMFlg1=           0
         NFxFlg=           0 DoJE=F BraDBF=F KetDBF=F FulRan=T
         wScrn=  0.000000 ICntrl=       600 IOpCl=  0 I1Cent=           0 NGrid=           0
         NMat0=    1 NMatS0=    741 NMatT0=    0 NMatD0=    1 NMtDS0=    0 NMtDT0=    0
 Symmetry not used in FoFCou.
 Two-electron integral symmetry not used.
 UHF open shell SCF:
 Using DIIS extrapolation, IDIIS=  1040.
 NGot=  2684354560 LenX=  2684075284 LenY=  2684073243
 Requested convergence on RMS density matrix=1.00D-08 within 120 cycles.
 Requested convergence on MAX density matrix=1.00D-06.
 Requested convergence on             energy=1.00D-06.
 No special actions if energy rises.
 Integral accuracy reduced to 1.0D-05 until final iterations.

 Cycle   1  Pass 0  IDiag  1:
 E= -95.6995809861486    
 DIIS: error= 2.78D-03 at cycle   1 NSaved=   1.
 NSaved= 1 IEnMin= 1 EnMin= -95.6995809861486     IErMin= 1 ErrMin= 2.78D-03
 ErrMax= 2.78D-03  0.00D+00 EMaxC= 1.00D-01 BMatC= 1.17D-03 BMatP= 1.17D-03
 IDIUse=3 WtCom= 9.72D-01 WtEn= 2.78D-02
 Coeff-Com:  0.100D+01
 Coeff-En:   0.100D+01
 Coeff:      0.100D+01
 Gap=     0.427 Goal=   None    Shift=    0.000
 Gap=     0.542 Goal=   None    Shift=    0.000
 GapD=    0.427 DampG=2.000 DampE=1.000 DampFc=2.0000 IDamp=-1.
 RMSDP=1.16D-03 MaxDP=1.00D-02              OVMax= 1.36D-02

 Cycle   2  Pass 0  IDiag  1:
 E= -95.7001805971804     Delta-E=       -0.000599611032 Rises=F Damp=F
 DIIS: error= 3.02D-04 at cycle   2 NSaved=   2.
 NSaved= 2 IEnMin= 2 EnMin= -95.7001805971804     IErMin= 2 ErrMin= 3.02D-04
 ErrMax= 3.02D-04  0.00D+00 EMaxC= 1.00D-01 BMatC= 1.58D-05 BMatP= 1.17D-03
 IDIUse=3 WtCom= 9.97D-01 WtEn= 3.02D-03
 Coeff-Com:  0.500D-02 0.995D+00
 Coeff-En:   0.000D+00 0.100D+01
 Coeff:      0.498D-02 0.995D+00
 Gap=     0.260 Goal=   None    Shift=    0.000
 Gap=     0.129 Goal=   None    Shift=    0.000
 RMSDP=1.14D-04 MaxDP=1.16D-03 DE=-6.00D-04 OVMax= 1.43D-03

 Cycle   3  Pass 0  IDiag  1:
 E= -95.7001822519962     Delta-E=       -0.000001654816 Rises=F Damp=F
 DIIS: error= 3.90D-04 at cycle   3 NSaved=   3.
 NSaved= 3 IEnMin= 3 EnMin= -95.7001822519962     IErMin= 2 ErrMin= 3.02D-04
 ErrMax= 3.90D-04  0.00D+00 EMaxC= 1.00D-01 BMatC= 1.39D-05 BMatP= 1.58D-05
 IDIUse=3 WtCom= 9.96D-01 WtEn= 3.90D-03
 Coeff-Com: -0.484D-02 0.484D+00 0.521D+00
 Coeff-En:   0.000D+00 0.369D+00 0.631D+00
 Coeff:     -0.482D-02 0.484D+00 0.521D+00
 Gap=     0.260 Goal=   None    Shift=    0.000
 Gap=     0.129 Goal=   None    Shift=    0.000
 RMSDP=5.71D-05 MaxDP=6.48D-04 DE=-1.65D-06 OVMax= 9.30D-04

 Cycle   4  Pass 0  IDiag  1:
 E= -95.7001860117379     Delta-E=       -0.000003759742 Rises=F Damp=F
 DIIS: error= 1.04D-04 at cycle   4 NSaved=   4.
 NSaved= 4 IEnMin= 4 EnMin= -95.7001860117379     IErMin= 4 ErrMin= 1.04D-04
 ErrMax= 1.04D-04  0.00D+00 EMaxC= 1.00D-01 BMatC= 8.07D-07 BMatP= 1.39D-05
 IDIUse=3 WtCom= 9.99D-01 WtEn= 1.04D-03
 Coeff-Com: -0.856D-03 0.109D-01 0.171D+00 0.819D+00
 Coeff-En:   0.000D+00 0.000D+00 0.000D+00 0.100D+01
 Coeff:     -0.855D-03 0.109D-01 0.170D+00 0.820D+00
 Gap=     0.260 Goal=   None    Shift=    0.000
 Gap=     0.129 Goal=   None    Shift=    0.000
 RMSDP=2.14D-05 MaxDP=2.21D-04 DE=-3.76D-06 OVMax= 5.48D-04

 Cycle   5  Pass 0  IDiag  1:
 E= -95.7001860352672     Delta-E=       -0.000000023529 Rises=F Damp=F
 DIIS: error= 1.13D-04 at cycle   5 NSaved=   5.
 NSaved= 5 IEnMin= 5 EnMin= -95.7001860352672     IErMin= 4 ErrMin= 1.04D-04
 ErrMax= 1.13D-04  0.00D+00 EMaxC= 1.00D-01 BMatC= 8.06D-07 BMatP= 8.07D-07
 IDIUse=3 WtCom= 9.99D-01 WtEn= 1.13D-03
 Coeff-Com: -0.266D-03-0.486D-01 0.631D-01 0.598D+00 0.388D+00
 Coeff-En:   0.000D+00 0.000D+00 0.000D+00 0.477D+00 0.523D+00
 Coeff:     -0.266D-03-0.486D-01 0.631D-01 0.597D+00 0.388D+00
 Gap=     0.260 Goal=   None    Shift=    0.000
 Gap=     0.129 Goal=   None    Shift=    0.000
 RMSDP=1.36D-05 MaxDP=1.42D-04 DE=-2.35D-08 OVMax= 3.95D-04

 Cycle   6  Pass 0  IDiag  1:
 E= -95.7001862605376     Delta-E=       -0.000000225270 Rises=F Damp=F
 DIIS: error= 1.13D-05 at cycle   6 NSaved=   6.
 NSaved= 6 IEnMin= 6 EnMin= -95.7001862605376     IErMin= 6 ErrMin= 1.13D-05
 ErrMax= 1.13D-05  0.00D+00 EMaxC= 1.00D-01 BMatC= 1.97D-08 BMatP= 8.06D-07
 IDIUse=1 WtCom= 1.00D+00 WtEn= 0.00D+00
 Coeff-Com: -0.501D-04-0.294D-01 0.941D-02 0.215D+00 0.186D+00 0.620D+00
 Coeff:     -0.501D-04-0.294D-01 0.941D-02 0.215D+00 0.186D+00 0.620D+00
 Gap=     0.260 Goal=   None    Shift=    0.000
 Gap=     0.129 Goal=   None    Shift=    0.000
 RMSDP=2.09D-06 MaxDP=2.39D-05 DE=-2.25D-07 OVMax= 6.29D-05

 Initial convergence to 1.0D-05 achieved.  Increase integral accuracy.
 Cycle   7  Pass 1  IDiag  1:
 E= -95.7001852552097     Delta-E=        0.000001005328 Rises=F Damp=F
 DIIS: error= 2.19D-06 at cycle   1 NSaved=   1.
 NSaved= 1 IEnMin= 1 EnMin= -95.7001852552097     IErMin= 1 ErrMin= 2.19D-06
 ErrMax= 2.19D-06  0.00D+00 EMaxC= 1.00D-01 BMatC= 4.31D-10 BMatP= 4.31D-10
 IDIUse=1 WtCom= 1.00D+00 WtEn= 0.00D+00
 Coeff-Com:  0.100D+01
 Coeff:      0.100D+01
 Gap=     0.260 Goal=   None    Shift=    0.000
 Gap=     0.129 Goal=   None    Shift=    0.000
 RMSDP=2.09D-06 MaxDP=2.39D-05 DE= 1.01D-06 OVMax= 2.49D-05

 Cycle   8  Pass 1  IDiag  1:
 E= -95.7001852549653     Delta-E=        0.000000000244 Rises=F Damp=F
 DIIS: error= 4.06D-06 at cycle   2 NSaved=   2.
 NSaved= 2 IEnMin= 1 EnMin= -95.7001852552097     IErMin= 1 ErrMin= 2.19D-06
 ErrMax= 4.06D-06  0.00D+00 EMaxC= 1.00D-01 BMatC= 1.31D-09 BMatP= 4.31D-10
 IDIUse=1 WtCom= 1.00D+00 WtEn= 0.00D+00
 Coeff-Com:  0.648D+00 0.352D+00
 Coeff:      0.648D+00 0.352D+00
 Gap=     0.260 Goal=   None    Shift=    0.000
 Gap=     0.129 Goal=   None    Shift=    0.000
 RMSDP=5.69D-07 MaxDP=6.92D-06 DE= 2.44D-10 OVMax= 1.86D-05

 Cycle   9  Pass 1  IDiag  1:
 E= -95.7001852553359     Delta-E=       -0.000000000371 Rises=F Damp=F
 DIIS: error= 8.17D-07 at cycle   3 NSaved=   3.
 NSaved= 3 IEnMin= 3 EnMin= -95.7001852553359     IErMin= 3 ErrMin= 8.17D-07
 ErrMax= 8.17D-07  0.00D+00 EMaxC= 1.00D-01 BMatC= 5.24D-11 BMatP= 4.31D-10
 IDIUse=1 WtCom= 1.00D+00 WtEn= 0.00D+00
 Coeff-Com:  0.192D+00 0.190D+00 0.618D+00
 Coeff:      0.192D+00 0.190D+00 0.618D+00
 Gap=     0.260 Goal=   None    Shift=    0.000
 Gap=     0.129 Goal=   None    Shift=    0.000
 RMSDP=1.10D-07 MaxDP=1.23D-06 DE=-3.71D-10 OVMax= 2.05D-06

 Cycle  10  Pass 1  IDiag  1:
 E= -95.7001852553500     Delta-E=       -0.000000000014 Rises=F Damp=F
 DIIS: error= 1.50D-07 at cycle   4 NSaved=   4.
 NSaved= 4 IEnMin= 4 EnMin= -95.7001852553500     IErMin= 4 ErrMin= 1.50D-07
 ErrMax= 1.50D-07  0.00D+00 EMaxC= 1.00D-01 BMatC= 2.20D-12 BMatP= 5.24D-11
 IDIUse=1 WtCom= 1.00D+00 WtEn= 0.00D+00
 Coeff-Com: -0.249D-01 0.224D-01 0.182D+00 0.820D+00
 Coeff:     -0.249D-01 0.224D-01 0.182D+00 0.820D+00
 Gap=     0.260 Goal=   None    Shift=    0.000
 Gap=     0.129 Goal=   None    Shift=    0.000
 RMSDP=2.37D-08 MaxDP=2.97D-07 DE=-1.41D-11 OVMax= 3.75D-07

 Cycle  11  Pass 1  IDiag  1:
 E= -95.7001852553510     Delta-E=       -0.000000000001 Rises=F Damp=F
 DIIS: error= 7.51D-08 at cycle   5 NSaved=   5.
 NSaved= 5 IEnMin= 5 EnMin= -95.7001852553510     IErMin= 5 ErrMin= 7.51D-08
 ErrMax= 7.51D-08  0.00D+00 EMaxC= 1.00D-01 BMatC= 3.69D-13 BMatP= 2.20D-12
 IDIUse=1 WtCom= 1.00D+00 WtEn= 0.00D+00
 Coeff-Com: -0.273D-01-0.257D-02 0.297D-01 0.357D+00 0.643D+00
 Coeff:     -0.273D-01-0.257D-02 0.297D-01 0.357D+00 0.643D+00
 Gap=     0.260 Goal=   None    Shift=    0.000
 Gap=     0.129 Goal=   None    Shift=    0.000
 RMSDP=1.07D-08 MaxDP=1.30D-07 DE=-1.02D-12 OVMax= 1.60D-07

 Cycle  12  Pass 1  IDiag  1:
 E= -95.7001852553510     Delta-E=        0.000000000000 Rises=F Damp=F
 DIIS: error= 1.79D-08 at cycle   6 NSaved=   6.
 NSaved= 6 IEnMin= 5 EnMin= -95.7001852553510     IErMin= 6 ErrMin= 1.79D-08
 ErrMax= 1.79D-08  0.00D+00 EMaxC= 1.00D-01 BMatC= 2.95D-14 BMatP= 3.69D-13
 IDIUse=1 WtCom= 1.00D+00 WtEn= 0.00D+00
 Coeff-Com: -0.536D-02-0.389D-02-0.190D-01-0.216D-01 0.217D+00 0.833D+00
 Coeff:     -0.536D-02-0.389D-02-0.190D-01-0.216D-01 0.217D+00 0.833D+00
 Gap=     0.260 Goal=   None    Shift=    0.000
 Gap=     0.129 Goal=   None    Shift=    0.000
 RMSDP=3.88D-09 MaxDP=3.38D-08 DE= 0.00D+00 OVMax= 6.33D-08

 SCF Done:  E(UB-P86) =  -95.7001852554     A.U. after   12 cycles
            NFock= 12  Conv=0.39D-08     -V/T= 2.0062
 <Sx>= 0.0000 <Sy>= 0.0000 <Sz>= 1.0000 <S**2>= 2.0067 S= 1.0022
 <L.S>= 0.000000000000E+00
 KE= 9.511176304516D+01 PE=-2.893986577158D+02 EE= 6.513738828243D+01
 Annihilation of the first spin contaminant:
 S**2 before annihilation     2.0067,   after     2.0000
 Leave Link  502 at Wed Oct  7 13:20:19 2020, MaxMem=  2684354560 cpu:              26.5 elap:               2.9
 (Enter /udrive/faculty/rpeverati/g16/g16/l508.exe)
 QCSCF skips out because SCF is already converged.
 Leave Link  508 at Wed Oct  7 13:20:20 2020, MaxMem=  2684354560 cpu:               0.4 elap:               0.7
 (Enter /udrive/faculty/rpeverati/g16/g16/l701.exe)
 ... and contract with generalized density number  0.
 Compute integral first derivatives.
 Leave Link  701 at Wed Oct  7 13:20:22 2020, MaxMem=  2684354560 cpu:               3.9 elap:               1.0
 (Enter /udrive/faculty/rpeverati/g16/g16/l702.exe)
 L702 exits ... SP integral derivatives will be done elsewhere.
 Leave Link  702 at Wed Oct  7 13:20:23 2020, MaxMem=  2684354560 cpu:               2.0 elap:               0.7
 (Enter /udrive/faculty/rpeverati/g16/g16/l703.exe)
 Integral derivatives from FoFJK, PRISM(SPDF).
 Compute integral first derivatives, UseDBF=F ICtDFT=           0.
 Calling FoFJK, ICntrl=      2527 FMM=F ISym2X=0 I1Cent= 0 IOpClX= 0 NMat=1 NMatS=1 NMatT=0.
 FoFJK:  IHMeth= 1 ICntrl=    2527 DoSepK=F KAlg= 0 I1Cent=           0 FoldK=F
 IRaf=         0 NMat=       1 IRICut=       1 DoRegI=T DoRafI=F ISym2E= 0 IDoP0=0 IntGTp=1.
 FoFCou: FMM=F IPFlag=           0 FMFlag=      100000 FMFlg1=         800
         NFxFlg=           0 DoJE=F BraDBF=F KetDBF=F FulRan=T
         wScrn=  0.000000 ICntrl=      2527 IOpCl=  0 I1Cent=           0 NGrid=           0
         NMat0=    1 NMatS0=      1 NMatT0=    0 NMatD0=    1 NMtDS0=    0 NMtDT0=    0
 Symmetry not used in FoFCou.
 Leave Link  703 at Wed Oct  7 13:20:24 2020, MaxMem=  2684354560 cpu:               9.2 elap:               1.3
 (Enter /udrive/faculty/rpeverati/g16/g16/l716.exe)
 Dipole        =-3.87320656D-01-5.47458854D-01 8.92406696D-03
 ***** Axes restored to original set *****
 -------------------------------------------------------------------
 Center     Atomic                   Forces (Hartrees/Bohr)
 Number     Number              X              Y              Z
 -------------------------------------------------------------------
      1        6           0.009230678    0.000633330    0.001034780
      2        7           0.007118326    0.010951670    0.000664596
      3        1          -0.002750320   -0.003803890    0.006820138
      4        1          -0.002276786   -0.004284595   -0.006533318
      5        1          -0.003342630    0.007399758   -0.000499367
      6        1          -0.010746103    0.001474813   -0.001276972
      7        1           0.002766834   -0.012371086   -0.000209855
 -------------------------------------------------------------------
 Cartesian Forces:  Max     0.012371086 RMS     0.005930988
 Leave Link  716 at Wed Oct  7 13:20:25 2020, MaxMem=  2684354560 cpu:               2.1 elap:               0.6
 (Enter /udrive/faculty/rpeverati/g16/g16/l103.exe)

 GradGradGradGradGradGradGradGradGradGradGradGradGradGradGradGradGradGrad
 Berny optimization.
 Optmz: redundant internal coordinate code flag= 1
 Red2BG:  D1=  1.28D-01 OD1=  1.26D-01 B2RMS=  0.00D+00 IAprox=0
 FormGI is forming the generalized inverse of G from B-inverse, IUseBI=4.
 Internal  Forces:  Max     0.012602737 RMS     0.005112315
 Search for a saddle point.
 Step number   2 out of a maximum of   50
 All quantities printed in internal units (Hartrees-Bohrs-Radians)
 Swapping is turned off.
 Update second derivatives using D2CorX and points    1    2
 The second derivative matrix:
                          R1        R2        R3        R4        R5
           R1           0.35571
           R2           0.00002   0.35583
           R3          -0.00003  -0.00003   0.35575
           R4           0.00013   0.00032  -0.00002   0.14622
           R5          -0.00027  -0.00059  -0.00001  -0.00145   0.24067
           R6           0.00003   0.00013  -0.00004   0.00044  -0.00081
           A1           0.00006   0.00015  -0.00001   0.00039  -0.00066
           A2           0.00005   0.00011   0.00000   0.00026  -0.00044
           A3          -0.00010  -0.00023   0.00001  -0.00059   0.00100
           A4           0.00005   0.00013  -0.00000   0.00032  -0.00055
           A5          -0.00000   0.00001  -0.00001   0.00004  -0.00008
           A6          -0.00011  -0.00028   0.00001  -0.00072   0.00124
           A7          -0.00003  -0.00005  -0.00001  -0.00010   0.00014
           A8          -0.00031  -0.00139   0.00054  -0.00490   0.00906
           A9          -0.00005  -0.00076   0.00050  -0.00321   0.00615
           D1          -0.00000  -0.00003   0.00002  -0.00012   0.00023
           D2          -0.00001   0.00007  -0.00007   0.00035  -0.00069
           D3          -0.00005  -0.00001  -0.00009   0.00019  -0.00045
                          R6        A1        A2        A3        A4
           R6           0.42560
           A1           0.00021   0.16018
           A2           0.00015   0.00012   0.16008
           A3          -0.00031  -0.00027  -0.00018   0.16041
           A4           0.00017   0.00015   0.00010  -0.00022   0.16012
           A5           0.00001   0.00002   0.00001  -0.00003   0.00002
           A6          -0.00038  -0.00033  -0.00022   0.00050  -0.00028
           A7          -0.00007  -0.00004  -0.00003   0.00006  -0.00004
           A8          -0.00196  -0.00228  -0.00163   0.00348  -0.00192
           A9          -0.00109  -0.00151  -0.00111   0.00231  -0.00127
           D1          -0.00004  -0.00006  -0.00004   0.00009  -0.00005
           D2           0.00010   0.00017   0.00012  -0.00025   0.00014
           D3          -0.00001   0.00010   0.00008  -0.00015   0.00008
                          A5        A6        A7        A8        A9
           A5           0.16000
           A6          -0.00003   0.16062
           A7          -0.00001   0.00008   0.16000
           A8          -0.00008   0.00420   0.00083   0.02310
           A9          -0.00000   0.00276   0.00063   0.01115   0.00717
           D1          -0.00000   0.00010   0.00002   0.00045   0.00021
           D2          -0.00000  -0.00030  -0.00008  -0.00095  -0.00028
           D3          -0.00002  -0.00017  -0.00007   0.00029   0.00065
                          D1        D2        D3
           D1           0.00231
           D2          -0.00001   0.00229
           D3           0.00002  -0.00012   0.00208
 ITU=  0  0
 Eigenvectors of the second derivative matrix:
                           1         2         3         4         5
     Eigenvalues --     0.00124   0.00230   0.02713   0.10920   0.11090
   1         R1         0.00030   0.00000  -0.00079  -0.00028  -0.00017
   2         R2        -0.00013   0.00000  -0.00455  -0.00087  -0.00048
   3         R3         0.00062  -0.00000   0.00216   0.00018   0.00008
   4         R4        -0.00479   0.00000  -0.04735  -0.01292  -0.00351
   5         R5         0.00628  -0.00000   0.04961   0.00799   0.00265
   6         R6        -0.00019   0.00000  -0.00530  -0.00124  -0.00046
   7         A1        -0.00285  -0.00000  -0.02846   0.13464   0.62659
   8         A2        -0.00063   0.00000  -0.00027  -0.58893  -0.19138
   9         A3         0.00346  -0.00000   0.03298  -0.19241   0.13705
  10         A4        -0.00209   0.00000  -0.02180   0.46133  -0.43199
  11         A5        -0.00015   0.00000  -0.00577   0.23701   0.05639
  12         A6         0.00406  -0.00000   0.03985  -0.06067  -0.22344
  13         A7         0.00127   0.00000   0.00742   0.00634  -0.00024
  14         A8         0.41063  -0.17325  -0.87980  -0.05841  -0.08266
  15         A9        -0.82320   0.33589  -0.43998  -0.07668   0.00444
  16         D1         0.22259   0.52802  -0.12834   0.31220   0.33028
  17         D2         0.14490   0.55606   0.05108   0.14581  -0.43236
  18         D3         0.28825   0.51880   0.06693  -0.44389   0.09678
                           6         7         8         9        10
     Eigenvalues --     0.14635   0.15999   0.16000   0.16000   0.16176
   1         R1         0.00059  -0.00009   0.00000   0.00000   0.00099
   2         R2         0.00163  -0.00009   0.00000  -0.00000   0.00260
   3         R3        -0.00023  -0.00008   0.00000   0.00000  -0.00029
   4         R4        -0.99492   0.00031  -0.00000  -0.00000  -0.08556
   5         R5        -0.01857  -0.00020   0.00000  -0.00000  -0.03200
   6         R6         0.00170  -0.00009   0.00000  -0.00000   0.00266
   7         A1         0.01658   0.16559  -0.14653   0.30059  -0.20299
   8         A2         0.04689  -0.08105  -0.07763  -0.04344  -0.46252
   9         A3        -0.04498  -0.04902   0.71055  -0.09353   0.52362
  10         A4         0.01783   0.08239   0.30027   0.21968  -0.24588
  11         A5        -0.00702  -0.41146  -0.25733  -0.74192   0.05133
  12         A6        -0.05460   0.24176  -0.55400   0.21028   0.62093
  13         A7        -0.00949  -0.85385  -0.06572   0.50605   0.10163
  14         A8         0.03631  -0.00186   0.00000   0.00000   0.04869
  15         A9         0.02280  -0.00177   0.00000   0.00000   0.03096
  16         D1        -0.00259  -0.00003   0.00000   0.00000  -0.00254
  17         D2        -0.00179   0.00024  -0.00000  -0.00000  -0.00223
  18         D3         0.00192   0.00029  -0.00000  -0.00000   0.00119
                          11        12        13        14        15
     Eigenvalues --     0.24132   0.35569   0.35574   0.35586   0.42562
   1         R1        -0.00251   0.88117   0.41713   0.22257   0.00052
   2         R2        -0.00603  -0.03263  -0.41601   0.90873   0.00208
   3         R3         0.00028   0.47167  -0.80804  -0.35297  -0.00070
   4         R4         0.01872   0.00047  -0.00031   0.00177   0.00175
   5         R5        -0.99799  -0.00188   0.00122  -0.00574  -0.00479
   6         R6        -0.00518  -0.00007   0.00009  -0.00232   0.99996
   7         A1         0.00570   0.00025  -0.00016   0.00086   0.00087
   8         A2         0.00990   0.00020  -0.00013   0.00058  -0.00011
   9         A3        -0.01554  -0.00039   0.00026  -0.00137  -0.00161
  10         A4         0.00952   0.00021  -0.00014   0.00078   0.00143
  11         A5        -0.00010  -0.00004   0.00002   0.00006   0.00033
  12         A6        -0.01733  -0.00044   0.00029  -0.00163  -0.00162
  13         A7        -0.00249  -0.00016   0.00010  -0.00029  -0.00029
  14         A8        -0.04446   0.00004   0.00007  -0.00490  -0.00511
  15         A9        -0.02910   0.00057  -0.00028  -0.00281  -0.00274
  16         D1         0.00117   0.00001  -0.00001  -0.00012  -0.00054
  17         D2         0.00149  -0.00012   0.00007   0.00023  -0.00015
  18         D3         0.00120  -0.00024   0.00014   0.00006   0.00077
 Eigenvalue     1 is   1.24D-03 should be less than     0.000000 Eigenvector:
                          A9        A8        D3        D1        D2
   1                   -0.82320   0.41063   0.28825   0.22259   0.14490
                          R5        R4        A6        A3        A1
   1                    0.00628  -0.00479   0.00406   0.00346  -0.00285
 RLam0= 1.76D-03.
 Iter=   1 RLamda= 0.00000000D+00 Sum=-1.49697198D-03.
 Iter=   2 RLamda=-1.49697198D-03 Sum=-1.46149233D-03.
 Iter=   3 RLamda=-1.46149233D-03 Sum=-1.46206950D-03.
 Iter=   4 RLamda=-1.46206950D-03 Sum=-1.46206005D-03.
 RFO step:  Lambda0=1.762459242D-03 Lambda=-1.46206950D-03.
 Linear search not attempted -- option 19 set.
 Maximum step size (   0.100) exceeded in Quadratic search.
    -- Step size scaled by   0.965
 Iteration  1 RMS(Cart)=  0.05095560 RMS(Int)=  0.00219369
 Iteration  2 RMS(Cart)=  0.00275091 RMS(Int)=  0.00025800
 Iteration  3 RMS(Cart)=  0.00000740 RMS(Int)=  0.00025793
 Iteration  4 RMS(Cart)=  0.00000000 RMS(Int)=  0.00025793
 ITry= 1 IFail=0 DXMaxC= 1.04D-01 DCOld= 1.00D+10 DXMaxT= 1.00D-01 DXLimC= 3.00D+00 Rises=F
 Variable       Old X    -DE/DX   Delta X   Delta X   Delta X     New X
                                 (Linear)    (Quad)   (Total)
    R1        2.05189   0.00822   0.00000   0.02228   0.02228   2.07416
    R2        2.05186   0.00809   0.00000   0.02193   0.02193   2.07379
    R3        2.05169   0.00810   0.00000   0.02196   0.02196   2.07364
    R4        2.63645  -0.00086   0.00000  -0.00579  -0.00580   2.63065
    R5        2.29686   0.00993   0.00000   0.04027   0.04028   2.33714
    R6        1.95502   0.01260   0.00000   0.02857   0.02857   1.98359
    A1        1.99839  -0.00080   0.00000  -0.00479  -0.00515   1.99324
    A2        1.99897  -0.00086   0.00000  -0.00475  -0.00434   1.99463
    A3        1.82839   0.00147   0.00000   0.00912   0.00918   1.83757
    A4        1.99963  -0.00099   0.00000  -0.00652  -0.00673   1.99290
    A5        1.83106   0.00111   0.00000   0.00649   0.00627   1.83733
    A6        1.77274   0.00089   0.00000   0.00544   0.00555   1.77829
    A7        1.73614   0.00236   0.00000   0.01424   0.01424   1.75038
    A8        2.97452   0.00003   0.00000   0.03508   0.03497   3.00949
    A9        3.06942   0.00128   0.00000  -0.06469  -0.06475   3.00467
    D1        1.08593  -0.00001   0.00000   0.08277   0.08345   1.16938
    D2       -0.99213  -0.00005   0.00000   0.07502   0.07490  -0.91723
    D3       -3.08456   0.00003   0.00000   0.09075   0.09019  -2.99436
         Item               Value     Threshold  Converged?
 Maximum Force            0.012603     0.000450     NO 
 RMS     Force            0.005112     0.000300     NO 
 Maximum Displacement     0.103815     0.001800     NO 
 RMS     Displacement     0.051253     0.001200     NO 
 Predicted change in Energy=-6.135618D-04
 Lowest energy point so far.  Saving SCF results.
 Largest change from initial coordinates is atom    6       0.056 Angstoms.
 GradGradGradGradGradGradGradGradGradGradGradGradGradGradGradGradGradGrad

 Leave Link  103 at Wed Oct  7 13:20:26 2020, MaxMem=  2684354560 cpu:               2.6 elap:               0.6
 (Enter /udrive/faculty/rpeverati/g16/g16/l202.exe)
                          Input orientation:                          
 ---------------------------------------------------------------------
 Center     Atomic      Atomic             Coordinates (Angstroms)
 Number     Number       Type             X           Y           Z
 ---------------------------------------------------------------------
      1          6           0       -1.198895   -0.008516    0.008938
      2          7           0        1.418150    0.128587    0.000943
      3          1           0       -1.478832   -0.499015    0.950092
      4          1           0       -1.382948   -0.615280   -0.886746
      5          1           0       -1.537011    1.031986   -0.075660
      6          1           0        0.183476    0.143319    0.071260
      7          1           0        1.589657   -0.904627   -0.068766
 ---------------------------------------------------------------------
                    Distance matrix (angstroms):
                    1          2          3          4          5
     1  C    0.000000
     2  N    2.620646   0.000000
     3  H    1.097600   3.112439   0.000000
     4  H    1.097400   3.031086   1.843010   0.000000
     5  H    1.097326   3.091112   1.843778   1.842575   0.000000
[...]
 All quantities printed in internal units (Hartrees-Bohrs-Radians)
 Second derivative matrix not updated -- analytic derivatives used.
 The second derivative matrix:
                          R1        R2        R3        R4        R5
           R1           0.34665
           R2           0.00026   0.34668
           R3           0.00019   0.00019   0.34686
           R4           0.00104   0.00103   0.00111   0.02397
           R5           0.00035   0.00035  -0.00037   0.07323   0.16212
           R6           0.00023   0.00023  -0.00031   0.00171  -0.00639
           A1           0.00707   0.00708  -0.00425  -0.00742   0.00262
           A2           0.00744  -0.00419   0.00734  -0.00764   0.00296
           A3          -0.00362  -0.00578  -0.00596   0.01105  -0.00277
           A4          -0.00419   0.00744   0.00734  -0.00763   0.00296
           A5          -0.00578  -0.00364  -0.00596   0.01101  -0.00268
           A6          -0.00582  -0.00583  -0.00290   0.01103  -0.00704
           A7           0.00042   0.00043  -0.00119   0.00220   0.01670
           A8          -0.00083  -0.00085   0.00185   0.00283   0.00026
           A9           0.00112  -0.00111  -0.00001  -0.00000  -0.00000
           D1          -0.00009   0.00444  -0.00430  -0.00019   0.00012
           D2          -0.00445   0.00009   0.00430   0.00019  -0.00012
           D3           0.00436  -0.00435   0.00000  -0.00000  -0.00000
                          R6        A1        A2        A3        A4
           R6           0.36784
           A1           0.00019   0.04499
           A2           0.00016  -0.01011   0.04784
           A3           0.00035  -0.01639  -0.01862   0.04974
           A4           0.00016  -0.01011  -0.00938  -0.00495   0.04782
           A5           0.00036  -0.01637  -0.00495   0.00406  -0.01862
           A6          -0.00147  -0.00495  -0.01690   0.00438  -0.01692
           A7           0.02001   0.00078   0.00021  -0.00117   0.00022
           A8          -0.00362  -0.00478   0.00033   0.00070   0.00027
           A9           0.00000   0.00002   0.00256   0.00338  -0.00257
           D1          -0.00001   0.01862  -0.01938   0.00091  -0.00009
           D2           0.00001  -0.01863   0.00009  -0.00017   0.01936
           D3           0.00000   0.00001   0.01843   0.00169  -0.01840
                          A5        A6        A7        A8        A9
           A5           0.04970
           A6           0.00438   0.04794
           A7          -0.00117   0.00057   0.13476
           A8           0.00067   0.00493   0.00081   0.02744
           A9          -0.00335  -0.00003  -0.00000  -0.00001   0.01619
           D1           0.00017  -0.00076   0.00002  -0.00037  -0.00074
           D2          -0.00089   0.00077  -0.00003   0.00035  -0.00076
           D3          -0.00169  -0.00002  -0.00000   0.00000   0.00162
                          D1        D2        D3
           D1           0.01391
           D2          -0.00694   0.01391
           D3          -0.00675  -0.00675   0.01375
 ITU=  0
 Eigenvectors of the second derivative matrix:
                           1         2         3         4         5
     Eigenvalues --    -0.01419   0.00014   0.01505   0.02609   0.04370
   1         R1         0.00960   0.00044   0.00041  -0.00273  -0.00684
   2         R2         0.00959  -0.00044  -0.00039  -0.00273  -0.00733
   3         R3         0.00955   0.00000   0.00001  -0.00261   0.01867
   4         R4        -0.88850  -0.00012  -0.00018  -0.00002  -0.03729
   5         R5         0.38488   0.00005   0.00007  -0.01112  -0.00617
   6         R6         0.01273  -0.00000   0.00001   0.00936  -0.00801
   7         A1        -0.07938  -0.00001  -0.00004   0.05296   0.09488
   8         A2        -0.07947   0.00005  -0.01956   0.01165  -0.06176
   9         A3         0.10608  -0.03143  -0.11089   0.04111   0.37517
  10         A4        -0.07944  -0.00008   0.01952   0.01228  -0.05776
  11         A5         0.10494   0.03129   0.11021   0.04266   0.39716
  12         A6         0.13698   0.00019   0.00074  -0.20006  -0.75459
  13         A7        -0.03011   0.00001  -0.00001  -0.00577   0.02017
  14         A8         0.03173   0.00025   0.00072   0.96265  -0.23485
  15         A9        -0.00012   0.00851   0.97723  -0.00072  -0.00204
  16         D1        -0.00804   0.57605   0.04791   0.11517   0.17258
  17         D2         0.00784   0.57601   0.04903  -0.11465  -0.16925
  18         D3         0.00000   0.57822  -0.12294  -0.00093  -0.00407
                           6         7         8         9        10
     Eigenvalues --     0.04458   0.07744   0.07927   0.09027   0.12917
   1         R1        -0.01575   0.02319  -0.03298   0.03635  -0.00358
   2         R2         0.01539   0.02311   0.03316   0.03630  -0.00364
   3         R3         0.00029  -0.03340  -0.00000   0.04291   0.00290
   4         R4         0.00005   0.02269   0.00013   0.21361  -0.13840
   5         R5        -0.00006  -0.02440  -0.00024  -0.11466  -0.20827
   6         R6        -0.00010  -0.00238  -0.00001  -0.00536  -0.08513
   7         A1         0.00201  -0.71515  -0.00142  -0.21958   0.02565
   8         A2         0.12392   0.30464   0.58987  -0.35936   0.01442
   9         A3         0.65270   0.16307  -0.22367   0.44524  -0.03795
  10         A4        -0.12539   0.30638  -0.58988  -0.35783   0.01448
  11         A5        -0.64040   0.16190   0.22551   0.44377  -0.03810
  12         A6        -0.01304  -0.14459   0.00082   0.47360  -0.00346
  13         A7         0.00029   0.02093   0.00014   0.05856   0.96238
  14         A8        -0.00252   0.06664   0.00079   0.07018   0.00465
  15         A9         0.19543  -0.00021   0.03653  -0.00002  -0.00000
  16         D1        -0.09875  -0.33134  -0.19164   0.04213   0.00143
  17         D2        -0.10516   0.33197  -0.19063  -0.04142  -0.00147
  18         D3         0.27039  -0.00048   0.35584  -0.00067   0.00001
                          11        12        13        14        15
     Eigenvalues --     0.19794   0.34713   0.34734   0.34843   0.36972
   1         R1         0.00488   0.73190  -0.40745  -0.54293   0.01266
   2         R2         0.00488  -0.67875  -0.47460  -0.55723   0.01298
   3         R3        -0.00195  -0.03071   0.77809  -0.62441  -0.01818
   4         R4        -0.37929   0.00008  -0.00083  -0.00174   0.00025
   5         R5        -0.89104   0.00028  -0.00512  -0.00472  -0.02368
   6         R6        -0.00054  -0.00104   0.02598   0.00270   0.99585
   7         A1         0.00449   0.00186  -0.03516  -0.01928   0.00155
   8         A2         0.00136   0.02984   0.01725  -0.02396   0.00011
   9         A3        -0.01064   0.00353  -0.00065   0.03369   0.00081
  10         A4         0.00140  -0.03085   0.01435  -0.02457   0.00012
  11         A5        -0.01108  -0.00410  -0.00100   0.03364   0.00083
  12         A6         0.01130  -0.00072   0.00856   0.03142  -0.00434
  13         A7        -0.24832   0.00017  -0.00413   0.00073   0.08321
  14         A8        -0.00879  -0.00030   0.00722   0.00008  -0.01060
  15         A9         0.00004   0.00546   0.00022   0.00006   0.00000
  16         D1         0.00017  -0.01067  -0.01966   0.00115   0.00045
  17         D2        -0.00017  -0.01247   0.01856  -0.00136  -0.00044
  18         D3         0.00003   0.02231   0.00105   0.00020  -0.00000
 Eigenvalue     1 is  -1.42D-02 should be greater than     0.000000 Eigenvector:
                          R4        R5        A6        A3        A5
   1                   -0.88850   0.38488   0.13698   0.10608   0.10494
                          A2        A4        A1        A8        A7
   1                   -0.07947  -0.07944  -0.07938   0.03173  -0.03011
 Angle between quadratic step and forces=  84.98 degrees.
 Linear search not attempted -- first point.
 Iteration  1 RMS(Cart)=  0.00199714 RMS(Int)=  0.00000598
 Iteration  2 RMS(Cart)=  0.00000499 RMS(Int)=  0.00000001
 Iteration  3 RMS(Cart)=  0.00000000 RMS(Int)=  0.00000001
 ITry= 1 IFail=0 DXMaxC= 5.86D-03 DCOld= 1.00D+10 DXMaxT= 3.00D-01 DXLimC= 3.00D+00 Rises=F
 Variable       Old X    -DE/DX   Delta X   Delta X   Delta X     New X
                                 (Linear)    (Quad)   (Total)
    R1        2.07179   0.00000   0.00000  -0.00001  -0.00001   2.07178
    R2        2.07176   0.00000   0.00000   0.00002   0.00002   2.07178
    R3        2.07185   0.00000   0.00000   0.00000   0.00000   2.07185
    R4        2.92756   0.00001   0.00000  -0.00001  -0.00001   2.92755
    R5        2.17654   0.00004   0.00000   0.00022   0.00022   2.17676
    R6        1.98302  -0.00001   0.00000  -0.00001  -0.00001   1.98301
    A1        2.01974  -0.00000   0.00000  -0.00001  -0.00001   2.01973
    A2        2.01894  -0.00000   0.00000   0.00002   0.00002   2.01896
    A3        1.80641   0.00002   0.00000   0.00080   0.00080   1.80721
    A4        2.01899   0.00000   0.00000  -0.00003  -0.00003   2.01896
    A5        1.80811  -0.00002   0.00000  -0.00080  -0.00080   1.80732
    A6        1.73362  -0.00000   0.00000   0.00002   0.00002   1.73364
    A7        1.76221  -0.00000   0.00000  -0.00003  -0.00003   1.76219
    A8        2.95933  -0.00000   0.00000  -0.00004  -0.00004   2.95929
    A9        3.14215  -0.00000   0.00000  -0.00054  -0.00054   3.14161
    D1        1.04950  -0.00000   0.00000  -0.00616  -0.00616   1.04334
    D2       -1.03524  -0.00000   0.00000  -0.00614  -0.00614  -1.04137
    D3       -3.13470   0.00000   0.00000  -0.00591  -0.00591  -3.14061
         Item               Value     Threshold  Converged?
 Maximum Force            0.000036     0.000450     YES
 RMS     Force            0.000012     0.000300     YES
 Maximum Displacement     0.005860     0.001800     NO 
 RMS     Displacement     0.001997     0.001200     NO 
 Predicted change in Energy=-2.281999D-08
                           ----------------------------
                           ! Non-Optimized Parameters !
                           ! (Angstroms and Degrees)  !
 --------------------------                            --------------------------
 ! Name  Definition              Value          Derivative Info.                !
 --------------------------------------------------------------------------------
 ! R1    R(1,3)                  1.0963         -DE/DX =    0.0                 !
 ! R2    R(1,4)                  1.0963         -DE/DX =    0.0                 !
 ! R3    R(1,5)                  1.0964         -DE/DX =    0.0                 !
 ! R4    R(1,6)                  1.5492         -DE/DX =    0.0                 !
 ! R5    R(2,6)                  1.1519         -DE/DX =    0.0                 !
 ! R6    R(2,7)                  1.0494         -DE/DX =    0.0                 !
 ! A1    A(3,1,4)              115.7221         -DE/DX =    0.0                 !
 ! A2    A(3,1,5)              115.6779         -DE/DX =    0.0                 !
 ! A3    A(3,1,6)              103.5456         -DE/DX =    0.0                 !
 ! A4    A(4,1,5)              115.678          -DE/DX =    0.0                 !
 ! A5    A(4,1,6)              103.5516         -DE/DX =    0.0                 !
 ! A6    A(5,1,6)               99.3303         -DE/DX =    0.0                 !
 ! A7    A(6,2,7)              100.9659         -DE/DX =    0.0                 !
 ! A8    L(1,6,2,7,-1)         169.555          -DE/DX =    0.0                 !
 ! A9    L(1,6,2,7,-2)         180.0008         -DE/DX =    0.0                 !
 ! D1    D(3,1,2,7)             59.7791         -DE/DX =    0.0                 !
 ! D2    D(4,1,2,7)            -59.6663         -DE/DX =    0.0                 !
 ! D3    D(5,1,2,7)           -179.9434         -DE/DX =    0.0                 !
 --------------------------------------------------------------------------------
 GradGradGradGradGradGradGradGradGradGradGradGradGradGradGradGradGradGrad

 Leave Link  103 at Wed Oct  7 13:24:45 2020, MaxMem=  2684354560 cpu:               2.2 elap:               0.6
 (Enter /udrive/faculty/rpeverati/g16/g16/l9999.exe)

 ----------------------------------------------------------------------

 Electric dipole moment (input orientation):
 (Debye = 10**-18 statcoulomb cm , SI units = C m)
                  (au)            (Debye)         (10**-30 SI)
   Tot        0.725689D+00      0.184452D+01      0.615265D+01
   x         -0.484437D+00     -0.123132D+01     -0.410723D+01
   y         -0.539848D+00     -0.137216D+01     -0.457702D+01
   z          0.225774D-01      0.573860D-01      0.191419D+00

 Dipole polarizability, Alpha (input orientation).
 (esu units = cm**3 , SI units = C**2 m**2 J**-1)
 Alpha(0;0):
               (au)            (10**-24 esu)      (10**-40 SI)
   iso        0.260759D+02      0.386405D+01      0.429934D+01
   aniso      0.224073D+02      0.332042D+01      0.369446D+01
   xx         0.407437D+02      0.603760D+01      0.671773D+01
   yx        -0.788965D+00     -0.116913D+00     -0.130083D+00
   yy         0.210528D+02      0.311970D+01      0.347114D+01
   zx        -0.125193D+00     -0.185518D-01     -0.206416D-01
   zy        -0.161313D+00     -0.239041D-01     -0.265969D-01
   zz         0.164312D+02      0.243486D+01      0.270914D+01

 ----------------------------------------------------------------------

 Dipole orientation:
     6         -1.32847677          1.13192329          1.59961648
     7          1.40451724         -1.22742216         -1.97877932
     1          0.14360373          2.18846430          2.60410900
     1         -2.13711219         -0.47767410          2.62309001
     1         -2.67499373          2.27614269          0.51785225
     1          0.11933994         -0.11861213         -0.61636458
     1          2.54960152         -2.21607530         -0.69670418

 Electric dipole moment (dipole orientation):
 (Debye = 10**-18 statcoulomb cm , SI units = C m)
                  (au)            (Debye)         (10**-30 SI)
   Tot        0.725689D+00      0.184452D+01      0.615265D+01
   x          0.000000D+00      0.000000D+00      0.000000D+00
   y          0.000000D+00      0.000000D+00      0.000000D+00
   z          0.725689D+00      0.184452D+01      0.615265D+01

 Dipole polarizability, Alpha (dipole orientation).
 (esu units = cm**3 , SI units = C**2 m**2 J**-1)
 Alpha(0;0):
               (au)            (10**-24 esu)      (10**-40 SI)
   iso        0.260759D+02      0.386405D+01      0.429934D+01
   aniso      0.224073D+02      0.332042D+01      0.369446D+01
   xx         0.257823D+02      0.382054D+01      0.425093D+01
   yx        -0.807523D+01     -0.119663D+01     -0.133143D+01
   yy         0.233932D+02      0.346652D+01      0.385702D+01
   zx        -0.734409D+01     -0.108828D+01     -0.121088D+01
   zy         0.633611D+01      0.938914D+00      0.104468D+01
   zz         0.290522D+02      0.430510D+01      0.479007D+01

 ----------------------------------------------------------------------

 Test job not archived.
 1\1\GINC-NODE56\Freq\UBP86\6-31G(d)\C1H5N1(3)\RPEVERATI\07-Oct-2020\0\
 \#P Freq BP86/6-31G* 5D 7F Integral=UltraFineGrid SCF=(NoSymm,XQC,MaxC
 yc=120) IOp(1/33=1) Geom=Check Guess=Read\\TS search on BH76.\\0,3\C,-
 1.252729821,-0.013621345,0.0026384052\N,1.4338580793,0.1200900847,-0.0
 196132742\H,-1.4345177535,-0.5251990448,0.9551137345\H,-1.4470287622,-
 0.6050500712,-0.8998007685\H,-1.5668039168,1.0359234519,-0.0404006234\
 H,0.2838219796,0.1831438109,-0.0146831012\H,1.5769980499,-0.9188325272
 ,0.016806863\\Version=ES64L-G16RevA.03\State=3-A\HF=-95.6998699\S2=2.0
 06956\S2-1=0.\S2A=2.000025\RMSD=3.284e-09\RMSF=1.150e-05\ZeroPoint=0.0
 490307\Thermal=0.0536448\Dipole=-0.4844373,-0.5398481,0.0225774\Dipole
 Deriv=0.3011839,0.0095797,-0.0018899,-0.0340759,-0.0138312,0.0015852,-
 0.0004306,0.0012358,0.0192163,-0.1984705,0.0014946,-0.0017397,-0.15581
 3,0.0198795,-0.0168237,0.0038393,-0.0178633,-0.4764283,-0.0019231,-0.0
 208123,0.0383077,-0.0026879,0.0285671,0.0632006,-0.0005984,0.0556171,-
 0.0488873,-0.0024861,-0.024856,-0.0370303,-0.0035606,0.0178565,-0.0689
 532,0.0002275,-0.0610037,-0.0376301,0.0173406,0.0687264,-0.0026636,0.0
 063704,-0.0547272,0.0051444,0.000024,0.0046958,0.0651045,-0.4151053,-0
 .010411,0.0043131,0.1473282,0.1605122,0.0003469,-0.0014384,0.0014072,0
 .1983557,0.2994605,-0.0237213,0.0007027,0.0424388,-0.1582569,0.0154997
 ,-0.0016234,0.015911,0.2802692\Polar=40.7437154,-0.7889652,21.0527922,
 -0.1251935,-0.1613128,16.4312338\Quadrupole=-1.4576594,0.8904254,0.567
 234,-2.0414962,0.0869468,0.0014785\PG=C01 [X(C1H5N1)]\NImag=1\\0.09581
 259,-0.03713490,0.55701372,0.00473467,0.00051872,0.56273473,-0.0787258
 0,-0.01129454,0.00095919,0.19271392,0.00459501,0.00207301,0.00020408,-
 0.04453561,0.38134349,0.00038621,0.00031142,0.00833454,0.00044843,-0.0
 1308117,0.00993870,-0.02598740,-0.02552617,0.05097094,0.00182664,-0.00
 102508,-0.00179138,0.02687922,-0.01845012,-0.11058471,0.11420550,-0.00
 035201,0.00005628,-0.00033345,0.02203901,0.10971232,0.03886089,0.11328
 376,-0.26044166,0.00023641,-0.00043359,0.00000910,-0.04449369,-0.12328
 558,0.27271031,-0.02723494,-0.03155361,-0.05152176,0.00180307,-0.00088
 704,0.00182295,0.00273012,0.00335300,0.00541236,0.02807946,-0.02347005
 ,-0.13114830,-0.12504406,-0.00036425,0.00012468,0.00032090,0.00304719,
 0.00946674,0.01254841,0.02765583,0.13200588,-0.04006900,-0.12401600,-0
 .23868753,-0.00021841,0.00043943,-0.00007168,-0.00591938,-0.01466542,-
 0.01454959,0.04550247,0.13505291,0.24923660,-0.04207666,0.09280270,-0.
 00403874,0.00404599,-0.00085077,0.00001658,0.00367302,-0.00658802,0.00
 073580,0.00377912,-0.00693007,-0.00016298,0.04349511,0.07805284,-0.304
 49586,0.01044375,0.00157625,0.00068391,-0.00005439,0.00463095,-0.00787
 001,-0.00240276,0.00538184,-0.00958030,0.00335003,-0.08679552,0.321559
 35,-0.00341141,0.01033951,-0.04997549,-0.00009632,-0.00004301,-0.00040
 154,-0.00850592,0.02328185,0.00224706,0.00806487,-0.02217583,0.0038536
 9,0.00373752,-0.01137730,0.04398734,0.08031994,0.01208206,-0.00108113,
 -0.08415826,0.02050207,-0.00030912,-0.00941980,-0.00001182,-0.00109228
 ,-0.00943876,0.00008363,0.00121513,-0.01309971,-0.00223805,0.00018536,
 0.04015244,-0.00529164,-0.01471228,-0.00016958,-0.00761407,-0.03191156
 ,0.00063546,-0.00338505,-0.00088593,0.00041781,-0.00411859,-0.00099003
 ,-0.00028607,0.00915925,-0.00029024,-0.00003242,-0.02130750,0.05696732
 ,-0.00043752,-0.00028193,-0.01977201,0.00069405,0.00046068,-0.01560136
 ,0.00893424,0.00081435,-0.00006772,-0.00846514,-0.00072207,0.00012052,
 -0.00031086,0.00003364,0.00023841,0.00070745,-0.00077346,0.03182019,-0
 .00210774,0.00062446,-0.00002317,-0.03750557,0.02220142,-0.00057367,0.
 00029819,0.00000997,0.00034052,0.00028193,-0.00002229,-0.00034782,0.00
 018314,-0.00060830,0.00002591,-0.00435585,0.03255760,-0.00112224,0.043
 20590,0.00169886,0.00185442,-0.00015841,0.06258423,-0.35236981,0.01220
 123,0.00021917,0.00010532,-0.00012805,0.00016858,0.00012133,0.00012512
 ,-0.00079758,-0.00000684,0.00000720,-0.00911040,-0.00817728,0.00046879
 ,-0.05476285,0.35847287,-0.00006385,-0.00015548,-0.00219258,-0.0020233
 5,0.01245358,-0.00220777,0.00080519,-0.00001725,0.00009248,-0.00081575
 ,0.00001973,0.00009799,0.00002268,0.00000703,0.00005052,0.00037460,0.0
 0020827,0.00326196,0.00170048,-0.01251588,0.00089740\\0.00001299,0.000
 00012,-0.00001740,-0.00003713,0.00000970,0.00000322,0.00000974,0.00000
 115,0.00000186,-0.00000911,0.00000109,0.00000411,0.00000011,-0.0000011
 0,0.00000092,0.00002224,-0.00000380,0.00000772,0.00000116,-0.00000715,
 -0.00000044\\\@


 At the touch of love, everyone becomves a poet.
                                -- Plato
 Job cpu time:       0 days  0 hours  3 minutes 14.2 seconds.
 Elapsed time:       0 days  0 hours  0 minutes 26.7 seconds.
 File lengths (MBytes):  RWF=      7 Int=      0 D2E=      0 Chk=      1 Scr=      1
 Normal termination of Gaussian 16 at Wed Oct  7 13:24:47 2020.
