 Entering Gaussian System, Link 0=g16
 Input=MN_53_hfch3ts_BH76_PBEDBJ_631Gs.in
 Output=MN_53_hfch3ts_BH76_PBEDBJ_631Gs.log
 Initial command:
 /udrive/faculty/rpeverati/g16/g16/l1.exe "/udrive/scratch-directories/gaussian09/rpeverati/Gau-28844.inp" -scrdir="/udrive/scratch-directories/gaussian09/rpeverati/"
 Entering Link 1 = /udrive/faculty/rpeverati/g16/g16/l1.exe PID=     28863.
  
 Copyright (c) 1988,1990,1992,1993,1995,1998,2003,2009,2016,
            Gaussian, Inc.  All Rights Reserved.
  
 This is part of the Gaussian(R) 16 program.  It is based on
 the Gaussian(R) 09 system (copyright 2009, Gaussian, Inc.),
 the Gaussian(R) 03 system (copyright 2003, Gaussian, Inc.),
 the Gaussian(R) 98 system (copyright 1998, Gaussian, Inc.),
 the Gaussian(R) 94 system (copyright 1995, Gaussian, Inc.),
 the Gaussian 92(TM) system (copyright 1992, Gaussian, Inc.),
 the Gaussian 90(TM) system (copyright 1990, Gaussian, Inc.),
 the Gaussian 88(TM) system (copyright 1988, Gaussian, Inc.),
 the Gaussian 86(TM) system (copyright 1986, Carnegie Mellon
 University), and the Gaussian 82(TM) system (copyright 1983,
 Carnegie Mellon University). Gaussian is a federally registered
 trademark of Gaussian, Inc.
  
 This software contains proprietary and confidential information,
 including trade secrets, belonging to Gaussian, Inc.
  
 This software is provided under written license and may be
 used, copied, transmitted, or stored only in accord with that
 written license.
  
 The following legend is applicable only to US Government
 contracts under FAR:
  
                    RESTRICTED RIGHTS LEGEND
  
 Use, reproduction and disclosure by the US Government is
 subject to restrictions as set forth in subparagraphs (a)
 and (c) of the Commercial Computer Software - Restricted
 Rights clause in FAR 52.227-19.
  
 Gaussian, Inc.
 340 Quinnipiac St., Bldg. 40, Wallingford CT 06492
  
  
 ---------------------------------------------------------------
 Warning -- This program may not be used in any manner that
 competes with the business of Gaussian, Inc. or will provide
 assistance to any competitor of Gaussian, Inc.  The licensee
 of this program is prohibited from giving any competitor of
 Gaussian, Inc. access to this program.  By using this program,
 the user acknowledges that Gaussian, Inc. is engaged in the
 business of creating and licensing software in the field of
 computational chemistry and represents and warrants to the
 licensee that it is not a competitor of Gaussian, Inc. and that
 it will not use this program in any manner prohibited above.
 ---------------------------------------------------------------
  

 Cite this work as:
 Gaussian 16, Revision A.03,
 M. J. Frisch, G. W. Trucks, H. B. Schlegel, G. E. Scuseria, 
 M. A. Robb, J. R. Cheeseman, G. Scalmani, V. Barone, 
 G. A. Petersson, H. Nakatsuji, X. Li, M. Caricato, A. V. Marenich, 
 J. Bloino, B. G. Janesko, R. Gomperts, B. Mennucci, H. P. Hratchian, 
 J. V. Ortiz, A. F. Izmaylov, J. L. Sonnenberg, D. Williams-Young, 
 F. Ding, F. Lipparini, F. Egidi, J. Goings, B. Peng, A. Petrone, 
 T. Henderson, D. Ranasinghe, V. G. Zakrzewski, J. Gao, N. Rega, 
 G. Zheng, W. Liang, M. Hada, M. Ehara, K. Toyota, R. Fukuda, 
 J. Hasegawa, M. Ishida, T. Nakajima, Y. Honda, O. Kitao, H. Nakai, 
 T. Vreven, K. Throssell, J. A. Montgomery, Jr., J. E. Peralta, 
 F. Ogliaro, M. J. Bearpark, J. J. Heyd, E. N. Brothers, K. N. Kudin, 
 V. N. Staroverov, T. A. Keith, R. Kobayashi, J. Normand, 
 K. Raghavachari, A. P. Rendell, J. C. Burant, S. S. Iyengar, 
 J. Tomasi, M. Cossi, J. M. Millam, M. Klene, C. Adamo, R. Cammi, 
 J. W. Ochterski, R. L. Martin, K. Morokuma, O. Farkas, 
 J. B. Foresman, and D. J. Fox, Gaussian, Inc., Wallingford CT, 2016.
 
 ******************************************
 Gaussian 16:  ES64L-G16RevA.03 25-Dec-2016
                 7-Oct-2020 
 ******************************************
 %NoSave
 %nproc=12
 Will use up to   12 processors via shared memory.
 %mem=20GB
 %chk=MN_53_hfch3ts_BH76_PBEDBJ_631Gs
 ----------------------------------------------------------------------
 #P Opt(TS,MaxCyc=50,NoEigenTest,MaxStep=10,AddRedundant) PBEPBE/6-31G*
  5D 7F Integral=UltraFineGrid SCF=(NoSymm,XQC,MaxCyc=120) EmpiricalDis
 persion=GD3BJ IOp(1/33=1)
 ----------------------------------------------------------------------
 1/5=1,6=50,8=10,11=1,18=120,26=4,33=1,38=1/1,3;
 2/9=110,12=2,17=6,18=5,40=1/2;
 3/5=1,6=6,7=1,8=11,11=2,25=1,30=1,71=1,74=1009,75=-5,124=41/1,2,3;
 4/9=2/1;
 5/5=2,7=120,8=3,13=1,38=5/2,8;
 6/7=2,8=2,9=2,10=2,28=1/1;
 7//1,2,3,16;
 1/5=1,6=50,8=10,11=1,18=20,26=4,33=1/3(2);
 2/9=110/2;
 99//99;
 2/9=110/2;
 3/5=1,6=6,7=1,8=11,11=2,25=1,30=1,71=1,74=1009,75=-5,124=41/1,2,3;
 4/5=5,9=2,16=3,69=1/1;
 5/5=2,7=120,8=3,13=1,38=5/2,8;
 7//1,2,3,16;
 1/5=1,6=50,8=10,11=1,18=20,26=4,33=1/3(-5);
 2/9=110/2;
 6/7=2,8=2,9=2,10=2,19=2,28=1/1;
 99/9=1/99;
 Leave Link    1 at Wed Oct  7 12:52:58 2020, MaxMem=  2684354560 cpu:               5.6 elap:               0.5
 (Enter /udrive/faculty/rpeverati/g16/g16/l101.exe)
 ONIOM data not found on unit 2.
 ------------------
 TS search on BH76.
 ------------------
 TstMul:  ICh=     0
 TstMul:  Mul=     2
 TstMul:  ICh=     0
 TstMul:  Mul=     2
 Symbolic Z-matrix:
 Charge =  0 Multiplicity = 2
 H                     0.00045   2.00097   0. 
 F                    -0.00004   0.76248   0. 
 C                    -0.00004  -0.90617   0. 
 H                     1.05376  -1.14157   0. 
 H                    -0.52685  -1.14236   0.91235 
 H                    -0.52685  -1.14236  -0.91235 
 
 RdStrC is calling ZToCFu for IStruc=1 NZ=     6.
 PrtBox:  NBox=     1 Levels=  1 BoxLen=    8.00 SMaxX=        5.94
          Shift=            0.995593            2.158740            1.724100
 Box      1 Number                   0 centers from      1 to      6:
 After GenITR:
 ITRead=  0  0  0  0  0  0
 MicOpt= -1 -1 -1 -1 -1 -1
 Add virtual bond connecting atoms F2         and H1         Dist= 2.34D+00.
 Add virtual bond connecting atoms C3         and F2         Dist= 3.15D+00.
 The following ModRedundant input section has been read:
 
 ITRead=  0  0  0  0  0  0
 MicOpt= -1 -1 -1 -1 -1 -1
 NAtoms=      6 NQM=        6 NQMF=       0 NMMI=      0 NMMIF=      0
                NMic=       0 NMicF=      0.
                    Isotopes and Nuclear Properties:
 (Nuclear quadrupole moments (NQMom) in fm**2, nuclear magnetic moments (NMagM)
  in nuclear magnetons)

  Atom         1           2           3           4           5           6
 IAtWgt=           1          19          12           1           1           1
 AtmWgt=   1.0078250  18.9984033  12.0000000   1.0078250   1.0078250   1.0078250
 NucSpn=           1           1           0           1           1           1
 AtZEff=   0.0000000   0.0000000   0.0000000   0.0000000   0.0000000   0.0000000
 NQMom=    0.0000000   0.0000000   0.0000000   0.0000000   0.0000000   0.0000000
 NMagM=    2.7928460   2.6288670   0.0000000   2.7928460   2.7928460   2.7928460
 AtZNuc=   1.0000000   9.0000000   6.0000000   1.0000000   1.0000000   1.0000000
 No MM parameters found.
 Leave Link  101 at Wed Oct  7 12:52:59 2020, MaxMem=  2684354560 cpu:              14.8 elap:               1.4
 (Enter /udrive/faculty/rpeverati/g16/g16/l103.exe)

 GradGradGradGradGradGradGradGradGradGradGradGradGradGradGradGradGradGrad
 Berny optimization.
 Optmz: redundant internal coordinate code flag= 1
 Initialization pass.
                           ----------------------------
                           !    Initial Parameters    !
                           ! (Angstroms and Degrees)  !
 --------------------------                            --------------------------
 ! Name  Definition              Value          Derivative Info.                !
 --------------------------------------------------------------------------------
 ! R1    R(1,2)                  1.2385         estimate D2E/DX2                !
 ! R2    R(2,3)                  1.6686         estimate D2E/DX2                !
 ! R3    R(3,4)                  1.0798         estimate D2E/DX2                !
 ! R4    R(3,5)                  1.0797         estimate D2E/DX2                !
 ! R5    R(3,6)                  1.0797         estimate D2E/DX2                !
 ! A1    A(2,3,4)              102.5924         estimate D2E/DX2                !
 ! A2    A(2,3,5)              102.6361         estimate D2E/DX2                !
 ! A3    A(2,3,6)              102.6361         estimate D2E/DX2                !
 ! A4    A(4,3,5)              115.3726         estimate D2E/DX2                !
 ! A5    A(4,3,6)              115.3726         estimate D2E/DX2                !
 ! A6    A(5,3,6)              115.3492         estimate D2E/DX2                !
 ! A7    L(1,2,3,4,-1)         179.9776         estimate D2E/DX2                !
 ! A8    L(1,2,3,4,-2)         180.0            estimate D2E/DX2                !
 ! D1    D(4,3,6,5)            138.543          estimate D2E/DX2                !
 --------------------------------------------------------------------------------
 Maximum allowed force set to 1.00D+20.
 Trust Radius=1.00D-01 FncErr=1.00D-07 GrdErr=1.00D-06 EigMax=2.50D+02 EigMin=1.00D-04
 Number of steps in this run=     50 maximum allowed number of steps=    100.
 Search for a saddle point of order  1.
 GradGradGradGradGradGradGradGradGradGradGradGradGradGradGradGradGradGrad

 Leave Link  103 at Wed Oct  7 12:53:00 2020, MaxMem=  2684354560 cpu:               1.8 elap:               0.6
 (Enter /udrive/faculty/rpeverati/g16/g16/l202.exe)
                          Input orientation:                          
 ---------------------------------------------------------------------
 Center     Atomic      Atomic             Coordinates (Angstroms)
 Number     Number       Type             X           Y           Z
 ---------------------------------------------------------------------
      1          1           0        0.000450    2.000967    0.000000
      2          9           0       -0.000035    0.762481    0.000000
      3          6           0       -0.000035   -0.906168    0.000000
      4          1           0        1.053761   -1.141573    0.000000
      5          1           0       -0.526845   -1.142356    0.912354
      6          1           0       -0.526845   -1.142356   -0.912354
 ---------------------------------------------------------------------
                    Distance matrix (angstroms):
                    1          2          3          4          5
     1  H    0.000000
     2  F    1.238486   0.000000
     3  C    2.907136   1.668649   0.000000
     4  H    3.314366   2.176214   1.079769   0.000000
     5  H    3.315254   2.176769   1.079678   1.825023   0.000000
     6  H    3.315254   2.176769   1.079678   1.825023   1.824709
                    6
     6  H    0.000000
 Stoichiometry    CH4F(2)
 Framework group  CS[SG(CH2F),X(H2)]
 Deg. of freedom     8
 Full point group                 CS      NOp   2
 Largest Abelian subgroup         CS      NOp   2
 Largest concise Abelian subgroup CS      NOp   2
                         Standard orientation:                         
 ---------------------------------------------------------------------
 Center     Atomic      Atomic             Coordinates (Angstroms)
 Number     Number       Type             X           Y           Z
 ---------------------------------------------------------------------
      1          1           0        0.000450    2.000967    0.000000
      2          9           0       -0.000035    0.762481    0.000000
      3          6           0       -0.000035   -0.906168    0.000000
      4          1           0        1.053761   -1.141573    0.000000
      5          1           0       -0.526845   -1.142356    0.912354
      6          1           0       -0.526845   -1.142356   -0.912354
 ---------------------------------------------------------------------
 Rotational constants (GHZ):         150.5723997          16.6130512          16.6126312
 Leave Link  202 at Wed Oct  7 12:53:01 2020, MaxMem=  2684354560 cpu:               1.6 elap:               0.6
 (Enter /udrive/faculty/rpeverati/g16/g16/l301.exe)
 Standard basis: 6-31G(d) (5D, 7F)
 Ernie: Thresh=  0.10000D-02 Tol=  0.10000D-05 Strict=F.
 There are    28 symmetry adapted cartesian basis functions of A'  symmetry.
 There are    10 symmetry adapted cartesian basis functions of A"  symmetry.
 There are    26 symmetry adapted basis functions of A'  symmetry.
 There are    10 symmetry adapted basis functions of A"  symmetry.
    36 basis functions,    72 primitive gaussians,    38 cartesian basis functions
    10 alpha electrons        9 beta electrons
       nuclear repulsion energy        38.7977675131 Hartrees.
 IExCor= 1009 DFT=T Ex=PBE Corr=PBE ExCW=0 ScaHFX=  0.000000
 ScaDFX=  1.000000  1.000000  1.000000  1.000000 ScalE2=  1.000000  1.000000
 IRadAn=      5 IRanWt=     -1 IRanGd=            0 ICorTp=0 IEmpDi=141
 NAtoms=    6 NActive=    6 NUniq=    5 SFac= 1.44D+00 NAtFMM=   60 NAOKFM=F Big=F
 Integral buffers will be    131072 words long.
 Raffenetti 2 integral format.
 Two-electron integral symmetry is turned on.
 R6Disp:  Grimme-D3(BJ) Dispersion energy=       -0.0016618967 Hartrees.
 Nuclear repulsion after empirical dispersion term =       38.7961056164 Hartrees.
 Leave Link  301 at Wed Oct  7 12:53:02 2020, MaxMem=  2684354560 cpu:               2.4 elap:               0.5
 (Enter /udrive/faculty/rpeverati/g16/g16/l302.exe)
 NPDir=0 NMtPBC=     1 NCelOv=     1 NCel=       1 NClECP=     1 NCelD=      1
         NCelK=      1 NCelE2=     1 NClLst=     1 CellRange=     0.0.
 One-electron integrals computed using PRISM.
 One-electron integral symmetry used in STVInt
 NBasis=    36 RedAO= T EigKep=  2.08D-02  NBF=    26    10
 NBsUse=    36 1.00D-06 EigRej= -1.00D+00 NBFU=    26    10
 Precomputing XC quadrature grid using
 IXCGrd= 4 IRadAn=           5 IRanWt=          -1 IRanGd=           0 AccXCQ= 0.00D+00.
 Generated NRdTot=       0 NPtTot=           0 NUsed=           0 NTot=          32
 NSgBfM=    38    38    38    38    38 MxSgAt=     6 MxSgA2=     6.
 Leave Link  302 at Wed Oct  7 12:53:03 2020, MaxMem=  2684354560 cpu:               4.1 elap:               0.6
 (Enter /udrive/faculty/rpeverati/g16/g16/l303.exe)
 DipDrv:  MaxL=1.
 Leave Link  303 at Wed Oct  7 12:53:03 2020, MaxMem=  2684354560 cpu:               1.8 elap:               0.4
 (Enter /udrive/faculty/rpeverati/g16/g16/l401.exe)
 SCF N**3 symmetry information disabled.
 ExpMin= 1.61D-01 ExpMax= 7.00D+03 ExpMxC= 1.05D+03 IAcc=3 IRadAn=         5 AccDes= 0.00D+00
 Harris functional with IExCor= 1009 and IRadAn=       5 diagonalized for initial guess.
 HarFok:  IExCor= 1009 AccDes= 0.00D+00 IRadAn=         5 IDoV= 1 UseB2=F ITyADJ=14
 ICtDFT=  3500011 ScaDFX=  1.000000  1.000000  1.000000  1.000000
 FoFCou: FMM=F IPFlag=           0 FMFlag=      100000 FMFlg1=           0
         NFxFlg=           0 DoJE=T BraDBF=F KetDBF=T FulRan=T
         wScrn=  0.000000 ICntrl=       500 IOpCl=  0 I1Cent=   200000004 NGrid=           0
         NMat0=    1 NMatS0=      1 NMatT0=    0 NMatD0=    1 NMtDS0=    0 NMtDT0=    0
 Petite list used in FoFCou.
 Harris En= -140.058488077499    
 JPrj=0 DoOrth=F DoCkMO=F.
 Initial guess orbital symmetries:
 Alpha Orbitals:
       Occupied  (A') (A') (A') (A') (A') (A') (A") (A") (A') (A')
       Virtual   (A') (A') (A') (A") (A') (A") (A') (A') (A') (A")
                 (A') (A') (A') (A") (A') (A") (A') (A') (A") (A')
                 (A') (A") (A') (A') (A") (A')
 Beta  Orbitals:
       Occupied  (A') (A') (A') (A') (A') (A') (A") (A") (A')
       Virtual   (A') (A') (A') (A') (A") (A') (A") (A') (A') (A')
                 (A") (A') (A') (A') (A") (A') (A") (A') (A') (A")
                 (A') (A') (A") (A') (A') (A") (A')
 The electronic state of the initial guess is 2-A'.
 Initial guess <Sx>= 0.0000 <Sy>= 0.0000 <Sz>= 0.5000 <S**2>= 0.7500 S= 0.5000
 Leave Link  401 at Wed Oct  7 12:53:04 2020, MaxMem=  2684354560 cpu:               7.3 elap:               1.0
 (Enter /udrive/faculty/rpeverati/g16/g16/l502.exe)
 Keep J ints in memory in symmetry-blocked form, NReq=10578875.
 FoFCou: FMM=F IPFlag=           0 FMFlag=           0 FMFlg1=           0
         NFxFlg=           0 DoJE=F BraDBF=F KetDBF=F FulRan=T
         wScrn=  0.000000 ICntrl=       600 IOpCl=  0 I1Cent=           0 NGrid=           0
         NMat0=    1 NMatS0=    666 NMatT0=    0 NMatD0=    1 NMtDS0=    0 NMtDT0=    0
 Petite list used in FoFCou.
 UHF open shell SCF:
 Using DIIS extrapolation, IDIIS=  1040.
 NGot=  2684354560 LenX=  2684232161 LenY=  2684230276
 Requested convergence on RMS density matrix=1.00D-08 within 120 cycles.
 Requested convergence on MAX density matrix=1.00D-06.
 Requested convergence on             energy=1.00D-06.
 No special actions if energy rises.
 Integral accuracy reduced to 1.0D-05 until final iterations.

 Cycle   1  Pass 0  IDiag  1:
 E= -139.949725649729    
 DIIS: error= 5.32D-02 at cycle   1 NSaved=   1.
 NSaved= 1 IEnMin= 1 EnMin= -139.949725649729     IErMin= 1 ErrMin= 5.32D-02
 ErrMax= 5.32D-02  0.00D+00 EMaxC= 1.00D-01 BMatC= 2.61D-01 BMatP= 2.61D-01
 IDIUse=3 WtCom= 4.68D-01 WtEn= 5.32D-01
 Coeff-Com:  0.100D+01
 Coeff-En:   0.100D+01
 Coeff:      0.100D+01
 Gap=     0.064 Goal=   None    Shift=    0.000
 Gap=     0.215 Goal=   None    Shift=    0.000
 GapD=    0.064 DampG=0.500 DampE=0.500 DampFc=0.2500 IDamp=-1.
 Damping current iteration by 2.50D-01
 RMSDP=2.48D-02 MaxDP=4.45D-01              OVMax= 5.77D-01

 Cycle   2  Pass 0  IDiag  1:
 E= -139.982808462824     Delta-E=       -0.033082813095 Rises=F Damp=T
 DIIS: error= 1.69D-02 at cycle   2 NSaved=   2.
 NSaved= 2 IEnMin= 2 EnMin= -139.982808462824     IErMin= 2 ErrMin= 1.69D-02
 ErrMax= 1.69D-02  0.00D+00 EMaxC= 1.00D-01 BMatC= 2.88D-02 BMatP= 2.61D-01
 IDIUse=3 WtCom= 8.31D-01 WtEn= 1.69D-01
 Coeff-Com: -0.393D+00 0.139D+01
 Coeff-En:   0.000D+00 0.100D+01
 Coeff:     -0.327D+00 0.133D+01
 Gap=     0.132 Goal=   None    Shift=    0.000
 Gap=     0.211 Goal=   None    Shift=    0.000
 RMSDP=6.43D-03 MaxDP=1.22D-01 DE=-3.31D-02 OVMax= 3.44D-01

 Cycle   3  Pass 0  IDiag  1:
 E= -140.028035327207     Delta-E=       -0.045226864383 Rises=F Damp=F
 DIIS: error= 1.33D-02 at cycle   3 NSaved=   3.
 NSaved= 3 IEnMin= 3 EnMin= -140.028035327207     IErMin= 3 ErrMin= 1.33D-02
 ErrMax= 1.33D-02  0.00D+00 EMaxC= 1.00D-01 BMatC= 1.56D-02 BMatP= 2.88D-02
 IDIUse=3 WtCom= 8.67D-01 WtEn= 1.33D-01
 Coeff-Com: -0.476D-01 0.514D+00 0.534D+00
 Coeff-En:   0.000D+00 0.000D+00 0.100D+01
 Coeff:     -0.413D-01 0.446D+00 0.596D+00
 Gap=     0.139 Goal=   None    Shift=    0.000
 Gap=     0.220 Goal=   None    Shift=    0.000
 RMSDP=1.63D-03 MaxDP=2.47D-02 DE=-4.52D-02 OVMax= 3.67D-02

 Cycle   4  Pass 0  IDiag  1:
 E= -140.030899387130     Delta-E=       -0.002864059923 Rises=F Damp=F
 DIIS: error= 6.10D-03 at cycle   4 NSaved=   4.
 NSaved= 4 IEnMin= 4 EnMin= -140.030899387130     IErMin= 4 ErrMin= 6.10D-03
 ErrMax= 6.10D-03  0.00D+00 EMaxC= 1.00D-01 BMatC= 3.63D-03 BMatP= 1.56D-02
 IDIUse=3 WtCom= 9.39D-01 WtEn= 6.10D-02
 Coeff-Com:  0.744D-01-0.219D-01 0.401D+00 0.547D+00
 Coeff-En:   0.000D+00 0.000D+00 0.563D-01 0.944D+00
 Coeff:      0.699D-01-0.206D-01 0.380D+00 0.571D+00
 Gap=     0.144 Goal=   None    Shift=    0.000
 Gap=     0.215 Goal=   None    Shift=    0.000
 RMSDP=6.70D-04 MaxDP=1.15D-02 DE=-2.86D-03 OVMax= 1.64D-02

 Cycle   5  Pass 0  IDiag  1:
 E= -140.031542379268     Delta-E=       -0.000642992139 Rises=F Damp=F
 DIIS: error= 1.44D-03 at cycle   5 NSaved=   5.
 NSaved= 5 IEnMin= 5 EnMin= -140.031542379268     IErMin= 5 ErrMin= 1.44D-03
 ErrMax= 1.44D-03  0.00D+00 EMaxC= 1.00D-01 BMatC= 2.05D-04 BMatP= 3.63D-03
 IDIUse=3 WtCom= 9.86D-01 WtEn= 1.44D-02
 Coeff-Com: -0.739D-02-0.234D-01-0.428D-01 0.159D+00 0.915D+00
 Coeff-En:   0.000D+00 0.000D+00 0.000D+00 0.000D+00 0.100D+01
 Coeff:     -0.728D-02-0.231D-01-0.422D-01 0.156D+00 0.916D+00
 Gap=     0.145 Goal=   None    Shift=    0.000
 Gap=     0.218 Goal=   None    Shift=    0.000
 RMSDP=3.57D-04 MaxDP=4.52D-03 DE=-6.43D-04 OVMax= 9.51D-03

 Cycle   6  Pass 0  IDiag  1:
 E= -140.031603007922     Delta-E=       -0.000060628654 Rises=F Damp=F
 DIIS: error= 3.20D-04 at cycle   6 NSaved=   6.
 NSaved= 6 IEnMin= 6 EnMin= -140.031603007922     IErMin= 6 ErrMin= 3.20D-04
 ErrMax= 3.20D-04  0.00D+00 EMaxC= 1.00D-01 BMatC= 1.27D-05 BMatP= 2.05D-04
 IDIUse=3 WtCom= 9.97D-01 WtEn= 3.20D-03
 Coeff-Com: -0.322D-02-0.472D-02-0.270D-01-0.375D-01 0.175D+00 0.897D+00
 Coeff-En:   0.000D+00 0.000D+00 0.000D+00 0.000D+00 0.000D+00 0.100D+01
 Coeff:     -0.321D-02-0.471D-02-0.269D-01-0.374D-01 0.175D+00 0.897D+00
 Gap=     0.145 Goal=   None    Shift=    0.000
 Gap=     0.218 Goal=   None    Shift=    0.000
 RMSDP=1.07D-04 MaxDP=1.70D-03 DE=-6.06D-05 OVMax= 2.72D-03

 Cycle   7  Pass 0  IDiag  1:
 E= -140.031606940708     Delta-E=       -0.000003932786 Rises=F Damp=F
 DIIS: error= 1.28D-04 at cycle   7 NSaved=   7.
 NSaved= 7 IEnMin= 7 EnMin= -140.031606940708     IErMin= 7 ErrMin= 1.28D-04
 ErrMax= 1.28D-04  0.00D+00 EMaxC= 1.00D-01 BMatC= 1.41D-06 BMatP= 1.27D-05
 IDIUse=3 WtCom= 9.99D-01 WtEn= 1.28D-03
 Coeff-Com: -0.335D-02 0.420D-02-0.935D-02-0.219D-01 0.268D-01 0.359D+00
 Coeff-Com:  0.645D+00
 Coeff-En:   0.000D+00 0.000D+00 0.000D+00 0.000D+00 0.000D+00 0.000D+00
 Coeff-En:   0.100D+01
 Coeff:     -0.335D-02 0.419D-02-0.934D-02-0.219D-01 0.267D-01 0.358D+00
 Coeff:      0.645D+00
 Gap=     0.145 Goal=   None    Shift=    0.000
 Gap=     0.218 Goal=   None    Shift=    0.000
 RMSDP=3.69D-05 MaxDP=5.92D-04 DE=-3.93D-06 OVMax= 1.04D-03

 Cycle   8  Pass 0  IDiag  1:
 E= -140.031607506056     Delta-E=       -0.000000565349 Rises=F Damp=F
 DIIS: error= 1.50D-05 at cycle   8 NSaved=   8.
 NSaved= 8 IEnMin= 8 EnMin= -140.031607506056     IErMin= 8 ErrMin= 1.50D-05
 ErrMax= 1.50D-05  0.00D+00 EMaxC= 1.00D-01 BMatC= 2.21D-08 BMatP= 1.41D-06
 IDIUse=1 WtCom= 1.00D+00 WtEn= 0.00D+00
 Coeff-Com:  0.646D-04 0.102D-03-0.254D-03-0.154D-02-0.640D-02 0.164D-01
 Coeff-Com:  0.865D-01 0.905D+00
 Coeff:      0.646D-04 0.102D-03-0.254D-03-0.154D-02-0.640D-02 0.164D-01
 Coeff:      0.865D-01 0.905D+00
 Gap=     0.145 Goal=   None    Shift=    0.000
 Gap=     0.218 Goal=   None    Shift=    0.000
 RMSDP=4.58D-06 MaxDP=8.69D-05 DE=-5.65D-07 OVMax= 1.13D-04

 Initial convergence to 1.0D-05 achieved.  Increase integral accuracy.
 Cycle   9  Pass 1  IDiag  1:
 E= -140.031609090222     Delta-E=       -0.000001584166 Rises=F Damp=F
 DIIS: error= 4.06D-06 at cycle   1 NSaved=   1.
 NSaved= 1 IEnMin= 1 EnMin= -140.031609090222     IErMin= 1 ErrMin= 4.06D-06
 ErrMax= 4.06D-06  0.00D+00 EMaxC= 1.00D-01 BMatC= 1.42D-09 BMatP= 1.42D-09
 IDIUse=1 WtCom= 1.00D+00 WtEn= 0.00D+00
 Coeff-Com:  0.100D+01
 Coeff:      0.100D+01
 Gap=     0.145 Goal=   None    Shift=    0.000
 Gap=     0.218 Goal=   None    Shift=    0.000
 RMSDP=4.58D-06 MaxDP=8.69D-05 DE=-1.58D-06 OVMax= 7.06D-05

 Cycle  10  Pass 1  IDiag  1:
 E= -140.031609088677     Delta-E=        0.000000001545 Rises=F Damp=F
 DIIS: error= 7.35D-06 at cycle   2 NSaved=   2.
 NSaved= 2 IEnMin= 1 EnMin= -140.031609090222     IErMin= 1 ErrMin= 4.06D-06
 ErrMax= 7.35D-06  0.00D+00 EMaxC= 1.00D-01 BMatC= 6.11D-09 BMatP= 1.42D-09
 IDIUse=1 WtCom= 1.00D+00 WtEn= 0.00D+00
 Coeff-Com:  0.685D+00 0.315D+00
 Coeff:      0.685D+00 0.315D+00
 Gap=     0.145 Goal=   None    Shift=    0.000
 Gap=     0.218 Goal=   None    Shift=    0.000
 RMSDP=1.81D-06 MaxDP=3.40D-05 DE= 1.55D-09 OVMax= 5.09D-05

 Cycle  11  Pass 1  IDiag  1:
 E= -140.031609090708     Delta-E=       -0.000000002032 Rises=F Damp=F
 DIIS: error= 8.00D-07 at cycle   3 NSaved=   3.
 NSaved= 3 IEnMin= 3 EnMin= -140.031609090708     IErMin= 3 ErrMin= 8.00D-07
 ErrMax= 8.00D-07  0.00D+00 EMaxC= 1.00D-01 BMatC= 1.06D-10 BMatP= 1.42D-09
 IDIUse=1 WtCom= 1.00D+00 WtEn= 0.00D+00
 Coeff-Com:  0.241D+00 0.151D+00 0.608D+00
 Coeff:      0.241D+00 0.151D+00 0.608D+00
 Gap=     0.145 Goal=   None    Shift=    0.000
 Gap=     0.218 Goal=   None    Shift=    0.000
 RMSDP=1.36D-07 MaxDP=1.73D-06 DE=-2.03D-09 OVMax= 2.71D-06

 Cycle  12  Pass 1  IDiag  1:
 E= -140.031609090725     Delta-E=       -0.000000000017 Rises=F Damp=F
 DIIS: error= 6.37D-07 at cycle   4 NSaved=   4.
 NSaved= 4 IEnMin= 4 EnMin= -140.031609090725     IErMin= 4 ErrMin= 6.37D-07
 ErrMax= 6.37D-07  0.00D+00 EMaxC= 1.00D-01 BMatC= 3.76D-11 BMatP= 1.06D-10
 IDIUse=1 WtCom= 1.00D+00 WtEn= 0.00D+00
 Coeff-Com:  0.623D-01 0.635D-01 0.385D+00 0.489D+00
 Coeff:      0.623D-01 0.635D-01 0.385D+00 0.489D+00
 Gap=     0.145 Goal=   None    Shift=    0.000
 Gap=     0.218 Goal=   None    Shift=    0.000
 RMSDP=5.54D-08 MaxDP=8.32D-07 DE=-1.69D-11 OVMax= 1.18D-06

 Cycle  13  Pass 1  IDiag  1:
 E= -140.031609090732     Delta-E=       -0.000000000007 Rises=F Damp=F
 DIIS: error= 1.37D-07 at cycle   5 NSaved=   5.
 NSaved= 5 IEnMin= 5 EnMin= -140.031609090732     IErMin= 5 ErrMin= 1.37D-07
 ErrMax= 1.37D-07  0.00D+00 EMaxC= 1.00D-01 BMatC= 2.08D-12 BMatP= 3.76D-11
 IDIUse=1 WtCom= 1.00D+00 WtEn= 0.00D+00
 Coeff-Com: -0.148D-01 0.931D-02 0.683D-01 0.191D+00 0.746D+00
 Coeff:     -0.148D-01 0.931D-02 0.683D-01 0.191D+00 0.746D+00
 Gap=     0.145 Goal=   None    Shift=    0.000
 Gap=     0.218 Goal=   None    Shift=    0.000
 RMSDP=2.60D-08 MaxDP=2.41D-07 DE=-6.65D-12 OVMax= 5.29D-07

 Cycle  14  Pass 1  IDiag  1:
 E= -140.031609090732     Delta-E=       -0.000000000000 Rises=F Damp=F
 DIIS: error= 3.37D-08 at cycle   6 NSaved=   6.
 NSaved= 6 IEnMin= 6 EnMin= -140.031609090732     IErMin= 6 ErrMin= 3.37D-08
 ErrMax= 3.37D-08  0.00D+00 EMaxC= 1.00D-01 BMatC= 8.27D-14 BMatP= 2.08D-12
 IDIUse=1 WtCom= 1.00D+00 WtEn= 0.00D+00
 Coeff-Com: -0.755D-02-0.863D-03-0.134D-01-0.225D-02 0.171D+00 0.853D+00
 Coeff:     -0.755D-02-0.863D-03-0.134D-01-0.225D-02 0.171D+00 0.853D+00
 Gap=     0.145 Goal=   None    Shift=    0.000
 Gap=     0.218 Goal=   None    Shift=    0.000
 RMSDP=4.48D-09 MaxDP=5.60D-08 DE=-2.27D-13 OVMax= 6.75D-08

 SCF Done:  E(UPBE-PBE) =  -140.031609091     A.U. after   14 cycles
            NFock= 14  Conv=0.45D-08     -V/T= 2.0040
 <Sx>= 0.0000 <Sy>= 0.0000 <Sz>= 0.5000 <S**2>= 0.7576 S= 0.5038
 <L.S>= 0.000000000000E+00
 KE= 1.394778128173D+02 PE=-4.095733855779D+02 EE= 9.126785805343D+01
 Annihilation of the first spin contaminant:
 S**2 before annihilation     0.7576,   after     0.7500
 Leave Link  502 at Wed Oct  7 12:53:07 2020, MaxMem=  2684354560 cpu:              21.8 elap:               2.3
 (Enter /udrive/faculty/rpeverati/g16/g16/l508.exe)
 QCSCF skips out because SCF is already converged.
 Leave Link  508 at Wed Oct  7 12:53:08 2020, MaxMem=  2684354560 cpu:               0.6 elap:               0.6
 (Enter /udrive/faculty/rpeverati/g16/g16/l601.exe)
 Copying SCF densities to generalized density rwf, IOpCl= 1 IROHF=0.

 **********************************************************************

            Population analysis using the SCF density.

 **********************************************************************

 Orbital symmetries:
 Alpha Orbitals:
       Occupied  (A') (A') (A') (A') (A') (A') (A") (A") (A') (A')
       Virtual   (A') (A') (A') (A") (A') (A") (A') (A') (A') (A")
                 (A') (A') (A') (A") (A') (A") (A') (A') (A") (A')
                 (A') (A") (A') (A') (A") (A')
 Beta  Orbitals:
       Occupied  (A') (A') (A') (A') (A') (A') (A") (A") (A')
       Virtual   (A') (A') (A') (A') (A") (A') (A") (A') (A') (A')
                 (A") (A') (A') (A') (A") (A') (A") (A') (A') (A")
                 (A') (A') (A") (A') (A') (A") (A')
 The electronic state is 2-A'.
 Alpha  occ. eigenvalues --  -24.23739  -9.92670  -1.02627  -0.63656  -0.44558
 Alpha  occ. eigenvalues --   -0.39074  -0.39071  -0.28641  -0.28641  -0.14057
 Alpha virt. eigenvalues --    0.00466   0.09124   0.14466   0.14466   0.45367
 Alpha virt. eigenvalues --    0.51399   0.51405   0.64772   0.78657   0.83382
 Alpha virt. eigenvalues --    0.83383   0.97167   1.15199   1.15206   1.46607
 Alpha virt. eigenvalues --    1.46611   1.54720   1.69010   1.80788   1.80788
 Alpha virt. eigenvalues --    1.93905   2.03814   2.03818   2.14563   2.14577
 Alpha virt. eigenvalues --    2.70705
  Beta  occ. eigenvalues --  -24.23633  -9.91860  -1.02338  -0.61945  -0.42552
  Beta  occ. eigenvalues --   -0.38470  -0.38466  -0.28384  -0.28383
  Beta virt. eigenvalues --   -0.06541   0.05518   0.09784   0.14935   0.14935
  Beta virt. eigenvalues --    0.48806   0.51878   0.51884   0.73404   0.80079
  Beta virt. eigenvalues --    0.83991   0.83991   0.98806   1.15772   1.15779
  Beta virt. eigenvalues --    1.48460   1.48465   1.56098   1.71061   1.80923
  Beta virt. eigenvalues --    1.80924   1.95849   2.04765   2.04771   2.15707
  Beta virt. eigenvalues --    2.15723   2.73734
          Condensed to atoms (all electrons):
               1          2          3          4          5          6
     1  H    0.920905  -0.080962   0.049133  -0.000314  -0.000317  -0.000317
     2  F   -0.080962   9.420826   0.026472  -0.014665  -0.014635  -0.014635
     3  C    0.049133   0.026472   5.142885   0.372385   0.372322   0.372322
     4  H   -0.000314  -0.014665   0.372385   0.524867  -0.032145  -0.032145
     5  H   -0.000317  -0.014635   0.372322  -0.032145   0.524946  -0.032185
     6  H   -0.000317  -0.014635   0.372322  -0.032145  -0.032185   0.524946
          Atomic-Atomic Spin Densities.
               1          2          3          4          5          6
     1  H    0.788105  -0.218827   0.056497  -0.000779  -0.000780  -0.000780
     2  F   -0.218827   0.263955  -0.133485   0.002266   0.002267   0.002267
     3  C    0.056497  -0.133485   0.618870  -0.006549  -0.006559  -0.006559
     4  H   -0.000779   0.002266  -0.006549  -0.018650   0.001171   0.001171
     5  H   -0.000780   0.002267  -0.006559   0.001171  -0.018635   0.001173
     6  H   -0.000780   0.002267  -0.006559   0.001171   0.001173  -0.018635
 Mulliken charges and spin densities:
               1          2
     1  H    0.111872   0.623436
     2  F   -0.322402  -0.081556
     3  C   -0.335517   0.522215
     4  H    0.182017  -0.021369
     5  H    0.182015  -0.021363
     6  H    0.182015  -0.021363
 Sum of Mulliken charges =  -0.00000   1.00000
 Mulliken charges and spin densities with hydrogens summed into heavy atoms:
               1          2
     2  F   -0.210530   0.541880
     3  C    0.210530   0.458120
 Electronic spatial extent (au):  <R**2>=            104.4629
 Charge=             -0.0000 electrons
 Dipole moment (field-independent basis, Debye):
    X=              0.0002    Y=             -1.2010    Z=              0.0000  Tot=              1.2010
 Quadrupole moment (field-independent basis, Debye-Ang):
   XX=            -12.7751   YY=            -12.1349   ZZ=            -12.7761
   XY=              0.0011   XZ=             -0.0000   YZ=             -0.0000
 Traceless Quadrupole moment (field-independent basis, Debye-Ang):
   XX=             -0.2130   YY=              0.4272   ZZ=             -0.2141
   XY=              0.0011   XZ=             -0.0000   YZ=             -0.0000
 Octapole moment (field-independent basis, Debye-Ang**2):
  XXX=              0.7391  YYY=              5.5974  ZZZ=              0.0000  XYY=             -0.0014
  XXY=              0.3055  XXZ=              0.0000  XZZ=             -0.7395  YZZ=              0.3060
  YYZ=              0.0000  XYZ=              0.0000
 Hexadecapole moment (field-independent basis, Debye-Ang**3):
 XXXX=            -17.1097 YYYY=            -95.6150 ZZZZ=            -17.1092 XXXY=             -0.9035
 XXXZ=              0.0000 YYYX=             -0.0006 YYYZ=             -0.0000 ZZZX=             -0.0000
 ZZZY=             -0.0000 XXYY=            -18.6551 XXZZ=             -5.7033 YYZZ=            -18.6541
 XXYZ=             -0.0000 YYXZ=             -0.0000 ZZXY=              0.8977
 N-N= 3.879610561641D+01 E-N=-4.095733843898D+02  KE= 1.394778128173D+02
                          Isotropic Fermi Contact Couplings
        Atom                 a.u.       MegaHertz       Gauss      10(-4) cm-1
     1  H(1)               0.18739     837.59268     298.87390     279.39085
     2  F(19)              1.11595    4695.30684    1675.40224    1566.18578
     3  C(13)              0.15312     172.13783      61.42306      57.41900
     4  H(1)              -0.00692     -30.93543     -11.03853     -10.31895
     5  H(1)              -0.00692     -30.91771     -11.03221     -10.31304
     6  H(1)              -0.00692     -30.91771     -11.03221     -10.31304
 --------------------------------------------------------
       Center         ----  Spin Dipole Couplings  ----
                      3XX-RR        3YY-RR        3ZZ-RR
 --------------------------------------------------------
     1   Atom        0.016920     -0.033840      0.016920
     2   Atom        0.222981     -0.445959      0.222979
     3   Atom       -0.272686      0.545374     -0.272688
     4   Atom        0.034810      0.000862     -0.035672
     5   Atom       -0.018058      0.000883      0.017175
     6   Atom       -0.018058      0.000883      0.017175
 --------------------------------------------------------
                        XY            XZ            YZ
 --------------------------------------------------------
     1   Atom       -0.000019     -0.000000     -0.000000
     2   Atom       -0.000136      0.000000      0.000000
     3   Atom       -0.000382      0.000000      0.000000
     4   Atom       -0.013649     -0.000000      0.000000
     5   Atom        0.006826     -0.030519     -0.011848
     6   Atom        0.006826      0.030519      0.011848
 --------------------------------------------------------


 ---------------------------------------------------------------------------------
              Anisotropic Spin Dipole Couplings in Principal Axis System
 ---------------------------------------------------------------------------------

       Atom             a.u.   MegaHertz   Gauss  10(-4) cm-1        Axes

              Baa    -0.0338   -18.056    -6.443    -6.023  0.0004  1.0000  0.0000
     1 H(1)   Bbb     0.0169     9.028     3.221     3.011  1.0000 -0.0004  0.0000
              Bcc     0.0169     9.028     3.221     3.011  0.0000  0.0000  1.0000
 
              Baa    -0.4460  -223.972   -79.919   -74.709  0.0002  1.0000 -0.0000
     2 F(19)  Bbb     0.2230   111.986    39.959    37.354 -0.0000  0.0000  1.0000
              Bcc     0.2230   111.987    39.960    37.355  1.0000 -0.0002  0.0000
 
              Baa    -0.2727   -36.592   -13.057   -12.206 -0.0000 -0.0000  1.0000
     3 C(13)  Bbb    -0.2727   -36.592   -13.057   -12.206  1.0000  0.0005  0.0000
              Bcc     0.5454    73.184    26.114    24.412 -0.0005  1.0000  0.0000
 
              Baa    -0.0357   -19.033    -6.791    -6.349  0.0000  0.0000  1.0000
     4 H(1)   Bbb    -0.0039    -2.105    -0.751    -0.702  0.3322  0.9432  0.0000
              Bcc     0.0396    21.138     7.543     7.051  0.9432 -0.3322  0.0000
 
              Baa    -0.0357   -19.037    -6.793    -6.350  0.8660  0.0004  0.5001
     5 H(1)   Bbb    -0.0039    -2.104    -0.751    -0.702 -0.1668  0.9430  0.2880
              Bcc     0.0396    21.141     7.544     7.052 -0.4715 -0.3328  0.8167
 
              Baa    -0.0357   -19.037    -6.793    -6.350  0.8660  0.0004 -0.5001
     6 H(1)   Bbb    -0.0039    -2.104    -0.751    -0.702 -0.1668  0.9430 -0.2880
              Bcc     0.0396    21.141     7.544     7.052  0.4715  0.3328  0.8167
 

 ---------------------------------------------------------------------------------

 No NMR shielding tensors so no spin-rotation constants.
 Leave Link  601 at Wed Oct  7 12:53:09 2020, MaxMem=  2684354560 cpu:               7.7 elap:               1.2
 (Enter /udrive/faculty/rpeverati/g16/g16/l701.exe)
 ... and contract with generalized density number  0.
 Compute integral first derivatives.
 R6Disp: Adding Grimme-D3(BJ) dispersion energy 1st derivatives to the gradient.
 Leave Link  701 at Wed Oct  7 12:53:10 2020, MaxMem=  2684354560 cpu:               5.4 elap:               0.9
 (Enter /udrive/faculty/rpeverati/g16/g16/l702.exe)
 L702 exits ... SP integral derivatives will be done elsewhere.
 Leave Link  702 at Wed Oct  7 12:53:11 2020, MaxMem=  2684354560 cpu:               1.9 elap:               0.7
 (Enter /udrive/faculty/rpeverati/g16/g16/l703.exe)
 Integral derivatives from FoFJK, PRISM(SPDF).
 Compute integral first derivatives, UseDBF=F ICtDFT=           0.
 Calling FoFJK, ICntrl=      2527 FMM=F ISym2X=1 I1Cent= 0 IOpClX= 0 NMat=1 NMatS=1 NMatT=0.
 FoFJK:  IHMeth= 1 ICntrl=    2527 DoSepK=F KAlg= 0 I1Cent=           0 FoldK=F
 IRaf=         0 NMat=       1 IRICut=       1 DoRegI=T DoRafI=F ISym2E= 1 IDoP0=0 IntGTp=1.
 FoFCou: FMM=F IPFlag=           0 FMFlag=      100000 FMFlg1=         800
         NFxFlg=           0 DoJE=F BraDBF=F KetDBF=F FulRan=T
         wScrn=  0.000000 ICntrl=      2527 IOpCl=  0 I1Cent=           0 NGrid=           0
         NMat0=    1 NMatS0=      1 NMatT0=    0 NMatD0=    1 NMtDS0=    0 NMtDT0=    0
 Petite list used in FoFCou.
 Leave Link  703 at Wed Oct  7 12:53:13 2020, MaxMem=  2684354560 cpu:               8.3 elap:               1.1
 (Enter /udrive/faculty/rpeverati/g16/g16/l716.exe)
 Dipole        = 7.55437777D-05-4.72495264D-01 2.22044605D-16
 ***** Axes restored to original set *****
 -------------------------------------------------------------------
 Center     Atomic                   Forces (Hartrees/Bohr)
 Number     Number              X              Y              Z
 -------------------------------------------------------------------
      1        1           0.000001033    0.006262224   -0.000000000
      2        9          -0.000023257    0.005568238   -0.000000000
      3        6           0.000066504   -0.000462168    0.000000000
      4        1           0.008713158   -0.003802897    0.000000000
      5        1          -0.004378719   -0.003782699    0.007626351
      6        1          -0.004378719   -0.003782699   -0.007626351
 -------------------------------------------------------------------
 Cartesian Forces:  Max     0.008713158 RMS     0.004372305
 Leave Link  716 at Wed Oct  7 12:53:14 2020, MaxMem=  2684354560 cpu:               2.0 elap:               0.5
 (Enter /udrive/faculty/rpeverati/g16/g16/l103.exe)

 GradGradGradGradGradGradGradGradGradGradGradGradGradGradGradGradGradGrad
 Berny optimization.
 Optmz: redundant internal coordinate code flag= 1
 FormGI is forming the generalized inverse of G from B-inverse, IUseBI=4.
 Internal  Forces:  Max     0.011830463 RMS     0.005687950
 Search for a saddle point.
 Step number   1 out of a maximum of   50
 All quantities printed in internal units (Hartrees-Bohrs-Radians)
 Swapping is turned off.
 Second derivative matrix not updated -- first step.
 The second derivative matrix:
                          R1        R2        R3        R4        R5
           R1           0.22057
           R2           0.00000   0.19598
           R3           0.00000   0.00000   0.36022
           R4           0.00000   0.00000   0.00000   0.36033
           R5           0.00000   0.00000   0.00000   0.00000   0.36033
           A1           0.00000   0.00000   0.00000   0.00000   0.00000
           A2           0.00000   0.00000   0.00000   0.00000   0.00000
           A3           0.00000   0.00000   0.00000   0.00000   0.00000
           A4           0.00000   0.00000   0.00000   0.00000   0.00000
           A5           0.00000   0.00000   0.00000   0.00000   0.00000
           A6           0.00000   0.00000   0.00000   0.00000   0.00000
           A7           0.00000   0.00000   0.00000   0.00000   0.00000
           A8           0.00000   0.00000   0.00000   0.00000   0.00000
           D1           0.00000   0.00000   0.00000   0.00000   0.00000
                          A1        A2        A3        A4        A5
           A1           0.16000
           A2           0.00000   0.16000
           A3           0.00000   0.00000   0.16000
           A4           0.00000   0.00000   0.00000   0.16000
           A5           0.00000   0.00000   0.00000   0.00000   0.16000
           A6           0.00000   0.00000   0.00000   0.00000   0.00000
           A7           0.00000   0.00000   0.00000   0.00000   0.00000
           A8           0.00000   0.00000   0.00000   0.00000   0.00000
           D1           0.00000   0.00000   0.00000   0.00000   0.00000
                          A6        A7        A8        D1
           A6           0.16000
           A7           0.00000   0.00230
           A8           0.00000   0.00000   0.00230
           D1           0.00000   0.00000   0.00000   0.00371
 ITU=  0
 Eigenvectors of the second derivative matrix:
                           1         2         3         4         5
     Eigenvalues --     0.00230   0.00230   0.05482   0.16000   0.16000
   1         R1        -0.00000   0.00000   0.00000  -0.00000  -0.00000
   2         R2         0.00000  -0.00000   0.00000   0.00000  -0.00000
   3         R3        -0.00000   0.00000   0.00000  -0.00000  -0.00000
   4         R4         0.00000   0.00000  -0.00000   0.00000  -0.00000
   5         R5        -0.00000  -0.00000  -0.00000   0.00000   0.00000
   6         A1         0.00000   0.00000  -0.26170   0.06551  -0.66896
   7         A2         0.00000   0.00000  -0.26168   0.03907   0.68006
   8         A3        -0.00000  -0.00000  -0.26168  -0.01980   0.08608
   9         A4        -0.00000   0.00000   0.29660   0.17965   0.20549
  10         A5         0.00000   0.00000   0.12961  -0.80283  -0.09988
  11         A6        -0.00000   0.00000   0.12958   0.56301  -0.17432
  12         A7         0.49200   0.87060  -0.00000   0.00000   0.00000
  13         A8         0.87060  -0.49200   0.00000   0.00000  -0.00000
  14         D1        -0.00000   0.00000   0.82036  -0.00000  -0.00000
                           6         7         8         9        10
     Eigenvalues --     0.16000   0.16000   0.19598   0.22057   0.36022
   1         R1         0.00000   0.00000   0.00000  -1.00000  -0.00000
   2         R2        -0.00000   0.00000   1.00000   0.00000  -0.00000
   3         R3         0.00000   0.00000   0.00000   0.00000  -1.00000
   4         R4         0.00000   0.00000   0.00000   0.00000   0.00000
   5         R5        -0.00000   0.00000   0.00000  -0.00000   0.00000
   6         A1        -0.31225  -0.36049  -0.00000   0.00000  -0.00000
   7         A2         0.10115  -0.45285   0.00000  -0.00000  -0.00000
   8         A3        -0.10041   0.81328   0.00000   0.00000   0.00000
   9         A4        -0.65914  -0.00017  -0.00000  -0.00000  -0.00000
  10         A5         0.26523  -0.04196   0.00000   0.00000   0.00000
  11         A6         0.61431   0.04219  -0.00000  -0.00000  -0.00000
  12         A7        -0.00000   0.00000   0.00000  -0.00000   0.00000
  13         A8        -0.00000  -0.00000  -0.00000  -0.00000  -0.00000
  14         D1         0.00000  -0.00000  -0.00000   0.00000   0.00000
                          11        12
     Eigenvalues --     0.36033   0.36033
   1         R1         0.00000  -0.00000
   2         R2         0.00000   0.00000
   3         R3        -0.00000  -0.00000
   4         R4        -0.70685  -0.70736
   5         R5        -0.70736   0.70685
   6         A1         0.00000  -0.00000
   7         A2        -0.00000  -0.00000
   8         A3         0.00000   0.00000
   9         A4        -0.00000  -0.00000
  10         A5        -0.00000  -0.00000
  11         A6         0.00000   0.00000
  12         A7        -0.00000   0.00000
  13         A8        -0.00000   0.00000
  14         D1        -0.00000  -0.00000
 Eigenvalue     1 is   2.30D-03 should be less than     0.000000 Eigenvector:
                          A8        A7        R1        A3        D1
   1                    0.87060   0.49200  -0.00000  -0.00000  -0.00000
                          A2        A5        A4        R5        A1
   1                    0.00000   0.00000  -0.00000  -0.00000   0.00000
 RLam0= 2.30D-03.
 Iter=   1 RLamda= 0.00000000D+00 Sum=-1.78312666D-03.
 Iter=   2 RLamda=-1.78312666D-03 Sum=-1.76685729D-03.
 Iter=   3 RLamda=-1.76685729D-03 Sum=-1.76700359D-03.
 Iter=   4 RLamda=-1.76700359D-03 Sum=-1.76700227D-03.
 RFO step:  Lambda0=2.300011302D-03 Lambda=-1.76700359D-03.
 Linear search not attempted -- option 19 set.
 Maximum step size (   0.100) exceeded in Quadratic search.
    -- Step size scaled by   0.784
 Iteration  1 RMS(Cart)=  0.03142770 RMS(Int)=  0.00118253
 Iteration  2 RMS(Cart)=  0.00088594 RMS(Int)=  0.00009682
 Iteration  3 RMS(Cart)=  0.00000189 RMS(Int)=  0.00009681
 Iteration  4 RMS(Cart)=  0.00000000 RMS(Int)=  0.00009681
 ITry= 1 IFail=0 DXMaxC= 6.15D-02 DCOld= 1.00D+10 DXMaxT= 1.00D-01 DXLimC= 3.00D+00 Rises=F
 ClnCor:  largest displacement from symmetrization is 3.07D-02 for atom     6.
 Variable       Old X    -DE/DX   Delta X   Delta X   Delta X     New X
                                 (Linear)    (Quad)   (Total)
    R1        2.34040   0.00626   0.00000   0.02207   0.02136   2.36176
    R2        3.15329   0.01183   0.00000   0.04688   0.04675   3.20004
    R3        2.04047   0.00933   0.00000   0.02020   0.02020   2.06067
    R4        2.04030   0.00941   0.00000   0.02036   0.01845   2.05874
    R5        2.04030   0.00941   0.00000   0.02036   0.01845   2.05874
    A1        1.79058   0.00093   0.00000   0.01125   0.01127   1.80184
    A2        1.79134   0.00086   0.00000   0.01089   0.00353   1.79487
    A3        1.79134   0.00086   0.00000   0.01089   0.00353   1.79487
    A4        2.01363   0.00001   0.00000  -0.00756  -0.00567   2.00797
    A5        2.01363  -0.00097   0.00000  -0.00802  -0.00567   2.00797
    A6        2.01322  -0.00092   0.00000  -0.00780  -0.00179   2.01143
    A7        3.14120   0.00000   0.00000  -0.03604  -0.03511   3.10609
    A8        3.14159  -0.00000   0.00000  -0.06498   0.00000   3.14159
    D1        2.41803  -0.00234   0.00000  -0.03246  -0.01854   2.39949
         Item               Value     Threshold  Converged?
 Maximum Force            0.011830     0.000450     NO 
 RMS     Force            0.005688     0.000300     NO 
 Maximum Displacement     0.061484     0.001800     NO 
 RMS     Displacement     0.026292     0.001200     NO 
 Predicted change in Energy=-8.092542D-04
 Lowest energy point so far.  Saving SCF results.
 Largest change from initial coordinates is atom    1       0.016 Angstoms.
 GradGradGradGradGradGradGradGradGradGradGradGradGradGradGradGradGradGrad

 Leave Link  103 at Wed Oct  7 12:53:14 2020, MaxMem=  2684354560 cpu:               3.5 elap:               0.7
 (Enter /udrive/faculty/rpeverati/g16/g16/l202.exe)
                          Input orientation:                          
 ---------------------------------------------------------------------
 Center     Atomic      Atomic             Coordinates (Angstroms)
 Number     Number       Type             X           Y           Z
 ---------------------------------------------------------------------
      1          1           0        0.015697    2.033503    0.000000
      2          9           0       -0.017043    0.784140    0.000000
      3          6           0       -0.001284   -0.909177    0.000000
      4          1           0        1.062476   -1.148996    0.000000
      5          1           0       -0.529790   -1.156181    0.920081
      6          1           0       -0.529790   -1.156181   -0.920081
 ---------------------------------------------------------------------
                    Distance matrix (angstroms):
                    1          2          3          4          5
     1  H    0.000000
     2  F    1.249792   0.000000
     3  C    2.942729   1.693390   0.000000
     4  H    3.350230   2.214130   1.090457   0.000000
     5  H    3.364252   2.207782   1.089440   1.838997   0.000000
     6  H    3.364252   2.207782   1.089440   1.838997   1.840162
                    6
     6  H    0.000000
 Stoichiometry    CH4F(2)
 Framework group  CS[SG(CH2F),X(H2)]
 Deg. of freedom     8
 Full point group                 CS      NOp   2
 RotChk:  IX=0 Diff= 1.32D-02
 Largest Abelian subgroup         CS      NOp   2
 Largest concise Abelian subgroup CS      NOp   2
                         Standard orientation:                         
 ---------------------------------------------------------------------
 Center     Atomic      Atomic             Coordinates (Angstroms)
 Number     Number       Type             X           Y           Z
 ---------------------------------------------------------------------
      1          1           0        0.042036    2.024024    0.000000
      2          9           0       -0.002331    0.775019    0.000000
      3          6           0       -0.002331   -0.918371   -0.000000
      4          1           0        1.059151   -1.168079    0.000000
      5          1           0       -0.533112   -1.160446    0.920081
      6          1           0       -0.533112   -1.160446   -0.920081
 ---------------------------------------------------------------------
 Rotational constants (GHZ):         148.1409439          16.1389551          16.1383265
 Leave Link  202 at Wed Oct  7 12:53:15 2020, MaxMem=  2684354560 cpu:               1.8 elap:               0.5
 (Enter /udrive/faculty/rpeverati/g16/g16/l301.exe)
 Standard basis: 6-31G(d) (5D, 7F)
 Ernie: Thresh=  0.10000D-02 Tol=  0.10000D-05 Strict=F.
 There are    28 symmetry adapted cartesian basis functions of A'  symmetry.
 There are    10 symmetry adapted cartesian basis functions of A"  symmetry.
 There are    26 symmetry adapted basis functions of A'  symmetry.
 There are    10 symmetry adapted basis functions of A"  symmetry.
    36 basis functions,    72 primitive gaussians,    38 cartesian basis functions
    10 alpha electrons        9 beta electrons
       nuclear repulsion energy        38.3059038681 Hartrees.
 IExCor= 1009 DFT=T Ex=PBE Corr=PBE ExCW=0 ScaHFX=  0.000000
 ScaDFX=  1.000000  1.000000  1.000000  1.000000 ScalE2=  1.000000  1.000000
 IRadAn=      5 IRanWt=     -1 IRanGd=            0 ICorTp=0 IEmpDi=141
 NAtoms=    6 NActive=    6 NUniq=    5 SFac= 1.44D+00 NAtFMM=   60 NAOKFM=F Big=F
 Integral buffers will be    131072 words long.
 Raffenetti 2 integral format.
 Two-electron integral symmetry is turned on.
 R6Disp:  Grimme-D3(BJ) Dispersion energy=       -0.0016611792 Hartrees.
 Nuclear repulsion after empirical dispersion term =       38.3042426890 Hartrees.
 Leave Link  301 at Wed Oct  7 12:53:16 2020, MaxMem=  2684354560 cpu:               2.7 elap:               0.6
 (Enter /udrive/faculty/rpeverati/g16/g16/l302.exe)
 NPDir=0 NMtPBC=     1 NCelOv=     1 NCel=       1 NClECP=     1 NCelD=      1
         NCelK=      1 NCelE2=     1 NClLst=     1 CellRange=     0.0.
 One-electron integrals computed using PRISM.
 One-electron integral symmetry used in STVInt
 NBasis=    36 RedAO= T EigKep=  2.17D-02  NBF=    26    10
 NBsUse=    36 1.00D-06 EigRej= -1.00D+00 NBFU=    26    10
 Precomputing XC quadrature grid using
 IXCGrd= 4 IRadAn=           5 IRanWt=          -1 IRanGd=           0 AccXCQ= 0.00D+00.
 Generated NRdTot=       0 NPtTot=           0 NUsed=           0 NTot=          32
 NSgBfM=    38    38    38    38    38 MxSgAt=     6 MxSgA2=     6.
 Leave Link  302 at Wed Oct  7 12:53:17 2020, MaxMem=  2684354560 cpu:               4.6 elap:               0.7
 (Enter /udrive/faculty/rpeverati/g16/g16/l303.exe)
 DipDrv:  MaxL=1.
 Leave Link  303 at Wed Oct  7 12:53:18 2020, MaxMem=  2684354560 cpu:               2.1 elap:               0.7
 (Enter /udrive/faculty/rpeverati/g16/g16/l401.exe)
 Initial guess from the checkpoint file:  "MN_53_hfch3ts_BH76_PBEDBJ_631Gs.chk"
 SCF N**3 symmetry information disabled.
 B after Tr=    -0.000000   -0.000000   -0.000000
         Rot=    0.999997    0.000000    0.000000    0.002421 Ang=   0.28 deg.
 Guess basis will be translated and rotated to current coordinates.
 JPrj=2 DoOrth=T DoCkMO=T.
 Initial guess orbital symmetries:
 Alpha Orbitals:
       Occupied  (A') (A') (A') (A') (A') (A') (A") (A") (A') (A')
       Virtual   (A') (A') (A') (A") (A') (A") (A') (A') (A') (A")
                 (A') (A') (A') (A") (A') (A") (A') (A') (A") (A')
                 (A') (A") (A') (A') (A") (A')
 Beta  Orbitals:
       Occupied  (A') (A') (A') (A') (A') (A') (A") (A") (A')
       Virtual   (A') (A') (A') (A') (A") (A') (A") (A') (A') (A')
                 (A") (A') (A') (A') (A") (A') (A") (A') (A') (A")
                 (A') (A') (A") (A') (A') (A") (A')
 The electronic state of the initial guess is 2-A'.
 Initial guess <Sx>= 0.0000 <Sy>= 0.0000 <Sz>= 0.5000 <S**2>= 0.7577 S= 0.5039
 Generating alternative initial guess.
 ExpMin= 1.61D-01 ExpMax= 7.00D+03 ExpMxC= 1.05D+03 IAcc=2 IRadAn=         4 AccDes= 0.00D+00
 Harris functional with IExCor= 1009 and IRadAn=       4 diagonalized for initial guess.
 HarFok:  IExCor= 1009 AccDes= 0.00D+00 IRadAn=         4 IDoV= 1 UseB2=F ITyADJ=14
 ICtDFT=  3500011 ScaDFX=  1.000000  1.000000  1.000000  1.000000
 FoFCou: FMM=F IPFlag=           0 FMFlag=      100000 FMFlg1=           0
         NFxFlg=           0 DoJE=T BraDBF=F KetDBF=T FulRan=T
         wScrn=  0.000000 ICntrl=       500 IOpCl=  0 I1Cent=   200000004 NGrid=           0
         NMat0=    1 NMatS0=      1 NMatT0=    0 NMatD0=    1 NMtDS0=    0 NMtDT0=    0
 Petite list used in FoFCou.
 Harris En= -140.058478151928    
 Leave Link  401 at Wed Oct  7 12:53:19 2020, MaxMem=  2684354560 cpu:               8.7 elap:               1.0
 (Enter /udrive/faculty/rpeverati/g16/g16/l502.exe)
 Keep J ints in memory in symmetry-blocked form, NReq=10578875.
 FoFCou: FMM=F IPFlag=           0 FMFlag=           0 FMFlg1=           0
         NFxFlg=           0 DoJE=F BraDBF=F KetDBF=F FulRan=T
         wScrn=  0.000000 ICntrl=       600 IOpCl=  0 I1Cent=           0 NGrid=           0
         NMat0=    1 NMatS0=    666 NMatT0=    0 NMatD0=    1 NMtDS0=    0 NMtDT0=    0
 Petite list used in FoFCou.
 UHF open shell SCF:
 Using DIIS extrapolation, IDIIS=  1040.
 NGot=  2684354560 LenX=  2684232161 LenY=  2684230276
 Requested convergence on RMS density matrix=1.00D-08 within 120 cycles.
 Requested convergence on MAX density matrix=1.00D-06.
 Requested convergence on             energy=1.00D-06.
 No special actions if energy rises.
 Integral accuracy reduced to 1.0D-05 until final iterations.

 Cycle   1  Pass 0  IDiag  1:
 E= -140.032271659027    
 DIIS: error= 1.74D-03 at cycle   1 NSaved=   1.
 NSaved= 1 IEnMin= 1 EnMin= -140.032271659027     IErMin= 1 ErrMin= 1.74D-03
 ErrMax= 1.74D-03  0.00D+00 EMaxC= 1.00D-01 BMatC= 5.20D-04 BMatP= 5.20D-04
 IDIUse=3 WtCom= 9.83D-01 WtEn= 1.74D-02
 Coeff-Com:  0.100D+01
 Coeff-En:   0.100D+01
 Coeff:      0.100D+01
 Gap=     0.144 Goal=   None    Shift=    0.000
 Gap=     0.213 Goal=   None    Shift=    0.000
 GapD=    0.144 DampG=1.000 DampE=1.000 DampFc=1.0000 IDamp=-1.
 RMSDP=6.87D-04 MaxDP=7.99D-03              OVMax= 1.27D-02

 Cycle   2  Pass 0  IDiag  1:
 E= -140.032462591207     Delta-E=       -0.000190932180 Rises=F Damp=F
 DIIS: error= 1.13D-03 at cycle   2 NSaved=   2.
 NSaved= 2 IEnMin= 2 EnMin= -140.032462591207     IErMin= 2 ErrMin= 1.13D-03
 ErrMax= 1.13D-03  0.00D+00 EMaxC= 1.00D-01 BMatC= 1.06D-04 BMatP= 5.20D-04
 IDIUse=3 WtCom= 9.89D-01 WtEn= 1.13D-02
 Coeff-Com:  0.242D+00 0.758D+00
 Coeff-En:   0.000D+00 0.100D+01
 Coeff:      0.240D+00 0.760D+00
 Gap=     0.143 Goal=   None    Shift=    0.000
 Gap=     0.212 Goal=   None    Shift=    0.000
 RMSDP=3.16D-04 MaxDP=5.98D-03 DE=-1.91D-04 OVMax= 7.17D-03

 Cycle   3  Pass 0  IDiag  1:
 E= -140.032456922265     Delta-E=        0.000005668942 Rises=F Damp=F
 DIIS: error= 1.12D-03 at cycle   3 NSaved=   3.
 NSaved= 3 IEnMin= 2 EnMin= -140.032462591207     IErMin= 3 ErrMin= 1.12D-03
 ErrMax= 1.12D-03  0.00D+00 EMaxC= 1.00D-01 BMatC= 1.19D-04 BMatP= 1.06D-04
 IDIUse=3 WtCom= 2.30D-01 WtEn= 7.70D-01
 Coeff-Com:  0.160D-01 0.514D+00 0.470D+00
 Coeff-En:   0.000D+00 0.540D+00 0.460D+00
 Coeff:      0.368D-02 0.534D+00 0.462D+00
 Gap=     0.143 Goal=   None    Shift=    0.000
 Gap=     0.212 Goal=   None    Shift=    0.000
 RMSDP=2.42D-04 MaxDP=4.60D-03 DE= 5.67D-06 OVMax= 6.73D-03

 Cycle   4  Pass 0  IDiag  1:
 E= -140.032487071889     Delta-E=       -0.000030149624 Rises=F Damp=F
 DIIS: error= 2.75D-04 at cycle   4 NSaved=   4.
 NSaved= 4 IEnMin= 4 EnMin= -140.032487071889     IErMin= 4 ErrMin= 2.75D-04
 ErrMax= 2.75D-04  0.00D+00 EMaxC= 1.00D-01 BMatC= 9.02D-06 BMatP= 1.06D-04
 IDIUse=3 WtCom= 9.97D-01 WtEn= 2.75D-03
 Coeff-Com:  0.152D-02 0.253D+00 0.275D+00 0.470D+00
 Coeff-En:   0.000D+00 0.000D+00 0.616D-01 0.938D+00
 Coeff:      0.152D-02 0.253D+00 0.274D+00 0.472D+00
 Gap=     0.143 Goal=   None    Shift=    0.000
 Gap=     0.212 Goal=   None    Shift=    0.000
 RMSDP=9.09D-05 MaxDP=1.48D-03 DE=-3.01D-05 OVMax= 2.62D-03

 Cycle   5  Pass 0  IDiag  1:
 E= -140.032490057354     Delta-E=       -0.000002985465 Rises=F Damp=F
 DIIS: error= 1.23D-04 at cycle   5 NSaved=   5.
 NSaved= 5 IEnMin= 5 EnMin= -140.032490057354     IErMin= 5 ErrMin= 1.23D-04
 ErrMax= 1.23D-04  0.00D+00 EMaxC= 1.00D-01 BMatC= 1.94D-06 BMatP= 9.02D-06
 IDIUse=3 WtCom= 9.99D-01 WtEn= 1.23D-03
 Coeff-Com: -0.182D-02 0.102D+00 0.121D+00 0.334D+00 0.446D+00
 Coeff-En:   0.000D+00 0.000D+00 0.000D+00 0.658D-01 0.934D+00
 Coeff:     -0.182D-02 0.102D+00 0.120D+00 0.333D+00 0.446D+00
 Gap=     0.143 Goal=   None    Shift=    0.000
 Gap=     0.212 Goal=   None    Shift=    0.000
 RMSDP=1.12D-05 MaxDP=1.77D-04 DE=-2.99D-06 OVMax= 2.66D-04

 Cycle   6  Pass 0  IDiag  1:
 E= -140.032490403934     Delta-E=       -0.000000346580 Rises=F Damp=F
 DIIS: error= 4.25D-05 at cycle   6 NSaved=   6.
 NSaved= 6 IEnMin= 6 EnMin= -140.032490403934     IErMin= 6 ErrMin= 4.25D-05
 ErrMax= 4.25D-05  0.00D+00 EMaxC= 1.00D-01 BMatC= 1.16D-07 BMatP= 1.94D-06
 IDIUse=1 WtCom= 1.00D+00 WtEn= 0.00D+00
 Coeff-Com: -0.924D-03-0.266D-01-0.370D-01 0.461D-01 0.136D+00 0.883D+00
 Coeff:     -0.924D-03-0.266D-01-0.370D-01 0.461D-01 0.136D+00 0.883D+00
 Gap=     0.143 Goal=   None    Shift=    0.000
 Gap=     0.212 Goal=   None    Shift=    0.000
 RMSDP=5.87D-06 MaxDP=7.85D-05 DE=-3.47D-07 OVMax= 1.48D-04

 Initial convergence to 1.0D-05 achieved.  Increase integral accuracy.
 Cycle   7  Pass 1  IDiag  1:
 E= -140.032491316709     Delta-E=       -0.000000912775 Rises=F Damp=F
 DIIS: error= 4.51D-06 at cycle   1 NSaved=   1.
 NSaved= 1 IEnMin= 1 EnMin= -140.032491316709     IErMin= 1 ErrMin= 4.51D-06
 ErrMax= 4.51D-06  0.00D+00 EMaxC= 1.00D-01 BMatC= 2.06D-09 BMatP= 2.06D-09
 IDIUse=1 WtCom= 1.00D+00 WtEn= 0.00D+00
 Coeff-Com:  0.100D+01
 Coeff:      0.100D+01
 Gap=     0.143 Goal=   None    Shift=    0.000
 Gap=     0.212 Goal=   None    Shift=    0.000
 RMSDP=5.87D-06 MaxDP=7.85D-05 DE=-9.13D-07 OVMax= 4.62D-05

 Cycle   8  Pass 1  IDiag  1:
 E= -140.032491315813     Delta-E=        0.000000000896 Rises=F Damp=F
 DIIS: error= 7.50D-06 at cycle   2 NSaved=   2.
 NSaved= 2 IEnMin= 1 EnMin= -140.032491316709     IErMin= 1 ErrMin= 4.51D-06
 ErrMax= 7.50D-06  0.00D+00 EMaxC= 1.00D-01 BMatC= 5.35D-09 BMatP= 2.06D-09
 IDIUse=1 WtCom= 1.00D+00 WtEn= 0.00D+00
 Coeff-Com:  0.635D+00 0.365D+00
 Coeff:      0.635D+00 0.365D+00
 Gap=     0.143 Goal=   None    Shift=    0.000
 Gap=     0.212 Goal=   None    Shift=    0.000
 RMSDP=1.91D-06 MaxDP=3.63D-05 DE= 8.96D-10 OVMax= 5.51D-05

 Cycle   9  Pass 1  IDiag  1:
 E= -140.032491317486     Delta-E=       -0.000000001673 Rises=F Damp=F
 DIIS: error= 2.03D-06 at cycle   3 NSaved=   3.
 NSaved= 3 IEnMin= 3 EnMin= -140.032491317486     IErMin= 3 ErrMin= 2.03D-06
 ErrMax= 2.03D-06  0.00D+00 EMaxC= 1.00D-01 BMatC= 4.77D-10 BMatP= 2.06D-09
 IDIUse=1 WtCom= 1.00D+00 WtEn= 0.00D+00
 Coeff-Com:  0.824D-01 0.224D+00 0.693D+00
 Coeff:      0.824D-01 0.224D+00 0.693D+00
 Gap=     0.143 Goal=   None    Shift=    0.000
 Gap=     0.212 Goal=   None    Shift=    0.000
 RMSDP=3.15D-07 MaxDP=3.98D-06 DE=-1.67D-09 OVMax= 6.55D-06

 Cycle  10  Pass 1  IDiag  1:
 E= -140.032491317609     Delta-E=       -0.000000000123 Rises=F Damp=F
 DIIS: error= 1.09D-06 at cycle   4 NSaved=   4.
 NSaved= 4 IEnMin= 4 EnMin= -140.032491317609     IErMin= 4 ErrMin= 1.09D-06
 ErrMax= 1.09D-06  0.00D+00 EMaxC= 1.00D-01 BMatC= 1.18D-10 BMatP= 4.77D-10
 IDIUse=1 WtCom= 1.00D+00 WtEn= 0.00D+00
 Coeff-Com: -0.494D-01 0.107D+00 0.430D+00 0.513D+00
 Coeff:     -0.494D-01 0.107D+00 0.430D+00 0.513D+00
 Gap=     0.143 Goal=   None    Shift=    0.000
 Gap=     0.212 Goal=   None    Shift=    0.000
 RMSDP=1.14D-07 MaxDP=1.71D-06 DE=-1.23D-10 OVMax= 2.49D-06

 Cycle  11  Pass 1  IDiag  1:
 E= -140.032491317631     Delta-E=       -0.000000000022 Rises=F Damp=F
 DIIS: error= 2.77D-07 at cycle   5 NSaved=   5.
 NSaved= 5 IEnMin= 5 EnMin= -140.032491317631     IErMin= 5 ErrMin= 2.77D-07
 ErrMax= 2.77D-07  0.00D+00 EMaxC= 1.00D-01 BMatC= 1.09D-11 BMatP= 1.18D-10
 IDIUse=1 WtCom= 1.00D+00 WtEn= 0.00D+00
 Coeff-Com: -0.508D-01-0.186D-02 0.761D-02 0.238D+00 0.808D+00
 Coeff:     -0.508D-01-0.186D-02 0.761D-02 0.238D+00 0.808D+00
 Gap=     0.143 Goal=   None    Shift=    0.000
 Gap=     0.212 Goal=   None    Shift=    0.000
 RMSDP=4.88D-08 MaxDP=5.26D-07 DE=-2.19D-11 OVMax= 1.16D-06

 Cycle  12  Pass 1  IDiag  1:
 E= -140.032491317634     Delta-E=       -0.000000000003 Rises=F Damp=F
 DIIS: error= 3.32D-08 at cycle   6 NSaved=   6.
 NSaved= 6 IEnMin= 6 EnMin= -140.032491317634     IErMin= 6 ErrMin= 3.32D-08
 ErrMax= 3.32D-08  0.00D+00 EMaxC= 1.00D-01 BMatC= 1.65D-13 BMatP= 1.09D-11
 IDIUse=1 WtCom= 1.00D+00 WtEn= 0.00D+00
 Coeff-Com: -0.942D-02-0.436D-02-0.112D-01 0.230D-01 0.184D+00 0.818D+00
 Coeff:     -0.942D-02-0.436D-02-0.112D-01 0.230D-01 0.184D+00 0.818D+00
 Gap=     0.143 Goal=   None    Shift=    0.000
 Gap=     0.212 Goal=   None    Shift=    0.000
 RMSDP=9.42D-09 MaxDP=8.69D-08 DE=-3.07D-12 OVMax= 1.75D-07

 SCF Done:  E(UPBE-PBE) =  -140.032491318     A.U. after   12 cycles
            NFock= 12  Conv=0.94D-08     -V/T= 2.0045
 <Sx>= 0.0000 <Sy>= 0.0000 <Sz>= 0.5000 <S**2>= 0.7583 S= 0.5042
 <L.S>= 0.000000000000E+00
 KE= 1.394074499575D+02 PE=-4.085796456686D+02 EE= 9.083546170448D+01
 Annihilation of the first spin contaminant:
 S**2 before annihilation     0.7583,   after     0.7500
 Leave Link  502 at Wed Oct  7 12:53:22 2020, MaxMem=  2684354560 cpu:              19.3 elap:               2.1
 (Enter /udrive/faculty/rpeverati/g16/g16/l508.exe)
 QCSCF skips out because SCF is already converged.
 Leave Link  508 at Wed Oct  7 12:53:22 2020, MaxMem=  2684354560 cpu:               0.3 elap:               0.5
 (Enter /udrive/faculty/rpeverati/g16/g16/l701.exe)
 ... and contract with generalized density number  0.
 Compute integral first derivatives.
 R6Disp: Adding Grimme-D3(BJ) dispersion energy 1st derivatives to the gradient.
 Leave Link  701 at Wed Oct  7 12:53:23 2020, MaxMem=  2684354560 cpu:               4.5 elap:               0.7
 (Enter /udrive/faculty/rpeverati/g16/g16/l702.exe)
 L702 exits ... SP integral derivatives will be done elsewhere.
 Leave Link  702 at Wed Oct  7 12:53:24 2020, MaxMem=  2684354560 cpu:               2.1 elap:               0.5
 (Enter /udrive/faculty/rpeverati/g16/g16/l703.exe)
 Integral derivatives from FoFJK, PRISM(SPDF).
 Compute integral first derivatives, UseDBF=F ICtDFT=           0.
 Calling FoFJK, ICntrl=      2527 FMM=F ISym2X=1 I1Cent= 0 IOpClX= 0 NMat=1 NMatS=1 NMatT=0.
 FoFJK:  IHMeth= 1 ICntrl=    2527 DoSepK=F KAlg= 0 I1Cent=           0 FoldK=F
 IRaf=         0 NMat=       1 IRICut=       1 DoRegI=T DoRafI=F ISym2E= 1 IDoP0=0 IntGTp=1.
 FoFCou: FMM=F IPFlag=           0 FMFlag=      100000 FMFlg1=         800
         NFxFlg=           0 DoJE=F BraDBF=F KetDBF=F FulRan=T
         wScrn=  0.000000 ICntrl=      2527 IOpCl=  0 I1Cent=           0 NGrid=           0
         NMat0=    1 NMatS0=      1 NMatT0=    0 NMatD0=    1 NMtDS0=    0 NMtDT0=    0
 Petite list used in FoFCou.
 Leave Link  703 at Wed Oct  7 12:53:26 2020, MaxMem=  2684354560 cpu:               8.3 elap:               1.1
 (Enter /udrive/faculty/rpeverati/g16/g16/l716.exe)
 Dipole        = 6.15683733D-03-4.54550581D-01 0.00000000D+00
 ***** Axes restored to original set *****
 -------------------------------------------------------------------
 Center     Atomic                   Forces (Hartrees/Bohr)
 Number     Number              X              Y              Z
 -------------------------------------------------------------------
      1        1          -0.000080668    0.000079893    0.000000000
      2        9           0.000240427    0.006994885    0.000000000
      3        6           0.000580901   -0.003377839   -0.000000000
      4        1           0.001845313   -0.000929077   -0.000000000
      5        1          -0.001292986   -0.001383931    0.001973188
      6        1          -0.001292986   -0.001383931   -0.001973188
 -------------------------------------------------------------------
 Cartesian Forces:  Max     0.006994885 RMS     0.002107866
 Leave Link  716 at Wed Oct  7 12:53:26 2020, MaxMem=  2684354560 cpu:               2.3 elap:               0.7
 (Enter /udrive/faculty/rpeverati/g16/g16/l103.exe)

 GradGradGradGradGradGradGradGradGradGradGradGradGradGradGradGradGradGrad
 Berny optimization.
 Optmz: redundant internal coordinate code flag= 1
 Red2BG:  D1=  2.49D-01 OD1=  1.16D-01 B2RMS=  0.00D+00 IAprox=0
 FormGI is forming the generalized inverse of G from B-inverse, IUseBI=4.
 Internal  Forces:  Max     0.007072985 RMS     0.002229503
 Search for a saddle point.
 Step number   2 out of a maximum of   50
 All quantities printed in internal units (Hartrees-Bohrs-Radians)
 Swapping is turned off.
 Update second derivatives using D2CorX and points    1    2
 The second derivative matrix:
                          R1        R2        R3        R4        R5
           R1           0.22942
           R2           0.00775   0.12193
           R3           0.00633  -0.00865   0.36226
           R4           0.00594  -0.00664   0.00217   0.36259
           R5           0.00594  -0.00664   0.00217   0.00225   0.36259
           A1           0.00214  -0.01575  -0.00157  -0.00115  -0.00115
           A2           0.00071  -0.00459  -0.00041  -0.00029  -0.00029
           A3           0.00071  -0.00459  -0.00041  -0.00029  -0.00029
           A4          -0.00051   0.01237   0.00189   0.00154   0.00154
           A5          -0.00140   0.00535   0.00015   0.00002   0.00002
           A6          -0.00059   0.00052  -0.00024  -0.00025  -0.00025
           A7          -0.01104   0.01481  -0.00359  -0.00382  -0.00382
           A8          -0.00000  -0.00000  -0.00000  -0.00000  -0.00000
           D1          -0.00780  -0.00766  -0.00572  -0.00536  -0.00536
                          A1        A2        A3        A4        A5
           A1           0.15668
           A2          -0.00096   0.15972
           A3          -0.00096  -0.00028   0.15972
           A4           0.00267   0.00079   0.00079   0.15800
           A5           0.00110   0.00031   0.00031  -0.00096   0.15969
           A6           0.00008   0.00002   0.00002  -0.00013   0.00001
           A7           0.00267   0.00069   0.00069  -0.00325  -0.00024
           A8          -0.00000  -0.00000  -0.00000   0.00000   0.00000
           D1          -0.00206  -0.00068  -0.00068   0.00058   0.00130
                          A6        A7        A8        D1
           A6           0.16003
           A7           0.00042   0.00865
           A8           0.00000   0.00000   0.00230
           D1           0.00053   0.00998   0.00000   0.01058
 ITU=  0  0
 Eigenvectors of the second derivative matrix:
                           1         2         3         4         5
     Eigenvalues --     0.00230   0.00552   0.06024   0.12063   0.16000
   1         R1        -0.00000   0.04946   0.05379  -0.05497   0.00000
   2         R2         0.00000  -0.12589  -0.10199   0.95029  -0.00000
   3         R3         0.00000   0.00496   0.00803   0.03961   0.00000
   4         R4        -0.00000   0.00637   0.00884   0.03132  -0.00000
   5         R5        -0.00000   0.00637   0.00884   0.03132  -0.00000
   6         A1         0.00000   0.01035  -0.26962   0.15112   0.06676
   7         A2        -0.00000   0.03238  -0.25075  -0.12437   0.66108
   8         A3        -0.00000   0.03238  -0.25075  -0.12437  -0.72150
   9         A4         0.00000  -0.01780   0.31378  -0.01918   0.01337
  10         A5         0.00000  -0.01407   0.12571  -0.01512   0.12798
  11         A6         0.00000  -0.02258   0.11918   0.10535  -0.14629
  12         A7        -0.00000   0.98640   0.07374   0.13761   0.00000
  13         A8         1.00000   0.00000   0.00000  -0.00000  -0.00000
  14         D1         0.00000  -0.07334   0.80879   0.07739   0.00000
                           6         7         8         9        10
     Eigenvalues --     0.16000   0.16017   0.16124   0.23005   0.36024
   1         R1        -0.00000   0.02039   0.01384  -0.99264  -0.00284
   2         R2         0.00000   0.00327  -0.25095  -0.07169   0.00733
   3         R3        -0.00000   0.00356  -0.00538   0.04386  -0.82240
   4         R4        -0.00000   0.00343  -0.00418   0.04196   0.40224
   5         R5        -0.00000   0.00343  -0.00418   0.04196   0.40224
   6         A1         0.31030  -0.30476   0.67738  -0.01901   0.00042
   7         A2        -0.28915  -0.01609  -0.38435  -0.01013  -0.00045
   8         A3         0.00831  -0.01609  -0.38435  -0.01013  -0.00045
   9         A4         0.06216  -0.67127  -0.19994   0.00053  -0.00018
  10         A5         0.59482   0.59196  -0.09722   0.01726   0.00009
  11         A6        -0.67997   0.32405   0.36454   0.01066   0.00044
  12         A7        -0.00000   0.00788  -0.01153   0.04379   0.00007
  13         A8        -0.00000   0.00000   0.00000   0.00000   0.00000
  14         D1        -0.00000   0.00732  -0.00491   0.03456   0.00033
                          11        12
     Eigenvalues --     0.36033   0.36862
   1         R1        -0.00000  -0.07549
   2         R2         0.00000   0.05018
   3         R3         0.00000  -0.56571
   4         R4        -0.70711  -0.57906
   5         R5         0.70711  -0.57906
   6         A1         0.00000  -0.00360
   7         A2        -0.00000  -0.00857
   8         A3        -0.00000  -0.00857
   9         A4        -0.00000   0.00094
  10         A5         0.00000   0.00646
  11         A6         0.00000   0.00763
  12         A7        -0.00000   0.02278
  13         A8         0.00000   0.00000
  14         D1         0.00000   0.01854
 Eigenvalue     1 is   2.30D-03 should be less than     0.000000 Eigenvector:
                          A8        A7        R2        R1        D1
   1                    1.00000  -0.00000   0.00000  -0.00000   0.00000
                          A3        A2        A6        A4        A5
   1                   -0.00000  -0.00000   0.00000   0.00000   0.00000
 RLam0= 2.30D-03.
 Iter=   1 RLamda= 0.00000000D+00 Sum=-5.54457341D-04.
 Iter=   2 RLamda=-5.54457341D-04 Sum=-5.47427736D-04.
 Iter=   3 RLamda=-5.47427736D-04 Sum=-5.47511367D-04.
 Iter=   4 RLamda=-5.47511367D-04 Sum=-5.47510371D-04.
 RFO step:  Lambda0=2.300010000D-03 Lambda=-5.47511367D-04.
 Linear search not attempted -- option 19 set.
 Maximum step size (   0.100) exceeded in Quadratic search.
    -- Step size scaled by   0.650
 Iteration  1 RMS(Cart)=  0.02767130 RMS(Int)=  0.00163588
 Iteration  2 RMS(Cart)=  0.00137516 RMS(Int)=  0.00000663
 Iteration  3 RMS(Cart)=  0.00000382 RMS(Int)=  0.00000565
 Iteration  4 RMS(Cart)=  0.00000000 RMS(Int)=  0.00000565
 ITry= 1 IFail=0 DXMaxC= 4.75D-02 DCOld= 1.00D+10 DXMaxT= 1.00D-01 DXLimC= 3.00D+00 Rises=F
 ClnCor:  largest displacement from symmetrization is 3.58D-02 for atom     2.
 Variable       Old X    -DE/DX   Delta X   Delta X   Delta X     New X
                                 (Linear)    (Quad)   (Total)
    R1        2.36176   0.00008   0.00000  -0.00456  -0.00554   2.35623
    R2        3.20004   0.00707   0.00000   0.04551   0.04534   3.24538
    R3        2.06067   0.00200   0.00000   0.00408   0.00408   2.06474
    R4        2.05874   0.00261   0.00000   0.00487   0.00249   2.06124
    R5        2.05874   0.00261   0.00000   0.00487   0.00249   2.06124
    A1        1.80184   0.00002   0.00000   0.00396   0.00395   1.80579
    A2        1.79487   0.00054   0.00000   0.00211  -0.00644   1.78843
    A3        1.79487   0.00054   0.00000   0.00211  -0.00644   1.78843
    A4        2.00797   0.00010   0.00000  -0.00241   0.00017   2.00813
    A5        2.00797  -0.00029   0.00000  -0.00194   0.00017   2.00813
    A6        2.01143  -0.00061   0.00000  -0.00158   0.00613   2.01756
    A7        3.10609   0.00020   0.00000  -0.05266  -0.05148   3.05460
    A8        3.14159  -0.00000   0.00000  -0.07095   0.00000   3.14159
    D1        2.39949  -0.00092   0.00000  -0.00819   0.00794   2.40743
         Item               Value     Threshold  Converged?
 Maximum Force            0.007073     0.000450     NO 
 RMS     Force            0.002230     0.000300     NO 
 Maximum Displacement     0.047491     0.001800     NO 
 RMS     Displacement     0.021261     0.001200     NO 
 Predicted change in Energy=-2.047291D-04
 Lowest energy point so far.  Saving SCF results.
 Largest change from initial coordinates is atom    1       0.027 Angstoms.
 GradGradGradGradGradGradGradGradGradGradGradGradGradGradGradGradGradGrad

 Leave Link  103 at Wed Oct  7 12:53:27 2020, MaxMem=  2684354560 cpu:               3.2 elap:               0.8
 (Enter /udrive/faculty/rpeverati/g16/g16/l202.exe)
                          Input orientation:                          
 ---------------------------------------------------------------------
 Center     Atomic      Atomic             Coordinates (Angstroms)
 Number     Number       Type             X           Y           Z
 ---------------------------------------------------------------------
      1          1           0        0.037653    2.046726   -0.000000
      2          9           0       -0.042174    0.802422   -0.000000
      3          6           0       -0.002808   -0.914511    0.000000
      4          1           0        1.065329   -1.144490    0.000000
      5          1           0       -0.528681   -1.162142    0.922980
      6          1           0       -0.528681   -1.162142   -0.922980
 ---------------------------------------------------------------------
                    Distance matrix (angstroms):
                    1          2          3          4          5
     1  H    0.000000
     2  F    1.246862   0.000000
     3  C    2.961513   1.717384   0.000000
     4  H    3.352608   2.239873   1.092615   0.000000
     5  H    3.386658   2.224430   1.090759   1.842029   0.000000
     6  H    3.386658   2.224430   1.090759   1.842029   1.845959
                    6
     6  H    0.000000
 Stoichiometry    CH4F(2)
 Framework group  CS[SG(CH2F),X(H2)]
 Deg. of freedom     8
 Full point group                 CS      NOp   2
 RotChk:  IX=0 Diff= 1.93D-02
 Largest Abelian subgroup         CS      NOp   2
 Largest concise Abelian subgroup CS      NOp   2
                         Standard orientation:                         
 ---------------------------------------------------------------------
 Center     Atomic      Atomic             Coordinates (Angstroms)
 Number     Number       Type             X           Y           Z
 ---------------------------------------------------------------------
      1          1           0        0.102640    2.028449   -0.000000
      2          9           0       -0.005689    0.786302   -0.000000
      3          6           0       -0.005689   -0.931082    0.000000
      4          1           0        1.056896   -1.185485    0.000000
      5          1           0       -0.537100   -1.166594    0.922980
      6          1           0       -0.537100   -1.166594   -0.922980
 ---------------------------------------------------------------------
 Rotational constants (GHZ):         147.1513458          15.7794706          15.7793791
 Leave Link  202 at Wed Oct  7 12:53:28 2020, MaxMem=  2684354560 cpu:               1.9 elap:               0.7
 (Enter /udrive/faculty/rpeverati/g16/g16/l301.exe)
 Standard basis: 6-31G(d) (5D, 7F)
 Ernie: Thresh=  0.10000D-02 Tol=  0.10000D-05 Strict=F.
 There are    28 symmetry adapted cartesian basis functions of A'  symmetry.
 There are    10 symmetry adapted cartesian basis functions of A"  symmetry.
 There are    26 symmetry adapted basis functions of A'  symmetry.
 There are    10 symmetry adapted basis functions of A"  symmetry.
    36 basis functions,    72 primitive gaussians,    38 cartesian basis functions
    10 alpha electrons        9 beta electrons
       nuclear repulsion energy        37.9984050532 Hartrees.
 IExCor= 1009 DFT=T Ex=PBE Corr=PBE ExCW=0 ScaHFX=  0.000000
 ScaDFX=  1.000000  1.000000  1.000000  1.000000 ScalE2=  1.000000  1.000000
 IRadAn=      5 IRanWt=     -1 IRanGd=            0 ICorTp=0 IEmpDi=141
 NAtoms=    6 NActive=    6 NUniq=    5 SFac= 1.44D+00 NAtFMM=   60 NAOKFM=F Big=F
 Integral buffers will be    131072 words long.
 Raffenetti 2 integral format.
 Two-electron integral symmetry is turned on.
 R6Disp:  Grimme-D3(BJ) Dispersion energy=       -0.0016574896 Hartrees.
 Nuclear repulsion after empirical dispersion term =       37.9967475636 Hartrees.
 Leave Link  301 at Wed Oct  7 12:53:29 2020, MaxMem=  2684354560 cpu:               3.1 elap:               0.8
 (Enter /udrive/faculty/rpeverati/g16/g16/l302.exe)
 NPDir=0 NMtPBC=     1 NCelOv=     1 NCel=       1 NClECP=     1 NCelD=      1
         NCelK=      1 NCelE2=     1 NClLst=     1 CellRange=     0.0.
 One-electron integrals computed using PRISM.
 One-electron integral symmetry used in STVInt
 NBasis=    36 RedAO= T EigKep=  2.21D-02  NBF=    26    10
 NBsUse=    36 1.00D-06 EigRej= -1.00D+00 NBFU=    26    10
 Precomputing XC quadrature grid using
 IXCGrd= 4 IRadAn=           5 IRanWt=          -1 IRanGd=           0 AccXCQ= 0.00D+00.
 Generated NRdTot=       0 NPtTot=           0 NUsed=           0 NTot=          32
 NSgBfM=    38    38    38    38    38 MxSgAt=     6 MxSgA2=     6.
 Leave Link  302 at Wed Oct  7 12:53:30 2020, MaxMem=  2684354560 cpu:               4.2 elap:               0.7
 (Enter /udrive/faculty/rpeverati/g16/g16/l303.exe)
 DipDrv:  MaxL=1.
 Leave Link  303 at Wed Oct  7 12:53:31 2020, MaxMem=  2684354560 cpu:               1.4 elap:               0.4
 (Enter /udrive/faculty/rpeverati/g16/g16/l401.exe)
 Initial guess from the checkpoint file:  "MN_53_hfch3ts_BH76_PBEDBJ_631Gs.chk"
 SCF N**3 symmetry information disabled.
 B after Tr=    -0.000000    0.000000    0.000000
         Rot=    0.999994    0.000000    0.000000    0.003447 Ang=   0.39 deg.
 Guess basis will be translated and rotated to current coordinates.
 JPrj=2 DoOrth=T DoCkMO=T.
 Initial guess orbital symmetries:
 Alpha Orbitals:
       Occupied  (A') (A') (A') (A') (A') (A") (A') (A') (A") (A')
       Virtual   (A') (A') (A') (A") (A') (A') (A") (A') (A') (A')
                 (A") (A') (A") (A') (A') (A") (A') (A') (A') (A")
                 (A') (A") (A') (A') (A") (A')
 Beta  Orbitals:
       Occupied  (A') (A') (A') (A') (A') (A") (A') (A') (A")
       Virtual   (A') (A') (A') (A') (A") (A') (A') (A") (A') (A')
                 (A') (A") (A') (A") (A') (A') (A") (A') (A') (A')
                 (A") (A') (A") (A') (A') (A") (A')
 The electronic state of the initial guess is 2-A'.
 Initial guess <Sx>= 0.0000 <Sy>= 0.0000 <Sz>= 0.5000 <S**2>= 0.7584 S= 0.5042
 Generating alternative initial guess.
[...]
     17 -0.111607D-03  0.137093D-02 -0.197059D-03 -0.614457D-02 -0.167570D-01
     18  0.801880D-04  0.271519D-03  0.801310D-04  0.144043D-02  0.140012D-02
                6             7             8             9            10 
      6  0.150707D-01
      7  0.000000D+00  0.583872D+00
      8  0.000000D+00 -0.805617D-03  0.861738D-01
      9 -0.215721D-01  0.000000D+00  0.000000D+00  0.583826D+00
     10  0.000000D+00 -0.322902D+00  0.619567D-01  0.000000D+00  0.336711D+00
     11  0.000000D+00  0.681210D-01 -0.395482D-01  0.000000D+00 -0.664790D-01
     12  0.959378D-03  0.000000D+00  0.000000D+00 -0.520051D-01  0.000000D+00
     13 -0.142059D-02 -0.119875D+00 -0.306253D-01  0.117477D+00 -0.911620D-02
     14  0.105907D-01 -0.337083D-01 -0.392624D-01  0.584227D-01  0.324457D-02
     15  0.345097D-02  0.117468D+00  0.530795D-01 -0.255299D+00 -0.307719D-02
     16  0.142059D-02 -0.119875D+00 -0.306253D-01 -0.117477D+00 -0.911620D-02
     17 -0.105907D-01 -0.337083D-01 -0.392624D-01 -0.584227D-01  0.324457D-02
     18  0.345097D-02 -0.117468D+00 -0.530795D-01 -0.255299D+00  0.307719D-02
               11            12            13            14            15 
     11  0.446893D-01
     12  0.000000D+00  0.449580D-01
     13 -0.703306D-02  0.241692D-01  0.118045D+00
     14  0.514561D-02 -0.632483D-02  0.328947D-01  0.443731D-01
     15 -0.347292D-03  0.307274D-02 -0.126508D+00 -0.569731D-01  0.263901D+00
     16 -0.703306D-02 -0.241692D-01  0.917656D-02  0.382527D-02  0.136382D-01
     17  0.514561D-02  0.632483D-02  0.382527D-02  0.512974D-02  0.591253D-02
     18  0.347292D-03  0.307274D-02 -0.136382D-01 -0.591253D-02 -0.152061D-01
               16            17            18 
     16  0.118045D+00
     17  0.328947D-01  0.443731D-01
     18  0.126508D+00  0.569731D-01  0.263901D+00
 FormGI is forming the generalized inverse of G from B-inverse, IUseBI=4.
 Force constants in internal coordinates: 
                1             2             3             4             5 
      1 -0.100062D-01
      2  0.128940D+00  0.143054D-01
      3 -0.624490D-03  0.171219D-02  0.350959D+00
      4 -0.624802D-03  0.171085D-02  0.606419D-03  0.350931D+00
      5 -0.624802D-03  0.171085D-02  0.606419D-03  0.607683D-03  0.350931D+00
      6 -0.656540D-03  0.793549D-02 -0.453027D-02  0.667710D-04 -0.154920D-02
      7 -0.642543D-03  0.789748D-02  0.637429D-04 -0.454169D-02 -0.154934D-02
      8 -0.642543D-03  0.789748D-02  0.637429D-04  0.666374D-04 -0.615766D-02
      9 -0.623429D-05  0.760909D-04  0.504240D-02  0.504418D-02 -0.101446D-01
     10  0.730228D-03 -0.892493D-02  0.771284D-02 -0.945743D-02  0.853955D-02
     11  0.730284D-03 -0.892526D-02 -0.945641D-02  0.771443D-02  0.853739D-02
     12 -0.118836D-05  0.195594D-05 -0.167572D-03  0.868965D-04  0.868965D-04
     13  0.000000D+00  0.000000D+00  0.000000D+00 -0.716755D-04  0.716755D-04
     14  0.165599D-02 -0.202395D-01  0.600470D-02  0.600889D-02  0.339580D-02
                6             7             8             9            10 
      6  0.644072D-01
      7 -0.251898D-01  0.643900D-01
      8 -0.255223D-01 -0.255120D-01  0.637250D-01
      9  0.727785D-02  0.727243D-02  0.414729D-02  0.582368D-01
     10 -0.699323D-02 -0.105310D-01 -0.682809D-02 -0.361196D-01  0.830245D-01
     11 -0.105414D-01 -0.699372D-02 -0.682439D-02 -0.361187D-01 -0.286610D-01
     12  0.117284D-02 -0.598533D-03 -0.598533D-03 -0.790341D-04 -0.854666D-04
     13 -0.697610D-05  0.480145D-03 -0.494097D-03 -0.655695D-04  0.776926D-04
     14 -0.846260D-02 -0.845976D-02 -0.899741D-02  0.992797D-02  0.474422D-02
               11            12            13            14 
     11  0.830173D-01
     12  0.182629D-03  0.525457D-02
     13  0.355267D-05  0.000000D+00  0.120435D-02
     14  0.474223D-02 -0.144640D-04 -0.112806D-04  0.265593D-01
 Leave Link  716 at Wed Oct  7 12:55:58 2020, MaxMem=  2684354560 cpu:               2.1 elap:               0.5
 (Enter /udrive/faculty/rpeverati/g16/g16/l103.exe)

 GradGradGradGradGradGradGradGradGradGradGradGradGradGradGradGradGradGrad
 Berny optimization.
 Optmz: redundant internal coordinate code flag= 1
 Red2BG:  D1=  2.46D-01 OD1=  4.66D-15 B2RMS=  0.00D+00 IAprox=1
 Red2BG is reusing G-inverse.
 Internal  Forces:  Max     0.000017705 RMS     0.000007171
 Search for a local minimum.
 Step number   1 out of a maximum of    2
 All quantities printed in internal units (Hartrees-Bohrs-Radians)
 Second derivative matrix not updated -- analytic derivatives used.
 The second derivative matrix:
                          R1        R2        R3        R4        R5
           R1          -0.01001
           R2           0.12894   0.01431
           R3          -0.00062   0.00171   0.35096
           R4          -0.00062   0.00171   0.00061   0.35093
           R5          -0.00062   0.00171   0.00061   0.00061   0.35093
           A1          -0.00066   0.00794  -0.00453   0.00007  -0.00155
           A2          -0.00064   0.00790   0.00006  -0.00454  -0.00155
           A3          -0.00064   0.00790   0.00006   0.00007  -0.00616
           A4          -0.00001   0.00008   0.00504   0.00504  -0.01014
           A5           0.00073  -0.00892   0.00771  -0.00946   0.00854
           A6           0.00073  -0.00893  -0.00946   0.00771   0.00854
           A7          -0.00000   0.00000  -0.00017   0.00009   0.00009
           A8          -0.00000  -0.00000  -0.00000  -0.00007   0.00007
           D1           0.00166  -0.02024   0.00600   0.00601   0.00340
                          A1        A2        A3        A4        A5
           A1           0.06441
           A2          -0.02519   0.06439
           A3          -0.02552  -0.02551   0.06372
           A4           0.00728   0.00727   0.00415   0.05824
           A5          -0.00699  -0.01053  -0.00683  -0.03612   0.08302
           A6          -0.01054  -0.00699  -0.00682  -0.03612  -0.02866
           A7           0.00117  -0.00060  -0.00060  -0.00008  -0.00009
           A8          -0.00001   0.00048  -0.00049  -0.00007   0.00008
           D1          -0.00846  -0.00846  -0.00900   0.00993   0.00474
                          A6        A7        A8        D1
           A6           0.08302
           A7           0.00018   0.00525
           A8           0.00000  -0.00000   0.00120
           D1           0.00474  -0.00001  -0.00001   0.02656
 ITU=  0
 Eigenvectors of the second derivative matrix:
                           1         2         3         4         5
     Eigenvalues --    -0.12968   0.00120   0.00523   0.03883   0.08883
   1         R1        -0.72920   0.00000   0.00001   0.20076   0.01860
   2         R2         0.67474   0.00000   0.00001   0.06033   0.01333
   3         R3        -0.00473  -0.00000   0.00019  -0.02318  -0.00949
   4         R4        -0.00472   0.00009  -0.00011  -0.02320   0.02162
   5         R5        -0.00548  -0.00009  -0.00011  -0.01246  -0.01625
   6         A1        -0.03242  -0.00000  -0.01410  -0.25876  -0.28818
   7         A2        -0.03226  -0.00554   0.00701  -0.25888   0.77655
   8         A3        -0.03261   0.00554   0.00701  -0.24460  -0.53190
   9         A4         0.01028   0.00084   0.00108   0.31767  -0.07673
  10         A5         0.03129  -0.00083   0.00107   0.12662   0.14874
  11         A6         0.03129   0.00000  -0.00210   0.12664  -0.03941
  12         A7        -0.00003   0.00000   0.99985  -0.00077  -0.00594
  13         A8        -0.00001   0.99997  -0.00000  -0.00054   0.00743
  14         D1         0.08769   0.00038   0.00055   0.79248   0.00306
                           6         7         8         9        10
     Eigenvalues --     0.08887   0.10933   0.11114   0.13731   0.35151
   1         R1        -0.02173   0.21894  -0.00003   0.61580  -0.00037
   2         R2        -0.01567   0.19644  -0.00001   0.70855  -0.00304
   3         R3        -0.02029   0.01436  -0.04745  -0.00311  -0.46013
   4         R4         0.00593   0.01436   0.04747  -0.00311  -0.57972
   5         R5         0.01934  -0.06099  -0.00003   0.02204   0.66914
   6         A1        -0.73805  -0.17198   0.12441   0.08977   0.00204
   7         A2         0.15834  -0.17159  -0.12419   0.08931   0.00405
   8         A3         0.63157   0.04546  -0.00025   0.06328  -0.01683
   9         A4         0.09149  -0.66936  -0.00013   0.15208  -0.04850
  10         A5         0.01434   0.44624   0.69459  -0.16678   0.03254
  11         A6        -0.14467   0.44637  -0.69436  -0.16682   0.02400
  12         A7        -0.01636  -0.00034   0.00044  -0.00007   0.00029
  13         A8        -0.00268  -0.00026  -0.00011  -0.00007   0.00030
  14         D1        -0.00361  -0.04303   0.00002  -0.13941  -0.01239
                          11        12
     Eigenvalues --     0.35164   0.35271
   1         R1        -0.00004   0.00101
   2         R2        -0.00022  -0.00458
   3         R3        -0.74306  -0.48230
   4         R4         0.66225  -0.47097
   5         R5         0.06289  -0.73706
   6         A1         0.01182   0.01138
   7         A2        -0.01150   0.01121
   8         A3        -0.00155   0.01539
   9         A4        -0.00424   0.01419
  10         A5        -0.04753  -0.02172
  11         A6         0.05268  -0.02091
  12         A7         0.00064  -0.00008
  13         A8        -0.00015  -0.00007
  14         D1        -0.00083  -0.02614
 Eigenvalue     1 is  -1.30D-01 should be greater than     0.000000 Eigenvector:
                          R1        R2        D1        A3        A1
   1                   -0.72920   0.67474   0.08769  -0.03261  -0.03242
                          A2        A5        A6        A4        R5
   1                   -0.03226   0.03129   0.03129   0.01028  -0.00548
 Angle between quadratic step and forces=  31.31 degrees.
 Linear search not attempted -- first point.
 Iteration  1 RMS(Cart)=  0.00009861 RMS(Int)=  0.00000001
 Iteration  2 RMS(Cart)=  0.00000001 RMS(Int)=  0.00000000
 ITry= 1 IFail=0 DXMaxC= 2.69D-04 DCOld= 1.00D+10 DXMaxT= 3.00D-01 DXLimC= 3.00D+00 Rises=F
 ClnCor:  largest displacement from symmetrization is 1.60D-06 for atom     6.
 Variable       Old X    -DE/DX   Delta X   Delta X   Delta X     New X
                                 (Linear)    (Quad)   (Total)
    R1        2.40821  -0.00000   0.00000  -0.00006  -0.00006   2.40815
    R2        3.20440  -0.00001   0.00000  -0.00010  -0.00010   3.20429
    R3        2.06679   0.00001   0.00000   0.00003   0.00003   2.06682
    R4        2.06681   0.00000   0.00000   0.00001   0.00001   2.06682
    R5        2.06681   0.00000   0.00000   0.00001   0.00001   2.06682
    A1        1.80599   0.00002   0.00000   0.00024   0.00024   1.80623
    A2        1.80624  -0.00001   0.00000  -0.00002  -0.00002   1.80622
    A3        1.80624  -0.00001   0.00000  -0.00002  -0.00002   1.80622
    A4        2.00254  -0.00000   0.00000  -0.00008  -0.00008   2.00246
    A5        2.00254  -0.00001   0.00000  -0.00008  -0.00008   2.00246
    A6        2.00246   0.00000   0.00000   0.00001   0.00001   2.00247
    A7        3.14169  -0.00000   0.00000  -0.00009  -0.00009   3.14161
    A8        3.14159  -0.00000   0.00000   0.00000   0.00000   3.14159
    D1        2.37388  -0.00001   0.00000  -0.00020  -0.00020   2.37367
         Item               Value     Threshold  Converged?
 Maximum Force            0.000018     0.000450     YES
 RMS     Force            0.000007     0.000300     YES
 Maximum Displacement     0.000269     0.001800     YES
 RMS     Displacement     0.000099     0.001200     YES
 Predicted change in Energy=-4.652938D-09
 Optimization completed.
    -- Stationary point found.
                           ----------------------------
                           !   Optimized Parameters   !
                           ! (Angstroms and Degrees)  !
 --------------------------                            --------------------------
 ! Name  Definition              Value          Derivative Info.                !
 --------------------------------------------------------------------------------
 ! R1    R(1,2)                  1.2744         -DE/DX =    0.0                 !
 ! R2    R(2,3)                  1.6957         -DE/DX =    0.0                 !
 ! R3    R(3,4)                  1.0937         -DE/DX =    0.0                 !
 ! R4    R(3,5)                  1.0937         -DE/DX =    0.0                 !
 ! R5    R(3,6)                  1.0937         -DE/DX =    0.0                 !
 ! A1    A(2,3,4)              103.4755         -DE/DX =    0.0                 !
 ! A2    A(2,3,5)              103.4899         -DE/DX =    0.0                 !
 ! A3    A(2,3,6)              103.4899         -DE/DX =    0.0                 !
 ! A4    A(4,3,5)              114.7373         -DE/DX =    0.0                 !
 ! A5    A(4,3,6)              114.7373         -DE/DX =    0.0                 !
 ! A6    A(5,3,6)              114.7323         -DE/DX =    0.0                 !
 ! A7    L(1,2,3,4,-1)         180.0058         -DE/DX =    0.0                 !
 ! A8    L(1,2,3,4,-2)         180.0            -DE/DX =    0.0                 !
 ! D1    D(4,3,6,5)            136.0131         -DE/DX =    0.0                 !
 --------------------------------------------------------------------------------
 GradGradGradGradGradGradGradGradGradGradGradGradGradGradGradGradGradGrad

 Leave Link  103 at Wed Oct  7 12:55:59 2020, MaxMem=  2684354560 cpu:               2.0 elap:               0.5
 (Enter /udrive/faculty/rpeverati/g16/g16/l9999.exe)

 ----------------------------------------------------------------------

 Electric dipole moment (input orientation):
 (Debye = 10**-18 statcoulomb cm , SI units = C m)
                  (au)            (Debye)         (10**-30 SI)
   Tot        0.502577D+00      0.127742D+01      0.426103D+01
   x         -0.855477D-03     -0.217441D-02     -0.725304D-02
   y         -0.502576D+00     -0.127742D+01     -0.426102D+01
   z          0.000000D+00      0.000000D+00      0.000000D+00

 Dipole polarizability, Alpha (input orientation).
 (esu units = cm**3 , SI units = C**2 m**2 J**-1)
 Alpha(0;0):
               (au)            (10**-24 esu)      (10**-40 SI)
   iso        0.250010D+02      0.370476D+01      0.412211D+01
   aniso      0.354142D+02      0.524784D+01      0.583901D+01
   xx         0.131964D+02      0.195551D+01      0.217580D+01
   yx         0.597580D-01      0.885522D-02      0.985276D-02
   yy         0.486103D+02      0.720331D+01      0.801476D+01
   zx         0.000000D+00      0.000000D+00      0.000000D+00
   zy         0.000000D+00      0.000000D+00      0.000000D+00
   zz         0.131962D+02      0.195547D+01      0.217576D+01

 ----------------------------------------------------------------------

 Dipole orientation:
     1          0.00089047         -0.00000152         -3.90087457
     9          0.00113612         -0.00000193         -1.49266903
     6          0.00114112         -0.00000194          1.71172897
     1          2.01102957         -0.00342314          2.19334948
     1         -1.00078415          1.74223630          2.19386187
     1         -1.00670955         -1.73881918          2.19386187

 Electric dipole moment (dipole orientation):
 (Debye = 10**-18 statcoulomb cm , SI units = C m)
                  (au)            (Debye)         (10**-30 SI)
   Tot        0.502577D+00      0.127742D+01      0.426103D+01
   x          0.000000D+00      0.000000D+00      0.000000D+00
   y          0.000000D+00      0.000000D+00      0.000000D+00
   z          0.502577D+00      0.127742D+01      0.426103D+01

 Dipole polarizability, Alpha (dipole orientation).
 (esu units = cm**3 , SI units = C**2 m**2 J**-1)
 Alpha(0;0):
               (au)            (10**-24 esu)      (10**-40 SI)
   iso        0.250010D+02      0.370476D+01      0.412211D+01
   aniso      0.354142D+02      0.524784D+01      0.583901D+01
   xx         0.131963D+02      0.195549D+01      0.217578D+01
   yx         0.000000D+00      0.000000D+00      0.000000D+00
   yy         0.131962D+02      0.195547D+01      0.217576D+01
   zx         0.523192D-03      0.775291D-04      0.862628D-04
   zy         0.000000D+00      0.000000D+00      0.000000D+00
   zz         0.486104D+02      0.720332D+01      0.801478D+01

 ----------------------------------------------------------------------

 Test job not archived.
 1\1\GINC-NODE22\Freq\UPBEPBE\6-31G(d)\C1H4F1(2)\RPEVERATI\07-Oct-2020\
 0\\#P Freq PBEPBE/6-31G* 5D 7F Integral=UltraFineGrid SCF=(NoSymm,XQC,
 MaxCyc=120) EmpiricalDispersion=GD3BJ IOp(1/33=1) Geom=Check Guess=Rea
 d\\TS search on BH76.\\0,2\H,0.0039849548,2.0642501309,0.\F,0.00194573
 96,0.7898842669,0.\C,-0.0009379962,-0.9058076786,0.\H,1.0622153465,-1.
 1624803296,0.\H,-0.5331360929,-1.1600358895,0.921048948\H,-0.533136092
 9,-1.1600358895,-0.921048948\\Version=ES64L-G16RevA.03\State=2-A'\HF=-
 140.0325598\S2=0.758552\S2-1=0.\S2A=0.750015\RMSD=1.712e-09\RMSF=8.839
 e-06\ZeroPoint=0.0371622\Thermal=0.04147\Dipole=-0.0008555,-0.5025762,
 0.\DipoleDeriv=0.0718297,-0.0018326,0.,-0.0019322,-1.0882515,0.,0.,0.,
 0.0718386,-0.2402696,0.0036061,0.,0.0036233,1.9395606,0.,0.,0.,-0.2402
 879,0.1777084,-0.0017958,0.,-0.0016599,-0.8482191,0.,0.,0.,0.17775,-0.
 0725166,0.025705,0.,0.0466281,-0.0010849,0.,0.,0.,0.0664617,0.0316241,
 -0.0128413,0.0603053,-0.0233297,-0.0010026,0.0402062,0.0602724,0.02204
 14,-0.0378812,0.0316241,-0.0128413,-0.0603053,-0.0233297,-0.0010026,-0
 .0402062,-0.0602724,-0.0220414,-0.0378812\Polar=13.1964275,0.059758,48
 .6103314,0.,0.,13.1961902\Quadrupole=-0.2336155,0.4674033,-0.2337879,0
 .0012638,0.,0.\PG=CS [SG(C1H2F1),X(H2)]\NImag=1\\0.00090797,-0.0000169
 6,-0.01000617,0.,0.,0.00090830,-0.00135796,0.00024094,0.,0.01506782,0.
 00022361,0.13894579,0.,-0.00045880,-0.25358000,0.,0.,-0.00135990,0.,0.
 ,0.01507070,0.00034757,-0.00023227,0.,-0.02156923,0.00033361,0.,0.5838
 7249,-0.00021430,-0.13305913,0.,0.00031376,0.16495823,0.,-0.00080562,0
 .08617380,0.,0.,0.00034914,0.,0.,-0.02157212,0.,0.,0.58382560,0.000126
 07,-0.00030994,0.,0.00429718,-0.00165696,0.,-0.32290179,0.06195671,0.,
 0.33671093,0.00023086,0.00137766,0.,0.01219324,-0.01680998,0.,0.068120
 96,-0.03954815,0.,-0.06647896,0.04468925,0.,0.,-0.00005780,0.,0.,0.000
 95938,0.,0.,-0.05200506,0.,0.,0.04495801,-0.00001183,0.00015911,-0.000
 07936,0.00178110,0.00077927,-0.00142059,-0.11987452,-0.03062528,0.1174
 7736,-0.00911620,-0.00703306,0.02416916,0.11804488,-0.00011161,0.00137
 093,0.00019706,-0.00614457,-0.01675702,0.01059074,-0.03370835,-0.03926
 238,0.05842266,0.00324457,0.00514561,-0.00632483,0.03289468,0.04437312
 ,-0.00008019,-0.00027152,0.00008013,-0.00144043,-0.00140012,0.00345097
 ,0.11746798,0.05307951,-0.25529878,-0.00307719,-0.00034729,0.00307274,
 -0.12650837,-0.05697311,0.26390100,-0.00001183,0.00015911,0.00007936,0
 .00178110,0.00077927,0.00142059,-0.11987452,-0.03062528,-0.11747736,-0
 .00911620,-0.00703306,-0.02416916,0.00917656,0.00382527,0.01363820,0.1
 1804488,-0.00011161,0.00137093,-0.00019706,-0.00614457,-0.01675702,-0.
 01059074,-0.03370835,-0.03926238,-0.05842266,0.00324457,0.00514561,0.0
 0632483,0.00382527,0.00512974,0.00591253,0.03289468,0.04437312,0.00008
 019,0.00027152,0.00008013,0.00144043,0.00140012,0.00345097,-0.11746798
 ,-0.05307951,-0.25529878,0.00307719,0.00034729,0.00307274,-0.01363820,
 -0.00591253,-0.01520606,0.12650837,0.05697311,0.26390100\\-0.00000010,
 0.00000283,0.,0.00000728,0.00000948,0.,0.00000039,-0.00003078,0.,-0.00
 000420,0.00001506,0.,-0.00000168,0.00000171,-0.00000508,-0.00000168,0.
 00000171,0.00000508\\\@


 The arm of the moral universe is long, but it bends toward justice.
 -- Martin Luther King, Jr.
 Job cpu time:       0 days  0 hours  2 minutes 41.4 seconds.
 Elapsed time:       0 days  0 hours  0 minutes 22.6 seconds.
 File lengths (MBytes):  RWF=      7 Int=      0 D2E=      0 Chk=      1 Scr=      1
 Normal termination of Gaussian 16 at Wed Oct  7 12:56:00 2020.
