 Entering Gaussian System, Link 0=g16
 Input=MN_82_RKT06_BH76_PBEDBJ_631Gs.in
 Output=MN_82_RKT06_BH76_PBEDBJ_631Gs.log
 Initial command:
 /udrive/faculty/rpeverati/g16/g16/l1.exe "/udrive/scratch-directories/gaussian09/rpeverati/Gau-23814.inp" -scrdir="/udrive/scratch-directories/gaussian09/rpeverati/"
 Entering Link 1 = /udrive/faculty/rpeverati/g16/g16/l1.exe PID=     23829.
  
 Copyright (c) 1988,1990,1992,1993,1995,1998,2003,2009,2016,
            Gaussian, Inc.  All Rights Reserved.
  
 This is part of the Gaussian(R) 16 program.  It is based on
 the Gaussian(R) 09 system (copyright 2009, Gaussian, Inc.),
 the Gaussian(R) 03 system (copyright 2003, Gaussian, Inc.),
 the Gaussian(R) 98 system (copyright 1998, Gaussian, Inc.),
 the Gaussian(R) 94 system (copyright 1995, Gaussian, Inc.),
 the Gaussian 92(TM) system (copyright 1992, Gaussian, Inc.),
 the Gaussian 90(TM) system (copyright 1990, Gaussian, Inc.),
 the Gaussian 88(TM) system (copyright 1988, Gaussian, Inc.),
 the Gaussian 86(TM) system (copyright 1986, Carnegie Mellon
 University), and the Gaussian 82(TM) system (copyright 1983,
 Carnegie Mellon University). Gaussian is a federally registered
 trademark of Gaussian, Inc.
  
 This software contains proprietary and confidential information,
 including trade secrets, belonging to Gaussian, Inc.
  
 This software is provided under written license and may be
 used, copied, transmitted, or stored only in accord with that
 written license.
  
 The following legend is applicable only to US Government
 contracts under FAR:
  
                    RESTRICTED RIGHTS LEGEND
  
 Use, reproduction and disclosure by the US Government is
 subject to restrictions as set forth in subparagraphs (a)
 and (c) of the Commercial Computer Software - Restricted
 Rights clause in FAR 52.227-19.
  
 Gaussian, Inc.
 340 Quinnipiac St., Bldg. 40, Wallingford CT 06492
  
  
 ---------------------------------------------------------------
 Warning -- This program may not be used in any manner that
 competes with the business of Gaussian, Inc. or will provide
 assistance to any competitor of Gaussian, Inc.  The licensee
 of this program is prohibited from giving any competitor of
 Gaussian, Inc. access to this program.  By using this program,
 the user acknowledges that Gaussian, Inc. is engaged in the
 business of creating and licensing software in the field of
 computational chemistry and represents and warrants to the
 licensee that it is not a competitor of Gaussian, Inc. and that
 it will not use this program in any manner prohibited above.
 ---------------------------------------------------------------
  

 Cite this work as:
 Gaussian 16, Revision A.03,
 M. J. Frisch, G. W. Trucks, H. B. Schlegel, G. E. Scuseria, 
 M. A. Robb, J. R. Cheeseman, G. Scalmani, V. Barone, 
 G. A. Petersson, H. Nakatsuji, X. Li, M. Caricato, A. V. Marenich, 
 J. Bloino, B. G. Janesko, R. Gomperts, B. Mennucci, H. P. Hratchian, 
 J. V. Ortiz, A. F. Izmaylov, J. L. Sonnenberg, D. Williams-Young, 
 F. Ding, F. Lipparini, F. Egidi, J. Goings, B. Peng, A. Petrone, 
 T. Henderson, D. Ranasinghe, V. G. Zakrzewski, J. Gao, N. Rega, 
 G. Zheng, W. Liang, M. Hada, M. Ehara, K. Toyota, R. Fukuda, 
 J. Hasegawa, M. Ishida, T. Nakajima, Y. Honda, O. Kitao, H. Nakai, 
 T. Vreven, K. Throssell, J. A. Montgomery, Jr., J. E. Peralta, 
 F. Ogliaro, M. J. Bearpark, J. J. Heyd, E. N. Brothers, K. N. Kudin, 
 V. N. Staroverov, T. A. Keith, R. Kobayashi, J. Normand, 
 K. Raghavachari, A. P. Rendell, J. C. Burant, S. S. Iyengar, 
 J. Tomasi, M. Cossi, J. M. Millam, M. Klene, C. Adamo, R. Cammi, 
 J. W. Ochterski, R. L. Martin, K. Morokuma, O. Farkas, 
 J. B. Foresman, and D. J. Fox, Gaussian, Inc., Wallingford CT, 2016.
 
 ******************************************
 Gaussian 16:  ES64L-G16RevA.03 25-Dec-2016
                 7-Oct-2020 
 ******************************************
 %NoSave
 %nproc=12
 Will use up to   12 processors via shared memory.
 %mem=20GB
 %chk=MN_82_RKT06_BH76_PBEDBJ_631Gs
 ----------------------------------------------------------------------
 #P Opt(TS,MaxCyc=50,NoEigenTest,MaxStep=10,AddRedundant) PBEPBE/6-31G*
  5D 7F Integral=UltraFineGrid SCF=(NoSymm,XQC,MaxCyc=120) EmpiricalDis
 persion=GD3BJ IOp(1/33=1)
 ----------------------------------------------------------------------
 1/5=1,6=50,8=10,11=1,18=120,26=4,33=1,38=1/1,3;
 2/9=110,12=2,17=6,18=5,40=1/2;
 3/5=1,6=6,7=1,8=11,11=2,25=1,30=1,71=1,74=1009,75=-5,124=41/1,2,3;
 4/9=2/1;
 5/5=2,7=120,8=3,13=1,38=5/2,8;
 6/7=2,8=2,9=2,10=2,28=1/1;
 7//1,2,3,16;
 1/5=1,6=50,8=10,11=1,18=20,26=4,33=1/3(2);
 2/9=110/2;
 99//99;
 2/9=110/2;
 3/5=1,6=6,7=1,8=11,11=2,25=1,30=1,71=1,74=1009,75=-5,124=41/1,2,3;
 4/5=5,9=2,16=3,69=1/1;
 5/5=2,7=120,8=3,13=1,38=5/2,8;
 7//1,2,3,16;
 1/5=1,6=50,8=10,11=1,18=20,26=4,33=1/3(-5);
 2/9=110/2;
 6/7=2,8=2,9=2,10=2,19=2,28=1/1;
 99/9=1/99;
 Leave Link    1 at Wed Oct  7 12:54:30 2020, MaxMem=  2684354560 cpu:               5.7 elap:               0.6
 (Enter /udrive/faculty/rpeverati/g16/g16/l101.exe)
 ONIOM data not found on unit 2.
 ------------------
 TS search on BH76.
 ------------------
 TstMul:  ICh=     0
 TstMul:  Mul=     2
 TstMul:  ICh=     0
 TstMul:  Mul=     2
 Symbolic Z-matrix:
 Charge =  0 Multiplicity = 2
 H                     0.        0.        0. 
 H                     0.        0.        0.92947 
 H                     0.        0.       -0.92947 
 
 RdStrC is calling ZToCFu for IStruc=1 NZ=     3.
 PrtBox:  NBox=     1 Levels=  1 BoxLen=    8.00 SMaxX=        3.51
          Shift=            0.000000            0.000000            1.756450
 Box      1 Number                   0 centers from      1 to      3:
 After GenITR:
 ITRead=  0  0  0
 MicOpt= -1 -1 -1
 Add virtual bond connecting atoms H2         and H1         Dist= 1.76D+00.
 Add virtual bond connecting atoms H3         and H1         Dist= 1.76D+00.
 The following ModRedundant input section has been read:
 
 ITRead=  0  0  0
 MicOpt= -1 -1 -1
 NAtoms=      3 NQM=        3 NQMF=       0 NMMI=      0 NMMIF=      0
                NMic=       0 NMicF=      0.
                    Isotopes and Nuclear Properties:
 (Nuclear quadrupole moments (NQMom) in fm**2, nuclear magnetic moments (NMagM)
  in nuclear magnetons)

  Atom         1           2           3
 IAtWgt=           1           1           1
 AtmWgt=   1.0078250   1.0078250   1.0078250
 NucSpn=           1           1           1
 AtZEff=   0.0000000   0.0000000   0.0000000
 NQMom=    0.0000000   0.0000000   0.0000000
 NMagM=    2.7928460   2.7928460   2.7928460
 AtZNuc=   1.0000000   1.0000000   1.0000000
 No MM parameters found.
 Leave Link  101 at Wed Oct  7 12:54:31 2020, MaxMem=  2684354560 cpu:               9.5 elap:               1.0
 (Enter /udrive/faculty/rpeverati/g16/g16/l103.exe)

 GradGradGradGradGradGradGradGradGradGradGradGradGradGradGradGradGradGrad
 Berny optimization.
 Optmz: redundant internal coordinate code flag= 1
 Initialization pass.
                           ----------------------------
                           !    Initial Parameters    !
                           ! (Angstroms and Degrees)  !
 --------------------------                            --------------------------
 ! Name  Definition              Value          Derivative Info.                !
 --------------------------------------------------------------------------------
 ! R1    R(1,2)                  0.9295         estimate D2E/DX2                !
 ! R2    R(1,3)                  0.9295         estimate D2E/DX2                !
 ! A1    L(2,1,3,-1,-1)        180.0            estimate D2E/DX2                !
 ! A2    L(2,1,3,-2,-2)        180.0            estimate D2E/DX2                !
 --------------------------------------------------------------------------------
 Maximum allowed force set to 1.00D+20.
 Trust Radius=1.00D-01 FncErr=1.00D-07 GrdErr=1.00D-06 EigMax=2.50D+02 EigMin=1.00D-04
 Number of steps in this run=     50 maximum allowed number of steps=    100.
 Search for a saddle point of order  1.
 GradGradGradGradGradGradGradGradGradGradGradGradGradGradGradGradGradGrad

 Leave Link  103 at Wed Oct  7 12:54:32 2020, MaxMem=  2684354560 cpu:               1.7 elap:               0.6
 (Enter /udrive/faculty/rpeverati/g16/g16/l202.exe)
                          Input orientation:                          
 ---------------------------------------------------------------------
 Center     Atomic      Atomic             Coordinates (Angstroms)
 Number     Number       Type             X           Y           Z
 ---------------------------------------------------------------------
      1          1           0        0.000000    0.000000    0.000000
      2          1           0        0.000000    0.000000    0.929473
      3          1           0        0.000000    0.000000   -0.929473
 ---------------------------------------------------------------------
                    Distance matrix (angstroms):
                    1          2          3
     1  H    0.000000
     2  H    0.929473   0.000000
     3  H    0.929473   1.858947   0.000000
 Stoichiometry    H3(2)
 Framework group  D*H[O(H),C*(H.H)]
 Deg. of freedom     1
 Full point group                 D*H     NOp   8
 Largest Abelian subgroup         D2H     NOp   8
 Largest concise Abelian subgroup C2      NOp   2
                         Standard orientation:                         
 ---------------------------------------------------------------------
 Center     Atomic      Atomic             Coordinates (Angstroms)
 Number     Number       Type             X           Y           Z
 ---------------------------------------------------------------------
      1          1           0        0.000000    0.000000    0.000000
      2          1           0        0.000000    0.000000    0.929473
      3          1           0        0.000000    0.000000   -0.929473
 ---------------------------------------------------------------------
 Rotational constants (GHZ):           0.0000000         290.2205843         290.2205843
 Leave Link  202 at Wed Oct  7 12:54:32 2020, MaxMem=  2684354560 cpu:               1.7 elap:               0.6
 (Enter /udrive/faculty/rpeverati/g16/g16/l301.exe)
 Standard basis: 6-31G(d) (5D, 7F)
 Ernie: Thresh=  0.10000D-02 Tol=  0.10000D-05 Strict=F.
 There are     4 symmetry adapted cartesian basis functions of AG  symmetry.
 There are     0 symmetry adapted cartesian basis functions of B1G symmetry.
 There are     0 symmetry adapted cartesian basis functions of B2G symmetry.
 There are     0 symmetry adapted cartesian basis functions of B3G symmetry.
 There are     0 symmetry adapted cartesian basis functions of AU  symmetry.
 There are     2 symmetry adapted cartesian basis functions of B1U symmetry.
 There are     0 symmetry adapted cartesian basis functions of B2U symmetry.
 There are     0 symmetry adapted cartesian basis functions of B3U symmetry.
 There are     4 symmetry adapted basis functions of AG  symmetry.
 There are     0 symmetry adapted basis functions of B1G symmetry.
 There are     0 symmetry adapted basis functions of B2G symmetry.
 There are     0 symmetry adapted basis functions of B3G symmetry.
 There are     0 symmetry adapted basis functions of AU  symmetry.
 There are     2 symmetry adapted basis functions of B1U symmetry.
 There are     0 symmetry adapted basis functions of B2U symmetry.
 There are     0 symmetry adapted basis functions of B3U symmetry.
     6 basis functions,    12 primitive gaussians,     6 cartesian basis functions
     2 alpha electrons        1 beta electrons
       nuclear repulsion energy         1.4233254579 Hartrees.
 IExCor= 1009 DFT=T Ex=PBE Corr=PBE ExCW=0 ScaHFX=  0.000000
 ScaDFX=  1.000000  1.000000  1.000000  1.000000 ScalE2=  1.000000  1.000000
 IRadAn=      5 IRanWt=     -1 IRanGd=            0 ICorTp=0 IEmpDi=141
 NAtoms=    3 NActive=    3 NUniq=    2 SFac= 2.25D+00 NAtFMM=   60 NAOKFM=F Big=F
 Integral buffers will be    131072 words long.
 Raffenetti 2 integral format.
 Two-electron integral symmetry is turned on.
 R6Disp:  Grimme-D3(BJ) Dispersion energy=       -0.0005398404 Hartrees.
 Nuclear repulsion after empirical dispersion term =        1.4227856176 Hartrees.
 Leave Link  301 at Wed Oct  7 12:54:33 2020, MaxMem=  2684354560 cpu:               2.6 elap:               0.6
 (Enter /udrive/faculty/rpeverati/g16/g16/l302.exe)
 NPDir=0 NMtPBC=     1 NCelOv=     1 NCel=       1 NClECP=     1 NCelD=      1
         NCelK=      1 NCelE2=     1 NClLst=     1 CellRange=     0.0.
 One-electron integrals computed using PRISM.
 One-electron integral symmetry used in STVInt
 NBasis=     6 RedAO= T EigKep=  4.63D-02  NBF=     4     0     0     0     0     2     0     0
 NBsUse=     6 1.00D-06 EigRej= -1.00D+00 NBFU=     4     0     0     0     0     2     0     0
 Precomputing XC quadrature grid using
 IXCGrd= 4 IRadAn=           5 IRanWt=          -1 IRanGd=           0 AccXCQ= 0.00D+00.
 Generated NRdTot=       0 NPtTot=           0 NUsed=           0 NTot=          32
 NSgBfM=     6     6     6     6     6 MxSgAt=     3 MxSgA2=     3.
 Leave Link  302 at Wed Oct  7 12:54:34 2020, MaxMem=  2684354560 cpu:               2.5 elap:               0.6
 (Enter /udrive/faculty/rpeverati/g16/g16/l303.exe)
 DipDrv:  MaxL=1.
 Leave Link  303 at Wed Oct  7 12:54:35 2020, MaxMem=  2684354560 cpu:               1.4 elap:               0.5
 (Enter /udrive/faculty/rpeverati/g16/g16/l401.exe)
 SCF N**3 symmetry information disabled.
 ExpMin= 1.61D-01 ExpMax= 1.87D+01 ExpMxC= 1.87D+01 IAcc=3 IRadAn=         5 AccDes= 0.00D+00
 Harris functional with IExCor= 1009 and IRadAn=       5 diagonalized for initial guess.
 HarFok:  IExCor= 1009 AccDes= 0.00D+00 IRadAn=         5 IDoV= 1 UseB2=F ITyADJ=14
 ICtDFT=  3500011 ScaDFX=  1.000000  1.000000  1.000000  1.000000
 FoFCou: FMM=F IPFlag=           0 FMFlag=      100000 FMFlg1=           0
         NFxFlg=           0 DoJE=T BraDBF=F KetDBF=T FulRan=T
         wScrn=  0.000000 ICntrl=       500 IOpCl=  0 I1Cent=   200000004 NGrid=           0
         NMat0=    1 NMatS0=      1 NMatT0=    0 NMatD0=    1 NMtDS0=    0 NMtDT0=    0
 Petite list used in FoFCou.
 Harris En= -1.63559058931942    
 JPrj=0 DoOrth=F DoCkMO=F.
 Initial guess orbital symmetries:
 Alpha Orbitals:
       Occupied  (SGG) (SGU)
       Virtual   (SGG) (SGG) (SGU) (SGG)
 Beta  Orbitals:
       Occupied  (SGG)
       Virtual   (SGU) (SGG) (SGG) (SGU) (SGG)
 The electronic state of the initial guess is 2-SGU.
 Initial guess <Sx>= 0.0000 <Sy>= 0.0000 <Sz>= 0.5000 <S**2>= 0.7500 S= 0.5000
 Leave Link  401 at Wed Oct  7 12:54:36 2020, MaxMem=  2684354560 cpu:               2.1 elap:               0.5
 (Enter /udrive/faculty/rpeverati/g16/g16/l502.exe)
 Keep J ints in memory in symmetry-blocked form, NReq=10144312.
 FoFCou: FMM=F IPFlag=           0 FMFlag=           0 FMFlg1=           0
         NFxFlg=           0 DoJE=F BraDBF=F KetDBF=F FulRan=T
         wScrn=  0.000000 ICntrl=       600 IOpCl=  0 I1Cent=           0 NGrid=           0
         NMat0=    1 NMatS0=     21 NMatT0=    0 NMatD0=    1 NMtDS0=    0 NMtDT0=    0
 Petite list used in FoFCou.
 UHF open shell SCF:
 Using DIIS extrapolation, IDIIS=  1040.
 NGot=  2684354560 LenX=  2684352344 LenY=  2684351462
 Requested convergence on RMS density matrix=1.00D-08 within 120 cycles.
 Requested convergence on MAX density matrix=1.00D-06.
 Requested convergence on             energy=1.00D-06.
 No special actions if energy rises.
 Integral accuracy reduced to 1.0D-05 until final iterations.

 Cycle   1  Pass 0  IDiag  1:
 E= -1.65025154094134    
 DIIS: error= 2.10D-02 at cycle   1 NSaved=   1.
 NSaved= 1 IEnMin= 1 EnMin= -1.65025154094134     IErMin= 1 ErrMin= 2.10D-02
 ErrMax= 2.10D-02  0.00D+00 EMaxC= 1.00D-01 BMatC= 5.67D-03 BMatP= 5.67D-03
 IDIUse=3 WtCom= 7.90D-01 WtEn= 2.10D-01
 Coeff-Com:  0.100D+01
 Coeff-En:   0.100D+01
 Coeff:      0.100D+01
 Gap=     0.335 Goal=   None    Shift=    0.000
 Gap=     0.283 Goal=   None    Shift=    0.000
 GapD=    0.283 DampG=1.000 DampE=0.500 DampFc=0.5000 IDamp=-1.
 Damping current iteration by 5.00D-01
 RMSDP=1.30D-02 MaxDP=4.33D-02              OVMax= 5.55D-02

 Cycle   2  Pass 0  IDiag  1:
 E= -1.65180279606443     Delta-E=       -0.001551255123 Rises=F Damp=T
 DIIS: error= 9.41D-03 at cycle   2 NSaved=   2.
 NSaved= 2 IEnMin= 2 EnMin= -1.65180279606443     IErMin= 2 ErrMin= 9.41D-03
 ErrMax= 9.41D-03  0.00D+00 EMaxC= 1.00D-01 BMatC= 1.36D-03 BMatP= 5.67D-03
 IDIUse=3 WtCom= 9.06D-01 WtEn= 9.41D-02
 Coeff-Com: -0.726D+00 0.173D+01
 Coeff-En:   0.000D+00 0.100D+01
 Coeff:     -0.658D+00 0.166D+01
 Gap=     0.338 Goal=   None    Shift=    0.000
 Gap=     0.295 Goal=   None    Shift=    0.000
 RMSDP=6.49D-03 MaxDP=2.31D-02 DE=-1.55D-03 OVMax= 1.49D-02

 Cycle   3  Pass 0  IDiag  1:
 E= -1.65348849849317     Delta-E=       -0.001685702429 Rises=F Damp=F
 DIIS: error= 1.92D-03 at cycle   3 NSaved=   3.
 NSaved= 3 IEnMin= 3 EnMin= -1.65348849849317     IErMin= 3 ErrMin= 1.92D-03
 ErrMax= 1.92D-03  0.00D+00 EMaxC= 1.00D-01 BMatC= 3.60D-05 BMatP= 1.36D-03
 IDIUse=3 WtCom= 9.81D-01 WtEn= 1.92D-02
 Coeff-Com: -0.576D-01-0.508D-01 0.111D+01
 Coeff-En:   0.000D+00 0.000D+00 0.100D+01
 Coeff:     -0.565D-01-0.498D-01 0.111D+01
 Gap=     0.340 Goal=   None    Shift=    0.000
 Gap=     0.296 Goal=   None    Shift=    0.000
 RMSDP=1.01D-03 MaxDP=2.72D-03 DE=-1.69D-03 OVMax= 4.42D-03

 Cycle   4  Pass 0  IDiag  1:
 E= -1.65351029098152     Delta-E=       -0.000021792488 Rises=F Damp=F
 DIIS: error= 1.06D-04 at cycle   4 NSaved=   4.
 NSaved= 4 IEnMin= 4 EnMin= -1.65351029098152     IErMin= 4 ErrMin= 1.06D-04
 ErrMax= 1.06D-04  0.00D+00 EMaxC= 1.00D-01 BMatC= 1.51D-07 BMatP= 3.60D-05
 IDIUse=3 WtCom= 9.99D-01 WtEn= 1.06D-03
 Coeff-Com:  0.404D-02-0.221D-01 0.602D-01 0.958D+00
 Coeff-En:   0.000D+00 0.000D+00 0.000D+00 0.100D+01
 Coeff:      0.403D-02-0.221D-01 0.602D-01 0.958D+00
 Gap=     0.340 Goal=   None    Shift=    0.000
 Gap=     0.297 Goal=   None    Shift=    0.000
 RMSDP=5.16D-05 MaxDP=1.51D-04 DE=-2.18D-05 OVMax= 2.17D-04

 Cycle   5  Pass 0  IDiag  1:
 E= -1.65351036621890     Delta-E=       -0.000000075237 Rises=F Damp=F
 DIIS: error= 8.42D-06 at cycle   5 NSaved=   5.
 NSaved= 5 IEnMin= 5 EnMin= -1.65351036621890     IErMin= 5 ErrMin= 8.42D-06
 ErrMax= 8.42D-06  0.00D+00 EMaxC= 1.00D-01 BMatC= 9.97D-10 BMatP= 1.51D-07
 IDIUse=1 WtCom= 1.00D+00 WtEn= 0.00D+00
 Coeff-Com:  0.131D-03 0.258D-02-0.163D-01-0.521D-01 0.107D+01
 Coeff:      0.131D-03 0.258D-02-0.163D-01-0.521D-01 0.107D+01
 Gap=     0.340 Goal=   None    Shift=    0.000
 Gap=     0.297 Goal=   None    Shift=    0.000
 RMSDP=4.11D-06 MaxDP=2.29D-05 DE=-7.52D-08 OVMax= 1.73D-05

 Initial convergence to 1.0D-05 achieved.  Increase integral accuracy.
 Cycle   6  Pass 1  IDiag  1:
 E= -1.65351037128764     Delta-E=       -0.000000005069 Rises=F Damp=F
 DIIS: error= 2.70D-07 at cycle   1 NSaved=   1.
 NSaved= 1 IEnMin= 1 EnMin= -1.65351037128764     IErMin= 1 ErrMin= 2.70D-07
 ErrMax= 2.70D-07  0.00D+00 EMaxC= 1.00D-01 BMatC= 1.31D-12 BMatP= 1.31D-12
 IDIUse=1 WtCom= 1.00D+00 WtEn= 0.00D+00
 Coeff-Com:  0.100D+01
 Coeff:      0.100D+01
 Gap=     0.340 Goal=   None    Shift=    0.000
 Gap=     0.297 Goal=   None    Shift=    0.000
 RMSDP=4.11D-06 MaxDP=2.29D-05 DE=-5.07D-09 OVMax= 8.69D-07

 Cycle   7  Pass 1  IDiag  1:
 E= -1.65351037128835     Delta-E=       -0.000000000001 Rises=F Damp=F
 DIIS: error= 8.79D-08 at cycle   2 NSaved=   2.
 NSaved= 2 IEnMin= 2 EnMin= -1.65351037128835     IErMin= 2 ErrMin= 8.79D-08
 ErrMax= 8.79D-08  0.00D+00 EMaxC= 1.00D-01 BMatC= 7.52D-14 BMatP= 1.31D-12
 IDIUse=1 WtCom= 1.00D+00 WtEn= 0.00D+00
 Coeff-Com:  0.103D+00 0.897D+00
 Coeff:      0.103D+00 0.897D+00
 Gap=     0.340 Goal=   None    Shift=    0.000
 Gap=     0.297 Goal=   None    Shift=    0.000
 RMSDP=4.46D-08 MaxDP=1.26D-07 DE=-7.11D-13 OVMax= 2.05D-07

 Cycle   8  Pass 1  IDiag  1:
 E= -1.65351037128839     Delta-E=       -0.000000000000 Rises=F Damp=F
 DIIS: error= 2.38D-08 at cycle   3 NSaved=   3.
 NSaved= 3 IEnMin= 3 EnMin= -1.65351037128839     IErMin= 3 ErrMin= 2.38D-08
 ErrMax= 2.38D-08  0.00D+00 EMaxC= 1.00D-01 BMatC= 5.38D-15 BMatP= 7.52D-14
 IDIUse=1 WtCom= 1.00D+00 WtEn= 0.00D+00
 Coeff-Com: -0.402D-01 0.988D-01 0.941D+00
 Coeff:     -0.402D-01 0.988D-01 0.941D+00
 Gap=     0.340 Goal=   None    Shift=    0.000
 Gap=     0.297 Goal=   None    Shift=    0.000
 RMSDP=1.07D-08 MaxDP=3.54D-08 DE=-3.51D-14 OVMax= 5.31D-08

 Cycle   9  Pass 1  IDiag  1:
 E= -1.65351037128839     Delta-E=       -0.000000000000 Rises=F Damp=F
 DIIS: error= 2.57D-09 at cycle   4 NSaved=   4.
 NSaved= 4 IEnMin= 4 EnMin= -1.65351037128839     IErMin= 4 ErrMin= 2.57D-09
 ErrMax= 2.57D-09  0.00D+00 EMaxC= 1.00D-01 BMatC= 6.85D-17 BMatP= 5.38D-15
 IDIUse=1 WtCom= 1.00D+00 WtEn= 0.00D+00
 Coeff-Com:  0.613D-02-0.381D-01-0.144D+00 0.118D+01
 Coeff:      0.613D-02-0.381D-01-0.144D+00 0.118D+01
 Gap=     0.340 Goal=   None    Shift=    0.000
 Gap=     0.297 Goal=   None    Shift=    0.000
 RMSDP=1.17D-09 MaxDP=3.75D-09 DE=-2.66D-15 OVMax= 5.49D-09

 SCF Done:  E(UPBE-PBE) =  -1.65351037129     A.U. after    9 cycles
            NFock=  9  Conv=0.12D-08     -V/T= 2.0061
 <Sx>= 0.0000 <Sy>= 0.0000 <Sz>= 0.5000 <S**2>= 0.7570 S= 0.5035
 <L.S>= 0.000000000000E+00
 KE= 1.643565995595D+00 PE=-6.001730342100D+00 EE= 1.281868357644D+00
 Annihilation of the first spin contaminant:
 S**2 before annihilation     0.7570,   after     0.7500
 Leave Link  502 at Wed Oct  7 12:54:37 2020, MaxMem=  2684354560 cpu:               4.9 elap:               0.8
 (Enter /udrive/faculty/rpeverati/g16/g16/l508.exe)
 QCSCF skips out because SCF is already converged.
 Leave Link  508 at Wed Oct  7 12:54:38 2020, MaxMem=  2684354560 cpu:               0.3 elap:               0.5
 (Enter /udrive/faculty/rpeverati/g16/g16/l601.exe)
 Copying SCF densities to generalized density rwf, IOpCl= 1 IROHF=0.

 **********************************************************************

            Population analysis using the SCF density.

 **********************************************************************

 Orbital symmetries:
 Alpha Orbitals:
       Occupied  (SGG) (SGU)
       Virtual   (SGG) (SGG) (SGU) (SGG)
 Beta  Orbitals:
       Occupied  (SGG)
       Virtual   (SGU) (SGG) (SGG) (SGU) (SGG)
 The electronic state is 2-SGU.
 Alpha  occ. eigenvalues --   -0.45448  -0.21336
 Alpha virt. eigenvalues --    0.12676   0.63367   0.70929   0.97095
  Beta  occ. eigenvalues --   -0.41381
  Beta virt. eigenvalues --   -0.11722   0.17729   0.68071   0.79886   1.01312
          Condensed to atoms (all electrons):
               1          2          3
     1  H    0.707041   0.202436   0.202436
     2  H    0.202436   0.877970  -0.136363
     3  H    0.202436  -0.136363   0.877970
          Atomic-Atomic Spin Densities.
               1          2          3
     1  H   -0.179633   0.006873   0.006873
     2  H    0.006873   0.730570  -0.154498
     3  H    0.006873  -0.154498   0.730570
 Mulliken charges and spin densities:
               1          2
     1  H   -0.111914  -0.165888
     2  H    0.055957   0.582944
     3  H    0.055957   0.582944
 Sum of Mulliken charges =  -0.00000   1.00000
 Mulliken charges and spin densities with hydrogens summed into heavy atoms:
               1          2
 Electronic spatial extent (au):  <R**2>=             13.5236
 Charge=             -0.0000 electrons
 Dipole moment (field-independent basis, Debye):
    X=              0.0000    Y=              0.0000    Z=             -0.0000  Tot=              0.0000
 Quadrupole moment (field-independent basis, Debye-Ang):
   XX=             -3.2916   YY=             -3.2916   ZZ=             -3.3074
   XY=              0.0000   XZ=              0.0000   YZ=              0.0000
 Traceless Quadrupole moment (field-independent basis, Debye-Ang):
   XX=              0.0053   YY=              0.0053   ZZ=             -0.0105
   XY=              0.0000   XZ=              0.0000   YZ=              0.0000
 Octapole moment (field-independent basis, Debye-Ang**2):
  XXX=             -0.0000  YYY=              0.0000  ZZZ=             -0.0000  XYY=             -0.0000
  XXY=              0.0000  XXZ=             -0.0000  XZZ=             -0.0000  YZZ=              0.0000
  YYZ=             -0.0000  XYZ=              0.0000
 Hexadecapole moment (field-independent basis, Debye-Ang**3):
 XXXX=             -3.1959 YYYY=             -3.1959 ZZZZ=            -15.1638 XXXY=              0.0000
 XXXZ=              0.0000 YYYX=              0.0000 YYYZ=              0.0000 ZZZX=              0.0000
 ZZZY=              0.0000 XXYY=             -1.0653 XXZZ=             -3.1291 YYZZ=             -3.1291
 XXYZ=              0.0000 YYXZ=              0.0000 ZZXY=              0.0000
 N-N= 1.422785617572D+00 E-N=-6.001730340558D+00  KE= 1.643565995595D+00
                          Isotropic Fermi Contact Couplings
        Atom                 a.u.       MegaHertz       Gauss      10(-4) cm-1
     1  H(1)              -0.04003    -178.94009     -63.85028     -59.68799
     2  H(1)               0.19594     875.84437     312.52305     292.15024
     3  H(1)               0.19594     875.84437     312.52305     292.15024
 --------------------------------------------------------
       Center         ----  Spin Dipole Couplings  ----
                      3XX-RR        3YY-RR        3ZZ-RR
 --------------------------------------------------------
     1   Atom       -0.111758     -0.111758      0.223517
     2   Atom        0.007163      0.007163     -0.014326
     3   Atom        0.007163      0.007163     -0.014326
 --------------------------------------------------------
                        XY            XZ            YZ
 --------------------------------------------------------
     1   Atom        0.000000     -0.000000      0.000000
     2   Atom        0.000000      0.000000      0.000000
     3   Atom        0.000000      0.000000      0.000000
 --------------------------------------------------------


 ---------------------------------------------------------------------------------
              Anisotropic Spin Dipole Couplings in Principal Axis System
 ---------------------------------------------------------------------------------

       Atom             a.u.   MegaHertz   Gauss  10(-4) cm-1        Axes

              Baa    -0.1118   -59.629   -21.277   -19.890  0.0000  1.0000  0.0000
     1 H(1)   Bbb    -0.1118   -59.629   -21.277   -19.890  1.0000  0.0000  0.0000
              Bcc     0.2235   119.258    42.554    39.780 -0.0000  0.0000  1.0000
 
              Baa    -0.0143    -7.644    -2.727    -2.550 -0.0000  0.0000  1.0000
     2 H(1)   Bbb     0.0072     3.822     1.364     1.275  0.0000  1.0000  0.0000
              Bcc     0.0072     3.822     1.364     1.275  1.0000  0.0000  0.0000
 
              Baa    -0.0143    -7.644    -2.727    -2.550 -0.0000  0.0000  1.0000
     3 H(1)   Bbb     0.0072     3.822     1.364     1.275  0.0000  1.0000  0.0000
              Bcc     0.0072     3.822     1.364     1.275  1.0000  0.0000  0.0000
 

 ---------------------------------------------------------------------------------

 No NMR shielding tensors so no spin-rotation constants.
 Leave Link  601 at Wed Oct  7 12:54:38 2020, MaxMem=  2684354560 cpu:               3.6 elap:               0.7
 (Enter /udrive/faculty/rpeverati/g16/g16/l701.exe)
 ... and contract with generalized density number  0.
 Compute integral first derivatives.
 R6Disp: Adding Grimme-D3(BJ) dispersion energy 1st derivatives to the gradient.
 Leave Link  701 at Wed Oct  7 12:54:39 2020, MaxMem=  2684354560 cpu:               2.1 elap:               0.6
 (Enter /udrive/faculty/rpeverati/g16/g16/l702.exe)
 L702 exits ... SP integral derivatives will be done elsewhere.
 Leave Link  702 at Wed Oct  7 12:54:40 2020, MaxMem=  2684354560 cpu:               1.9 elap:               0.6
 (Enter /udrive/faculty/rpeverati/g16/g16/l703.exe)
 Integral derivatives from FoFJK, PRISM(SPDF).
 Compute integral first derivatives, UseDBF=F ICtDFT=           0.
 Calling FoFJK, ICntrl=      2527 FMM=F ISym2X=1 I1Cent= 0 IOpClX= 0 NMat=1 NMatS=1 NMatT=0.
 FoFJK:  IHMeth= 1 ICntrl=    2527 DoSepK=F KAlg= 0 I1Cent=           0 FoldK=F
 IRaf=         0 NMat=       1 IRICut=       1 DoRegI=T DoRafI=F ISym2E= 1 IDoP0=0 IntGTp=1.
 FoFCou: FMM=F IPFlag=           0 FMFlag=      100000 FMFlg1=         800
         NFxFlg=           0 DoJE=F BraDBF=F KetDBF=F FulRan=T
         wScrn=  0.000000 ICntrl=      2527 IOpCl=  0 I1Cent=           0 NGrid=           0
         NMat0=    1 NMatS0=      1 NMatT0=    0 NMatD0=    1 NMtDS0=    0 NMtDT0=    0
 Petite list used in FoFCou.
 Leave Link  703 at Wed Oct  7 12:54:41 2020, MaxMem=  2684354560 cpu:               1.6 elap:               0.4
 (Enter /udrive/faculty/rpeverati/g16/g16/l716.exe)
 Dipole        = 8.94105133D-18 0.00000000D+00 0.00000000D+00
 ***** Axes restored to original set *****
 -------------------------------------------------------------------
 Center     Atomic                   Forces (Hartrees/Bohr)
 Number     Number              X              Y              Z
 -------------------------------------------------------------------
      1        1           0.000000000    0.000000000    0.000000000
      2        1          -0.000000000   -0.000000000    0.003563589
      3        1          -0.000000000   -0.000000000   -0.003563589
 -------------------------------------------------------------------
 Cartesian Forces:  Max     0.003563589 RMS     0.001679892
 Leave Link  716 at Wed Oct  7 12:54:42 2020, MaxMem=  2684354560 cpu:               1.5 elap:               0.5
 (Enter /udrive/faculty/rpeverati/g16/g16/l103.exe)

 GradGradGradGradGradGradGradGradGradGradGradGradGradGradGradGradGradGrad
 Berny optimization.
 Optmz: redundant internal coordinate code flag= 1
 FormGI is forming the generalized inverse of G from B-inverse, IUseBI=4.
 Internal  Forces:  Max     0.003563589 RMS     0.002519838
 Search for a saddle point.
 Step number   1 out of a maximum of   50
 All quantities printed in internal units (Hartrees-Bohrs-Radians)
 Swapping is turned off.
 Second derivative matrix not updated -- first step.
 The second derivative matrix:
                          R1        R2        A1        A2
           R1           0.21660
           R2           0.00000   0.21660
           A1           0.00000   0.00000   0.00230
           A2           0.00000   0.00000   0.00000   0.00230
 ITU=  0
 Eigenvectors of the second derivative matrix:
                           1         2         3         4
     Eigenvalues --     0.00230   0.00230   0.21660   0.21660
   1         R1         0.00000  -0.00000  -0.70711  -0.70711
   2         R2        -0.00000   0.00000  -0.70711   0.70711
   3         A1        -0.86380  -0.50384   0.00000   0.00000
   4         A2        -0.50384   0.86380   0.00000  -0.00000
 Eigenvalue     1 is   2.30D-03 should be less than     0.000000 Eigenvector:
                          A1        A2        R1        R2
   1                   -0.86380  -0.50384   0.00000  -0.00000
 RLam0= 2.30D-03.
 Iter=   1 RLamda= 0.00000000D+00 Sum=-1.17257114D-04.
 Iter=   2 RLamda=-1.17257114D-04 Sum=-1.17193672D-04.
 Iter=   3 RLamda=-1.17193672D-04 Sum=-1.17193706D-04.
 RFO step:  Lambda0=2.300010000D-03 Lambda=-1.17193672D-04.
 Linear search not attempted -- option 19 set.
 Iteration  1 RMS(Cart)=  0.01430742 RMS(Int)=  0.00013644
 Iteration  2 RMS(Cart)=  0.00011498 RMS(Int)=  0.00000011
 Iteration  3 RMS(Cart)=  0.00000001 RMS(Int)=  0.00000011
 ITry= 1 IFail=0 DXMaxC= 1.63D-02 DCOld= 1.00D+10 DXMaxT= 1.00D-01 DXLimC= 3.00D+00 Rises=F
 ClnCor:  largest displacement from symmetrization is 1.37D-02 for atom     1.
 Variable       Old X    -DE/DX   Delta X   Delta X   Delta X     New X
                                 (Linear)    (Quad)   (Total)
    R1        1.75645   0.00356   0.00000   0.01644   0.01632   1.77277
    R2        1.75645   0.00356   0.00000   0.01644   0.01632   1.77277
    A1        3.14159   0.00000   0.00000   0.02009   0.00000   3.14159
    A2        3.14159  -0.00000   0.00000   0.01172   0.00000   3.14159
         Item               Value     Threshold  Converged?
 Maximum Force            0.003564     0.000450     NO 
 RMS     Force            0.002520     0.000300     NO 
 Maximum Displacement     0.016323     0.001800     NO 
 RMS     Displacement     0.011542     0.001200     NO 
 Predicted change in Energy=-5.862497D-05
 Lowest energy point so far.  Saving SCF results.
 Largest change from initial coordinates is atom    2       0.009 Angstoms.
 GradGradGradGradGradGradGradGradGradGradGradGradGradGradGradGradGradGrad

 Leave Link  103 at Wed Oct  7 12:54:42 2020, MaxMem=  2684354560 cpu:               1.9 elap:               0.6
 (Enter /udrive/faculty/rpeverati/g16/g16/l202.exe)
                          Input orientation:                          
 ---------------------------------------------------------------------
 Center     Atomic      Atomic             Coordinates (Angstroms)
 Number     Number       Type             X           Y           Z
 ---------------------------------------------------------------------
      1          1           0       -0.000000    0.000000   -0.000000
      2          1           0        0.000000    0.000000    0.938111
      3          1           0        0.000000    0.000000   -0.938111
 ---------------------------------------------------------------------
                    Distance matrix (angstroms):
                    1          2          3
     1  H    0.000000
     2  H    0.938111   0.000000
     3  H    0.938111   1.876223   0.000000
 Stoichiometry    H3(2)
 Framework group  D*H[O(H),C*(H.H)]
 Deg. of freedom     1
 Full point group                 D*H     NOp   8
 RotChk:  IX=0 Diff= 0.00D+00
 Largest Abelian subgroup         D2H     NOp   8
 Largest concise Abelian subgroup C2      NOp   2
                         Standard orientation:                         
 ---------------------------------------------------------------------
 Center     Atomic      Atomic             Coordinates (Angstroms)
 Number     Number       Type             X           Y           Z
 ---------------------------------------------------------------------
      1          1           0        0.000000    0.000000    0.000000
      2          1           0        0.000000    0.000000    0.938111
      3          1           0        0.000000    0.000000   -0.938111
 ---------------------------------------------------------------------
 Rotational constants (GHZ):           0.0000000         284.9005918         284.9005918
 Leave Link  202 at Wed Oct  7 12:54:43 2020, MaxMem=  2684354560 cpu:               0.8 elap:               0.3
 (Enter /udrive/faculty/rpeverati/g16/g16/l301.exe)
 Standard basis: 6-31G(d) (5D, 7F)
 Ernie: Thresh=  0.10000D-02 Tol=  0.10000D-05 Strict=F.
 There are     4 symmetry adapted cartesian basis functions of AG  symmetry.
 There are     0 symmetry adapted cartesian basis functions of B1G symmetry.
 There are     0 symmetry adapted cartesian basis functions of B2G symmetry.
 There are     0 symmetry adapted cartesian basis functions of B3G symmetry.
 There are     0 symmetry adapted cartesian basis functions of AU  symmetry.
 There are     2 symmetry adapted cartesian basis functions of B1U symmetry.
 There are     0 symmetry adapted cartesian basis functions of B2U symmetry.
 There are     0 symmetry adapted cartesian basis functions of B3U symmetry.
 There are     4 symmetry adapted basis functions of AG  symmetry.
 There are     0 symmetry adapted basis functions of B1G symmetry.
 There are     0 symmetry adapted basis functions of B2G symmetry.
 There are     0 symmetry adapted basis functions of B3G symmetry.
 There are     0 symmetry adapted basis functions of AU  symmetry.
 There are     2 symmetry adapted basis functions of B1U symmetry.
 There are     0 symmetry adapted basis functions of B2U symmetry.
 There are     0 symmetry adapted basis functions of B3U symmetry.
     6 basis functions,    12 primitive gaussians,     6 cartesian basis functions
     2 alpha electrons        1 beta electrons
       nuclear repulsion energy         1.4102197314 Hartrees.
 IExCor= 1009 DFT=T Ex=PBE Corr=PBE ExCW=0 ScaHFX=  0.000000
 ScaDFX=  1.000000  1.000000  1.000000  1.000000 ScalE2=  1.000000  1.000000
 IRadAn=      5 IRanWt=     -1 IRanGd=            0 ICorTp=0 IEmpDi=141
 NAtoms=    3 NActive=    3 NUniq=    2 SFac= 2.25D+00 NAtFMM=   60 NAOKFM=F Big=F
 Integral buffers will be    131072 words long.
 Raffenetti 2 integral format.
 Two-electron integral symmetry is turned on.
 R6Disp:  Grimme-D3(BJ) Dispersion energy=       -0.0005568342 Hartrees.
 Nuclear repulsion after empirical dispersion term =        1.4096628972 Hartrees.
 Leave Link  301 at Wed Oct  7 12:54:44 2020, MaxMem=  2684354560 cpu:               1.6 elap:               0.5
 (Enter /udrive/faculty/rpeverati/g16/g16/l302.exe)
 NPDir=0 NMtPBC=     1 NCelOv=     1 NCel=       1 NClECP=     1 NCelD=      1
         NCelK=      1 NCelE2=     1 NClLst=     1 CellRange=     0.0.
 One-electron integrals computed using PRISM.
 One-electron integral symmetry used in STVInt
 NBasis=     6 RedAO= T EigKep=  4.76D-02  NBF=     4     0     0     0     0     2     0     0
 NBsUse=     6 1.00D-06 EigRej= -1.00D+00 NBFU=     4     0     0     0     0     2     0     0
 Precomputing XC quadrature grid using
 IXCGrd= 4 IRadAn=           5 IRanWt=          -1 IRanGd=           0 AccXCQ= 0.00D+00.
 Generated NRdTot=       0 NPtTot=           0 NUsed=           0 NTot=          32
 NSgBfM=     6     6     6     6     6 MxSgAt=     3 MxSgA2=     3.
 Leave Link  302 at Wed Oct  7 12:54:44 2020, MaxMem=  2684354560 cpu:               1.8 elap:               0.5
 (Enter /udrive/faculty/rpeverati/g16/g16/l303.exe)
 DipDrv:  MaxL=1.
 Leave Link  303 at Wed Oct  7 12:54:45 2020, MaxMem=  2684354560 cpu:               1.6 elap:               0.5
 (Enter /udrive/faculty/rpeverati/g16/g16/l401.exe)
 Initial guess from the checkpoint file:  "MN_82_RKT06_BH76_PBEDBJ_631Gs.chk"
 SCF N**3 symmetry information disabled.
 B after Tr=     0.000000    0.000000    0.000000
         Rot=    1.000000    0.000000    0.000000    0.000000 Ang=   0.00 deg.
 Guess basis will be translated and rotated to current coordinates.
 JPrj=2 DoOrth=T DoCkMO=T.
 Initial guess orbital symmetries:
 Alpha Orbitals:
       Occupied  (SGG) (SGU)
       Virtual   (SGG) (SGG) (SGU) (SGG)
 Beta  Orbitals:
       Occupied  (SGG)
       Virtual   (SGU) (SGG) (SGG) (SGU) (SGG)
 The electronic state of the initial guess is 2-SGU.
 Initial guess <Sx>= 0.0000 <Sy>= 0.0000 <Sz>= 0.5000 <S**2>= 0.7572 S= 0.5036
 Leave Link  401 at Wed Oct  7 12:54:46 2020, MaxMem=  2684354560 cpu:               2.6 elap:               0.5
 (Enter /udrive/faculty/rpeverati/g16/g16/l502.exe)
 Keep J ints in memory in symmetry-blocked form, NReq=10144312.
 FoFCou: FMM=F IPFlag=           0 FMFlag=           0 FMFlg1=           0
         NFxFlg=           0 DoJE=F BraDBF=F KetDBF=F FulRan=T
         wScrn=  0.000000 ICntrl=       600 IOpCl=  0 I1Cent=           0 NGrid=           0
         NMat0=    1 NMatS0=     21 NMatT0=    0 NMatD0=    1 NMtDS0=    0 NMtDT0=    0
 Petite list used in FoFCou.
 UHF open shell SCF:
 Using DIIS extrapolation, IDIIS=  1040.
 NGot=  2684354560 LenX=  2684352344 LenY=  2684351462
 Requested convergence on RMS density matrix=1.00D-08 within 120 cycles.
 Requested convergence on MAX density matrix=1.00D-06.
 Requested convergence on             energy=1.00D-06.
 No special actions if energy rises.

 Cycle   1  Pass 1  IDiag  1:
 E= -1.65356725571491    
 DIIS: error= 1.25D-03 at cycle   1 NSaved=   1.
 NSaved= 1 IEnMin= 1 EnMin= -1.65356725571491     IErMin= 1 ErrMin= 1.25D-03
 ErrMax= 1.25D-03  0.00D+00 EMaxC= 1.00D-01 BMatC= 3.36D-05 BMatP= 3.36D-05
 IDIUse=3 WtCom= 9.87D-01 WtEn= 1.25D-02
 Coeff-Com:  0.100D+01
 Coeff-En:   0.100D+01
 Coeff:      0.100D+01
 Gap=     0.339 Goal=   None    Shift=    0.000
 Gap=     0.292 Goal=   None    Shift=    0.000
 GapD=    0.292 DampG=1.000 DampE=1.000 DampFc=1.0000 IDamp=-1.
 RMSDP=7.13D-04 MaxDP=1.95D-03              OVMax= 3.12D-03

 Cycle   2  Pass 1  IDiag  1:
 E= -1.65358058876828     Delta-E=       -0.000013333053 Rises=F Damp=F
 DIIS: error= 3.80D-04 at cycle   2 NSaved=   2.
 NSaved= 2 IEnMin= 2 EnMin= -1.65358058876828     IErMin= 2 ErrMin= 3.80D-04
 ErrMax= 3.80D-04  0.00D+00 EMaxC= 1.00D-01 BMatC= 2.70D-06 BMatP= 3.36D-05
 IDIUse=3 WtCom= 9.96D-01 WtEn= 3.80D-03
 Coeff-Com:  0.193D+00 0.807D+00
 Coeff-En:   0.000D+00 0.100D+01
 Coeff:      0.192D+00 0.808D+00
 Gap=     0.339 Goal=   None    Shift=    0.000
 Gap=     0.293 Goal=   None    Shift=    0.000
 RMSDP=2.50D-04 MaxDP=6.39D-04 DE=-1.33D-05 OVMax= 8.18D-04

 Cycle   3  Pass 1  IDiag  1:
 E= -1.65358177582088     Delta-E=       -0.000001187053 Rises=F Damp=F
 DIIS: error= 6.49D-05 at cycle   3 NSaved=   3.
 NSaved= 3 IEnMin= 3 EnMin= -1.65358177582088     IErMin= 3 ErrMin= 6.49D-05
 ErrMax= 6.49D-05  0.00D+00 EMaxC= 1.00D-01 BMatC= 5.41D-08 BMatP= 2.70D-06
 IDIUse=1 WtCom= 1.00D+00 WtEn= 0.00D+00
 Coeff-Com: -0.327D-02 0.104D+00 0.899D+00
 Coeff:     -0.327D-02 0.104D+00 0.899D+00
 Gap=     0.339 Goal=   None    Shift=    0.000
 Gap=     0.293 Goal=   None    Shift=    0.000
 RMSDP=2.66D-05 MaxDP=6.36D-05 DE=-1.19D-06 OVMax= 1.12D-04

 Cycle   4  Pass 1  IDiag  1:
 E= -1.65358179921343     Delta-E=       -0.000000023393 Rises=F Damp=F
 DIIS: error= 5.52D-06 at cycle   4 NSaved=   4.
 NSaved= 4 IEnMin= 4 EnMin= -1.65358179921343     IErMin= 4 ErrMin= 5.52D-06
 ErrMax= 5.52D-06  0.00D+00 EMaxC= 1.00D-01 BMatC= 4.09D-10 BMatP= 5.41D-08
 IDIUse=1 WtCom= 1.00D+00 WtEn= 0.00D+00
 Coeff-Com: -0.286D-02-0.131D-01-0.228D-01 0.104D+01
 Coeff:     -0.286D-02-0.131D-01-0.228D-01 0.104D+01
 Gap=     0.339 Goal=   None    Shift=    0.000
 Gap=     0.293 Goal=   None    Shift=    0.000
 RMSDP=2.60D-06 MaxDP=1.27D-05 DE=-2.34D-08 OVMax= 1.27D-05

 Cycle   5  Pass 1  IDiag  1:
 E= -1.65358179943838     Delta-E=       -0.000000000225 Rises=F Damp=F
 DIIS: error= 7.00D-07 at cycle   5 NSaved=   5.
 NSaved= 5 IEnMin= 5 EnMin= -1.65358179943838     IErMin= 5 ErrMin= 7.00D-07
 ErrMax= 7.00D-07  0.00D+00 EMaxC= 1.00D-01 BMatC= 8.32D-12 BMatP= 4.09D-10
 IDIUse=1 WtCom= 1.00D+00 WtEn= 0.00D+00
 Coeff-Com:  0.316D-03-0.125D-02-0.171D-01-0.881D-01 0.111D+01
 Coeff:      0.316D-03-0.125D-02-0.171D-01-0.881D-01 0.111D+01
 Gap=     0.339 Goal=   None    Shift=    0.000
 Gap=     0.293 Goal=   None    Shift=    0.000
 RMSDP=6.10D-07 MaxDP=1.94D-06 DE=-2.25D-10 OVMax= 1.91D-06

 Cycle   6  Pass 1  IDiag  1:
 E= -1.65358179944453     Delta-E=       -0.000000000006 Rises=F Damp=F
 DIIS: error= 6.25D-08 at cycle   6 NSaved=   6.
 NSaved= 6 IEnMin= 6 EnMin= -1.65358179944453     IErMin= 6 ErrMin= 6.25D-08
 ErrMax= 6.25D-08  0.00D+00 EMaxC= 1.00D-01 BMatC= 5.88D-14 BMatP= 8.32D-12
 IDIUse=1 WtCom= 1.00D+00 WtEn= 0.00D+00
 Coeff-Com: -0.213D-04 0.242D-03 0.236D-02 0.230D-02-0.158D+00 0.115D+01
 Coeff:     -0.213D-04 0.242D-03 0.236D-02 0.230D-02-0.158D+00 0.115D+01
 Gap=     0.339 Goal=   None    Shift=    0.000
 Gap=     0.293 Goal=   None    Shift=    0.000
 RMSDP=4.76D-08 MaxDP=1.37D-07 DE=-6.15D-12 OVMax= 1.97D-07

 Cycle   7  Pass 1  IDiag  1:
 E= -1.65358179944457     Delta-E=       -0.000000000000 Rises=F Damp=F
 DIIS: error= 1.93D-09 at cycle   7 NSaved=   7.
 NSaved= 7 IEnMin= 7 EnMin= -1.65358179944457     IErMin= 7 ErrMin= 1.93D-09
 ErrMax= 1.93D-09  0.00D+00 EMaxC= 1.00D-01 BMatC= 6.53D-17 BMatP= 5.88D-14
 IDIUse=1 WtCom= 1.00D+00 WtEn= 0.00D+00
 Coeff-Com:  0.529D-06-0.114D-04-0.121D-03 0.220D-03 0.813D-02-0.689D-01
 Coeff-Com:  0.106D+01
 Coeff:      0.529D-06-0.114D-04-0.121D-03 0.220D-03 0.813D-02-0.689D-01
 Coeff:      0.106D+01
 Gap=     0.339 Goal=   None    Shift=    0.000
 Gap=     0.293 Goal=   None    Shift=    0.000
 RMSDP=2.13D-09 MaxDP=1.11D-08 DE=-4.26D-14 OVMax= 6.69D-09

 SCF Done:  E(UPBE-PBE) =  -1.65358179944     A.U. after    7 cycles
            NFock=  7  Conv=0.21D-08     -V/T= 2.0116
 <Sx>= 0.0000 <Sy>= 0.0000 <Sz>= 0.5000 <S**2>= 0.7572 S= 0.5036
 <L.S>= 0.000000000000E+00
 KE= 1.634542804036D+00 PE=-5.972694198274D+00 EE= 1.274906697610D+00
 Annihilation of the first spin contaminant:
 S**2 before annihilation     0.7572,   after     0.7500
 Leave Link  502 at Wed Oct  7 12:54:47 2020, MaxMem=  2684354560 cpu:               4.7 elap:               0.7
 (Enter /udrive/faculty/rpeverati/g16/g16/l508.exe)
 QCSCF skips out because SCF is already converged.
 Leave Link  508 at Wed Oct  7 12:54:47 2020, MaxMem=  2684354560 cpu:               0.5 elap:               0.4
 (Enter /udrive/faculty/rpeverati/g16/g16/l701.exe)
 ... and contract with generalized density number  0.
 Compute integral first derivatives.
 R6Disp: Adding Grimme-D3(BJ) dispersion energy 1st derivatives to the gradient.
 Leave Link  701 at Wed Oct  7 12:54:48 2020, MaxMem=  2684354560 cpu:               2.1 elap:               0.5
 (Enter /udrive/faculty/rpeverati/g16/g16/l702.exe)
 L702 exits ... SP integral derivatives will be done elsewhere.
 Leave Link  702 at Wed Oct  7 12:54:49 2020, MaxMem=  2684354560 cpu:               1.5 elap:               0.5
 (Enter /udrive/faculty/rpeverati/g16/g16/l703.exe)
 Integral derivatives from FoFJK, PRISM(SPDF).
 Compute integral first derivatives, UseDBF=F ICtDFT=           0.
 Calling FoFJK, ICntrl=      2527 FMM=F ISym2X=1 I1Cent= 0 IOpClX= 0 NMat=1 NMatS=1 NMatT=0.
 FoFJK:  IHMeth= 1 ICntrl=    2527 DoSepK=F KAlg= 0 I1Cent=           0 FoldK=F
 IRaf=         0 NMat=       1 IRICut=       1 DoRegI=T DoRafI=F ISym2E= 1 IDoP0=0 IntGTp=1.
 FoFCou: FMM=F IPFlag=           0 FMFlag=      100000 FMFlg1=         800
         NFxFlg=           0 DoJE=F BraDBF=F KetDBF=F FulRan=T
         wScrn=  0.000000 ICntrl=      2527 IOpCl=  0 I1Cent=           0 NGrid=           0
         NMat0=    1 NMatS0=      1 NMatT0=    0 NMatD0=    1 NMtDS0=    0 NMtDT0=    0
 Petite list used in FoFCou.
 Leave Link  703 at Wed Oct  7 12:54:49 2020, MaxMem=  2684354560 cpu:               1.9 elap:               0.5
 (Enter /udrive/faculty/rpeverati/g16/g16/l716.exe)
 Dipole        = 8.90205948D-18 0.00000000D+00-2.22044605D-16
 ***** Axes restored to original set *****
 -------------------------------------------------------------------
 Center     Atomic                   Forces (Hartrees/Bohr)
 Number     Number              X              Y              Z
 -------------------------------------------------------------------
      1        1           0.000000000    0.000000000    0.000000000
      2        1          -0.000000000   -0.000000000    0.000832496
      3        1          -0.000000000   -0.000000000   -0.000832496
 -------------------------------------------------------------------
 Cartesian Forces:  Max     0.000832496 RMS     0.000392442
 Leave Link  716 at Wed Oct  7 12:54:50 2020, MaxMem=  2684354560 cpu:               1.7 elap:               0.6
 (Enter /udrive/faculty/rpeverati/g16/g16/l103.exe)

 GradGradGradGradGradGradGradGradGradGradGradGradGradGradGradGradGradGrad
 Berny optimization.
 Optmz: redundant internal coordinate code flag= 1
 Red2BG:  D1=  1.00D+00 OD1=  3.33D-16 B2RMS=  0.00D+00 IAprox=1
 Red2BG is reusing G-inverse.
 Internal  Forces:  Max     0.000832496 RMS     0.000588663
 Search for a saddle point.
 Step number   2 out of a maximum of   50
 All quantities printed in internal units (Hartrees-Bohrs-Radians)
 Swapping is turned off.
 Update second derivatives using D2CorX and points    1    2
 The second derivative matrix:
                          R1        R2        A1        A2
           R1           0.19196
           R2          -0.02465   0.19196
           A1           0.00000   0.00000   0.00230
           A2          -0.00000  -0.00000   0.00000   0.00230
 ITU=  0  0
 Eigenvectors of the second derivative matrix:
                           1         2         3         4
     Eigenvalues --     0.00230   0.00230   0.16731   0.21660
   1         R1         0.00000   0.00000  -0.70711  -0.70711
   2         R2        -0.00000  -0.00000  -0.70711   0.70711
   3         A1        -0.79435   0.60746  -0.00000  -0.00000
   4         A2         0.60746   0.79435   0.00000   0.00000
 Eigenvalue     1 is   2.30D-03 should be less than     0.000000 Eigenvector:
                          A1        A2        R1        R2
   1                   -0.79435   0.60746   0.00000  -0.00000
 RLam0= 2.30D-03.
 Iter=   1 RLamda= 0.00000000D+00 Sum=-8.28452530D-06.
 Iter=   2 RLamda=-8.28452530D-06 Sum=-8.28411511D-06.
 RFO step:  Lambda0=2.300010000D-03 Lambda=-8.28452530D-06.
 Linear search not attempted -- option 19 set.
 Iteration  1 RMS(Cart)=  0.00434291 RMS(Int)=  0.00001253
 Iteration  2 RMS(Cart)=  0.00001056 RMS(Int)=  0.00000000
 Iteration  3 RMS(Cart)=  0.00000000 RMS(Int)=  0.00000000
 ITry= 1 IFail=0 DXMaxC= 4.96D-03 DCOld= 1.00D+10 DXMaxT= 1.00D-01 DXLimC= 3.00D+00 Rises=F
 ClnCor:  largest displacement from symmetrization is 4.17D-03 for atom     1.
 Variable       Old X    -DE/DX   Delta X   Delta X   Delta X     New X
                                 (Linear)    (Quad)   (Total)
    R1        1.77277   0.00083   0.00000   0.00498   0.00496   1.77774
    R2        1.77277   0.00083   0.00000   0.00498   0.00496   1.77774
    A1        3.14159   0.00000   0.00000   0.00559   0.00000   3.14159
    A2        3.14159  -0.00000   0.00000  -0.00427   0.00000   3.14159
         Item               Value     Threshold  Converged?
 Maximum Force            0.000832     0.000450     NO 
 RMS     Force            0.000589     0.000300     NO 
 Maximum Displacement     0.004964     0.001800     NO 
 RMS     Displacement     0.003510     0.001200     NO 
 Predicted change in Energy=-4.142241D-06
 Lowest energy point so far.  Saving SCF results.
 Largest change from initial coordinates is atom    2       0.011 Angstoms.
 GradGradGradGradGradGradGradGradGradGradGradGradGradGradGradGradGradGrad

 Leave Link  103 at Wed Oct  7 12:54:51 2020, MaxMem=  2684354560 cpu:               1.4 elap:               0.5
 (Enter /udrive/faculty/rpeverati/g16/g16/l202.exe)
                          Input orientation:                          
 ---------------------------------------------------------------------
 Center     Atomic      Atomic             Coordinates (Angstroms)
 Number     Number       Type             X           Y           Z
 ---------------------------------------------------------------------
      1          1           0        0.000000    0.000000   -0.000000
      2          1           0        0.000000    0.000000    0.940738
      3          1           0        0.000000    0.000000   -0.940738
 ---------------------------------------------------------------------
                    Distance matrix (angstroms):
                    1          2          3
     1  H    0.000000
     2  H    0.940738   0.000000
     3  H    0.940738   1.881477   0.000000
 Stoichiometry    H3(2)
 Framework group  D*H[O(H),C*(H.H)]
 Deg. of freedom     1
 Full point group                 D*H     NOp   8
 RotChk:  IX=0 Diff= 0.00D+00
 Largest Abelian subgroup         D2H     NOp   8
 Largest concise Abelian subgroup C2      NOp   2
                         Standard orientation:                         
 ---------------------------------------------------------------------
 Center     Atomic      Atomic             Coordinates (Angstroms)
 Number     Number       Type             X           Y           Z
 ---------------------------------------------------------------------
      1          1           0        0.000000    0.000000    0.000000
      2          1           0        0.000000    0.000000    0.940738
      3          1           0        0.000000    0.000000   -0.940738
 ---------------------------------------------------------------------
 Rotational constants (GHZ):           0.0000000         283.3116006         283.3116006
 Leave Link  202 at Wed Oct  7 12:54:52 2020, MaxMem=  2684354560 cpu:               0.9 elap:               0.4
 (Enter /udrive/faculty/rpeverati/g16/g16/l301.exe)
 Standard basis: 6-31G(d) (5D, 7F)
 Ernie: Thresh=  0.10000D-02 Tol=  0.10000D-05 Strict=F.
 There are     4 symmetry adapted cartesian basis functions of AG  symmetry.
 There are     0 symmetry adapted cartesian basis functions of B1G symmetry.
 There are     0 symmetry adapted cartesian basis functions of B2G symmetry.
 There are     0 symmetry adapted cartesian basis functions of B3G symmetry.
 There are     0 symmetry adapted cartesian basis functions of AU  symmetry.
 There are     2 symmetry adapted cartesian basis functions of B1U symmetry.
 There are     0 symmetry adapted cartesian basis functions of B2U symmetry.
 There are     0 symmetry adapted cartesian basis functions of B3U symmetry.
 There are     4 symmetry adapted basis functions of AG  symmetry.
 There are     0 symmetry adapted basis functions of B1G symmetry.
 There are     0 symmetry adapted basis functions of B2G symmetry.
 There are     0 symmetry adapted basis functions of B3G symmetry.
 There are     0 symmetry adapted basis functions of AU  symmetry.
 There are     2 symmetry adapted basis functions of B1U symmetry.
 There are     0 symmetry adapted basis functions of B2U symmetry.
 There are     0 symmetry adapted basis functions of B3U symmetry.
     6 basis functions,    12 primitive gaussians,     6 cartesian basis functions
     2 alpha electrons        1 beta electrons
       nuclear repulsion energy         1.4062815858 Hartrees.
 IExCor= 1009 DFT=T Ex=PBE Corr=PBE ExCW=0 ScaHFX=  0.000000
 ScaDFX=  1.000000  1.000000  1.000000  1.000000 ScalE2=  1.000000  1.000000
 IRadAn=      5 IRanWt=     -1 IRanGd=            0 ICorTp=0 IEmpDi=141
 NAtoms=    3 NActive=    3 NUniq=    2 SFac= 2.25D+00 NAtFMM=   60 NAOKFM=F Big=F
 Integral buffers will be    131072 words long.
 Raffenetti 2 integral format.
 Two-electron integral symmetry is turned on.
 R6Disp:  Grimme-D3(BJ) Dispersion energy=       -0.0005614259 Hartrees.
 Nuclear repulsion after empirical dispersion term =        1.4057201599 Hartrees.
 Leave Link  301 at Wed Oct  7 12:54:52 2020, MaxMem=  2684354560 cpu:               2.2 elap:               0.6
 (Enter /udrive/faculty/rpeverati/g16/g16/l302.exe)
 NPDir=0 NMtPBC=     1 NCelOv=     1 NCel=       1 NClECP=     1 NCelD=      1
         NCelK=      1 NCelE2=     1 NClLst=     1 CellRange=     0.0.
 One-electron integrals computed using PRISM.
 One-electron integral symmetry used in STVInt
 NBasis=     6 RedAO= T EigKep=  4.80D-02  NBF=     4     0     0     0     0     2     0     0
 NBsUse=     6 1.00D-06 EigRej= -1.00D+00 NBFU=     4     0     0     0     0     2     0     0
 Precomputing XC quadrature grid using
 IXCGrd= 4 IRadAn=           5 IRanWt=          -1 IRanGd=           0 AccXCQ= 0.00D+00.
 Generated NRdTot=       0 NPtTot=           0 NUsed=           0 NTot=          32
 NSgBfM=     6     6     6     6     6 MxSgAt=     3 MxSgA2=     3.
 Leave Link  302 at Wed Oct  7 12:54:53 2020, MaxMem=  2684354560 cpu:               2.9 elap:               0.7
 (Enter /udrive/faculty/rpeverati/g16/g16/l303.exe)
 DipDrv:  MaxL=1.
 Leave Link  303 at Wed Oct  7 12:54:54 2020, MaxMem=  2684354560 cpu:               1.5 elap:               0.5
 (Enter /udrive/faculty/rpeverati/g16/g16/l401.exe)
 Initial guess from the checkpoint file:  "MN_82_RKT06_BH76_PBEDBJ_631Gs.chk"
 SCF N**3 symmetry information disabled.
 B after Tr=     0.000000    0.000000    0.000000
         Rot=    1.000000    0.000000    0.000000    0.000000 Ang=   0.00 deg.
 Guess basis will be translated and rotated to current coordinates.
 JPrj=2 DoOrth=T DoCkMO=T.
 Initial guess orbital symmetries:
 Alpha Orbitals:
       Occupied  (SGG) (SGU)
       Virtual   (SGG) (SGG) (SGU) (SGG)
 Beta  Orbitals:
       Occupied  (SGG)
       Virtual   (SGU) (SGG) (SGG) (SGU) (SGG)
 The electronic state of the initial guess is 2-SGU.
 Initial guess <Sx>= 0.0000 <Sy>= 0.0000 <Sz>= 0.5000 <S**2>= 0.7573 S= 0.5036
 Leave Link  401 at Wed Oct  7 12:54:55 2020, MaxMem=  2684354560 cpu:               2.2 elap:               0.5
 (Enter /udrive/faculty/rpeverati/g16/g16/l502.exe)
 Keep J ints in memory in symmetry-blocked form, NReq=10144312.
 FoFCou: FMM=F IPFlag=           0 FMFlag=           0 FMFlg1=           0
         NFxFlg=           0 DoJE=F BraDBF=F KetDBF=F FulRan=T
         wScrn=  0.000000 ICntrl=       600 IOpCl=  0 I1Cent=           0 NGrid=           0
         NMat0=    1 NMatS0=     21 NMatT0=    0 NMatD0=    1 NMtDS0=    0 NMtDT0=    0
 Petite list used in FoFCou.
 UHF open shell SCF:
 Using DIIS extrapolation, IDIIS=  1040.
 NGot=  2684354560 LenX=  2684352344 LenY=  2684351462
 Requested convergence on RMS density matrix=1.00D-08 within 120 cycles.
 Requested convergence on MAX density matrix=1.00D-06.
 Requested convergence on             energy=1.00D-06.
 No special actions if energy rises.

 Cycle   1  Pass 1  IDiag  1:
 E= -1.65358473169980    
 DIIS: error= 3.79D-04 at cycle   1 NSaved=   1.
 NSaved= 1 IEnMin= 1 EnMin= -1.65358473169980     IErMin= 1 ErrMin= 3.79D-04
 ErrMax= 3.79D-04  0.00D+00 EMaxC= 1.00D-01 BMatC= 3.05D-06 BMatP= 3.05D-06
 IDIUse=3 WtCom= 9.96D-01 WtEn= 3.79D-03
 Coeff-Com:  0.100D+01
 Coeff-En:   0.100D+01
 Coeff:      0.100D+01
 Gap=     0.338 Goal=   None    Shift=    0.000
 Gap=     0.291 Goal=   None    Shift=    0.000
 RMSDP=2.15D-04 MaxDP=5.87D-04              OVMax= 9.39D-04

 Cycle   2  Pass 1  IDiag  1:
 E= -1.65358594331758     Delta-E=       -0.000001211618 Rises=F Damp=F
 DIIS: error= 1.14D-04 at cycle   2 NSaved=   2.
 NSaved= 2 IEnMin= 2 EnMin= -1.65358594331758     IErMin= 2 ErrMin= 1.14D-04
 ErrMax= 1.14D-04  0.00D+00 EMaxC= 1.00D-01 BMatC= 2.45D-07 BMatP= 3.05D-06
 IDIUse=3 WtCom= 9.99D-01 WtEn= 1.14D-03
 Coeff-Com:  0.193D+00 0.807D+00
 Coeff-En:   0.000D+00 0.100D+01
 Coeff:      0.193D+00 0.807D+00
 Gap=     0.338 Goal=   None    Shift=    0.000
 Gap=     0.292 Goal=   None    Shift=    0.000
 RMSDP=7.53D-05 MaxDP=1.92D-04 DE=-1.21D-06 OVMax= 2.47D-04

 Cycle   3  Pass 1  IDiag  1:
 E= -1.65358605135482     Delta-E=       -0.000000108037 Rises=F Damp=F
 DIIS: error= 1.96D-05 at cycle   3 NSaved=   3.
 NSaved= 3 IEnMin= 3 EnMin= -1.65358605135482     IErMin= 3 ErrMin= 1.96D-05
 ErrMax= 1.96D-05  0.00D+00 EMaxC= 1.00D-01 BMatC= 4.94D-09 BMatP= 2.45D-07
 IDIUse=1 WtCom= 1.00D+00 WtEn= 0.00D+00
 Coeff-Com: -0.300D-02 0.105D+00 0.898D+00
 Coeff:     -0.300D-02 0.105D+00 0.898D+00
 Gap=     0.338 Goal=   None    Shift=    0.000
 Gap=     0.292 Goal=   None    Shift=    0.000
 RMSDP=8.05D-06 MaxDP=1.92D-05 DE=-1.08D-07 OVMax= 3.41D-05

 Cycle   4  Pass 1  IDiag  1:
 E= -1.65358605349676     Delta-E=       -0.000000002142 Rises=F Damp=F
 DIIS: error= 1.70D-06 at cycle   4 NSaved=   4.
 NSaved= 4 IEnMin= 4 EnMin= -1.65358605349676     IErMin= 4 ErrMin= 1.70D-06
 ErrMax= 1.70D-06  0.00D+00 EMaxC= 1.00D-01 BMatC= 3.83D-11 BMatP= 4.94D-09
 IDIUse=1 WtCom= 1.00D+00 WtEn= 0.00D+00
 Coeff-Com: -0.293D-02-0.133D-01-0.230D-01 0.104D+01
 Coeff:     -0.293D-02-0.133D-01-0.230D-01 0.104D+01
 Gap=     0.338 Goal=   None    Shift=    0.000
 Gap=     0.292 Goal=   None    Shift=    0.000
 RMSDP=7.99D-07 MaxDP=3.90D-06 DE=-2.14D-09 OVMax= 3.90D-06

 Cycle   5  Pass 1  IDiag  1:
 E= -1.65358605351796     Delta-E=       -0.000000000021 Rises=F Damp=F
 DIIS: error= 2.14D-07 at cycle   5 NSaved=   5.
 NSaved= 5 IEnMin= 5 EnMin= -1.65358605351796     IErMin= 5 ErrMin= 2.14D-07
 ErrMax= 2.14D-07  0.00D+00 EMaxC= 1.00D-01 BMatC= 7.81D-13 BMatP= 3.83D-11
 IDIUse=1 WtCom= 1.00D+00 WtEn= 0.00D+00
 Coeff-Com:  0.322D-03-0.122D-02-0.170D-01-0.906D-01 0.111D+01
 Coeff:      0.322D-03-0.122D-02-0.170D-01-0.906D-01 0.111D+01
 Gap=     0.338 Goal=   None    Shift=    0.000
 Gap=     0.292 Goal=   None    Shift=    0.000
 RMSDP=1.87D-07 MaxDP=5.96D-07 DE=-2.12D-11 OVMax= 5.91D-07

 Cycle   6  Pass 1  IDiag  1:
 E= -1.65358605351854     Delta-E=       -0.000000000001 Rises=F Damp=F
 DIIS: error= 1.89D-08 at cycle   6 NSaved=   6.
 NSaved= 6 IEnMin= 6 EnMin= -1.65358605351854     IErMin= 6 ErrMin= 1.89D-08
 ErrMax= 1.89D-08  0.00D+00 EMaxC= 1.00D-01 BMatC= 5.39D-15 BMatP= 7.81D-13
 IDIUse=1 WtCom= 1.00D+00 WtEn= 0.00D+00
 Coeff-Com: -0.215D-04 0.238D-03 0.234D-02 0.265D-02-0.158D+00 0.115D+01
 Coeff:     -0.215D-04 0.238D-03 0.234D-02 0.265D-02-0.158D+00 0.115D+01
 Gap=     0.338 Goal=   None    Shift=    0.000
 Gap=     0.292 Goal=   None    Shift=    0.000
 RMSDP=1.44D-08 MaxDP=4.14D-08 DE=-5.81D-13 OVMax= 5.99D-08

 Cycle   7  Pass 1  IDiag  1:
 E= -1.65358605351854     Delta-E=       -0.000000000000 Rises=F Damp=F
 DIIS: error= 5.96D-10 at cycle   7 NSaved=   7.
 NSaved= 7 IEnMin= 7 EnMin= -1.65358605351854     IErMin= 7 ErrMin= 5.96D-10
 ErrMax= 5.96D-10  0.00D+00 EMaxC= 1.00D-01 BMatC= 6.12D-18 BMatP= 5.39D-15
 IDIUse=1 WtCom= 1.00D+00 WtEn= 0.00D+00
 Coeff-Com:  0.527D-06-0.112D-04-0.120D-03 0.203D-03 0.807D-02-0.689D-01
 Coeff-Com:  0.106D+01
 Coeff:      0.527D-06-0.112D-04-0.120D-03 0.203D-03 0.807D-02-0.689D-01
 Coeff:      0.106D+01
 Gap=     0.338 Goal=   None    Shift=    0.000
 Gap=     0.292 Goal=   None    Shift=    0.000
 RMSDP=6.47D-10 MaxDP=3.36D-09 DE=-3.11D-15 OVMax= 2.05D-09

 SCF Done:  E(UPBE-PBE) =  -1.65358605352     A.U. after    7 cycles
            NFock=  7  Conv=0.65D-09     -V/T= 2.0133
 <Sx>= 0.0000 <Sy>= 0.0000 <Sz>= 0.5000 <S**2>= 0.7573 S= 0.5036
 <L.S>= 0.000000000000E+00
 KE= 1.631832278654D+00 PE=-5.963941169144D+00 EE= 1.272802677051D+00
 Annihilation of the first spin contaminant:
 S**2 before annihilation     0.7573,   after     0.7500
 Leave Link  502 at Wed Oct  7 12:54:56 2020, MaxMem=  2684354560 cpu:               5.4 elap:               0.7
 (Enter /udrive/faculty/rpeverati/g16/g16/l508.exe)
 QCSCF skips out because SCF is already converged.
 Leave Link  508 at Wed Oct  7 12:54:56 2020, MaxMem=  2684354560 cpu:               0.3 elap:               0.4
 (Enter /udrive/faculty/rpeverati/g16/g16/l701.exe)
 ... and contract with generalized density number  0.
 Compute integral first derivatives.
 R6Disp: Adding Grimme-D3(BJ) dispersion energy 1st derivatives to the gradient.
 Leave Link  701 at Wed Oct  7 12:54:57 2020, MaxMem=  2684354560 cpu:               2.4 elap:               0.6
 (Enter /udrive/faculty/rpeverati/g16/g16/l702.exe)
 L702 exits ... SP integral derivatives will be done elsewhere.
 Leave Link  702 at Wed Oct  7 12:54:58 2020, MaxMem=  2684354560 cpu:               1.3 elap:               0.4
 (Enter /udrive/faculty/rpeverati/g16/g16/l703.exe)
 Integral derivatives from FoFJK, PRISM(SPDF).
 Compute integral first derivatives, UseDBF=F ICtDFT=           0.
 Calling FoFJK, ICntrl=      2527 FMM=F ISym2X=1 I1Cent= 0 IOpClX= 0 NMat=1 NMatS=1 NMatT=0.
 FoFJK:  IHMeth= 1 ICntrl=    2527 DoSepK=F KAlg= 0 I1Cent=           0 FoldK=F
 IRaf=         0 NMat=       1 IRICut=       1 DoRegI=T DoRafI=F ISym2E= 1 IDoP0=0 IntGTp=1.
 FoFCou: FMM=F IPFlag=           0 FMFlag=      100000 FMFlg1=         800
         NFxFlg=           0 DoJE=F BraDBF=F KetDBF=F FulRan=T
         wScrn=  0.000000 ICntrl=      2527 IOpCl=  0 I1Cent=           0 NGrid=           0
         NMat0=    1 NMatS0=      1 NMatT0=    0 NMatD0=    1 NMtDS0=    0 NMtDT0=    0
 Petite list used in FoFCou.
 Leave Link  703 at Wed Oct  7 12:54:59 2020, MaxMem=  2684354560 cpu:               2.1 elap:               0.6
 (Enter /udrive/faculty/rpeverati/g16/g16/l716.exe)
 Dipole        = 8.88959780D-18 0.00000000D+00-2.22044605D-16
 ***** Axes restored to original set *****
 -------------------------------------------------------------------
 Center     Atomic                   Forces (Hartrees/Bohr)
 Number     Number              X              Y              Z
 -------------------------------------------------------------------
      1        1           0.000000000    0.000000000   -0.000000000
      2        1          -0.000000000   -0.000000000    0.000026343
      3        1          -0.000000000   -0.000000000   -0.000026343
 -------------------------------------------------------------------
 Cartesian Forces:  Max     0.000026343 RMS     0.000012418
 Leave Link  716 at Wed Oct  7 12:55:00 2020, MaxMem=  2684354560 cpu:               1.0 elap:               0.6
 (Enter /udrive/faculty/rpeverati/g16/g16/l103.exe)

 GradGradGradGradGradGradGradGradGradGradGradGradGradGradGradGradGradGrad
 Berny optimization.
 Optmz: redundant internal coordinate code flag= 1
 Red2BG:  D1=  1.00D+00 OD1=  3.33D-16 B2RMS=  0.00D+00 IAprox=1
 Red2BG is reusing G-inverse.
 Internal  Forces:  Max     0.000026343 RMS     0.000018628
 Search for a saddle point.
 Step number   3 out of a maximum of   50
 All quantities printed in internal units (Hartrees-Bohrs-Radians)
 Swapping is turned off.
 Update second derivatives using D2CorX and points    1    2    3
 The second derivative matrix:
                          R1        R2        A1        A2
           R1           0.18949
           R2          -0.02711   0.18949
           A1           0.00000   0.00000   0.00230
           A2          -0.00000  -0.00000   0.00000   0.00230
 ITU=  0  0  0
 Eigenvectors of the second derivative matrix:
                           1         2         3         4
     Eigenvalues --     0.00230   0.00230   0.16238   0.21660
   1         R1        -0.00000  -0.00000  -0.70711  -0.70711
   2         R2         0.00000   0.00000  -0.70711   0.70711
   3         A1        -0.98776   0.15597  -0.00000   0.00000
   4         A2         0.15597   0.98776   0.00000  -0.00000
 Eigenvalue     1 is   2.30D-03 should be less than     0.000000 Eigenvector:
                          A1        A2        R2        R1
   1                   -0.98776   0.15597   0.00000  -0.00000
 RLam0= 2.30D-03.
 Iter=   1 RLamda= 0.00000000D+00 Sum=-8.54721548D-09.
 RFO step:  Lambda0=2.300010000D-03 Lambda= 0.00000000D+00.
 Linear search not attempted -- option 19 set.
 Iteration  1 RMS(Cart)=  0.00014174 RMS(Int)=  0.00000001
 Iteration  2 RMS(Cart)=  0.00000001 RMS(Int)=  0.00000000
 ITry= 1 IFail=0 DXMaxC= 1.62D-04 DCOld= 1.00D+10 DXMaxT= 1.00D-01 DXLimC= 3.00D+00 Rises=F
 ClnCor:  largest displacement from symmetrization is 1.36D-04 for atom     1.
 Variable       Old X    -DE/DX   Delta X   Delta X   Delta X     New X
                                 (Linear)    (Quad)   (Total)
    R1        1.77774   0.00003   0.00000   0.00016   0.00016   1.77790
    R2        1.77774   0.00003   0.00000   0.00016   0.00016   1.77790
    A1        3.14159   0.00000   0.00000   0.00023   0.00000   3.14159
    A2        3.14159  -0.00000   0.00000  -0.00004   0.00000   3.14159
         Item               Value     Threshold  Converged?
 Maximum Force            0.000026     0.000450     YES
 RMS     Force            0.000019     0.000300     YES
 Maximum Displacement     0.000162     0.001800     YES
 RMS     Displacement     0.000115     0.001200     YES
 Predicted change in Energy=-4.273608D-09
 Optimization completed.
    -- Stationary point found.
                           ----------------------------
                           !   Optimized Parameters   !
                           ! (Angstroms and Degrees)  !
 --------------------------                            --------------------------
 ! Name  Definition              Value          Derivative Info.                !
 --------------------------------------------------------------------------------
 ! R1    R(1,2)                  0.9407         -DE/DX =    0.0                 !
 ! R2    R(1,3)                  0.9407         -DE/DX =    0.0                 !
 ! A1    L(2,1,3,-1,-1)        180.0            -DE/DX =    0.0                 !
 ! A2    L(2,1,3,-2,-2)        180.0            -DE/DX =    0.0                 !
 --------------------------------------------------------------------------------
 Lowest energy point so far.  Saving SCF results.
 Largest change from initial coordinates is atom    2       0.011 Angstoms.
 GradGradGradGradGradGradGradGradGradGradGradGradGradGradGradGradGradGrad

 Leave Link  103 at Wed Oct  7 12:55:00 2020, MaxMem=  2684354560 cpu:               1.9 elap:               0.6
 (Enter /udrive/faculty/rpeverati/g16/g16/l202.exe)
                          Input orientation:                          
 ---------------------------------------------------------------------
 Center     Atomic      Atomic             Coordinates (Angstroms)
 Number     Number       Type             X           Y           Z
 ---------------------------------------------------------------------
      1          1           0        0.000000    0.000000    0.000000
      2          1           0        0.000000    0.000000    0.940738
      3          1           0        0.000000    0.000000   -0.940738
 ---------------------------------------------------------------------
                    Distance matrix (angstroms):
                    1          2          3
     1  H    0.000000
     2  H    0.940738   0.000000
     3  H    0.940738   1.881477   0.000000
 Stoichiometry    H3(2)
 Framework group  D*H[O(H),C*(H.H)]
 Deg. of freedom     1
 Full point group                 D*H     NOp   8
 RotChk:  IX=0 Diff= 0.00D+00
 Largest Abelian subgroup         D2H     NOp   8
 Largest concise Abelian subgroup C2      NOp   2
                         Standard orientation:                         
 ---------------------------------------------------------------------
 Center     Atomic      Atomic             Coordinates (Angstroms)
 Number     Number       Type             X           Y           Z
 ---------------------------------------------------------------------
      1          1           0        0.000000    0.000000    0.000000
      2          1           0        0.000000    0.000000    0.940738
      3          1           0        0.000000    0.000000   -0.940738
 ---------------------------------------------------------------------
 Rotational constants (GHZ):           0.0000000         283.3116006         283.3116006
 Leave Link  202 at Wed Oct  7 12:55:01 2020, MaxMem=  2684354560 cpu:               1.5 elap:               0.5
 (Enter /udrive/faculty/rpeverati/g16/g16/l601.exe)
 Copying SCF densities to generalized density rwf, IOpCl= 1 IROHF=0.

 **********************************************************************

            Population analysis using the SCF density.

 **********************************************************************

 Orbital symmetries:
 Alpha Orbitals:
       Occupied  (SGG) (SGU)
       Virtual   (SGG) (SGG) (SGU) (SGG)
 Beta  Orbitals:
       Occupied  (SGG)
       Virtual   (SGU) (SGG) (SGG) (SGU) (SGG)
 The electronic state is 2-SGU.
 Alpha  occ. eigenvalues --   -0.45098  -0.21512
 Alpha virt. eigenvalues --    0.12317   0.63493   0.71208   0.96201
  Beta  occ. eigenvalues --   -0.41051
  Beta virt. eigenvalues --   -0.11898   0.17344   0.68341   0.80183   1.00242
          Condensed to atoms (all electrons):
               1          2          3
     1  H    0.705977   0.201769   0.201769
     2  H    0.201769   0.873491  -0.130017
     3  H    0.201769  -0.130017   0.873491
          Atomic-Atomic Spin Densities.
               1          2          3
     1  H   -0.180187   0.006687   0.006687
     2  H    0.006687   0.724785  -0.148065
     3  H    0.006687  -0.148065   0.724785
 Mulliken charges and spin densities:
               1          2
     1  H   -0.109514  -0.166813
     2  H    0.054757   0.583407
     3  H    0.054757   0.583407
 Sum of Mulliken charges =  -0.00000   1.00000
 Mulliken charges and spin densities with hydrogens summed into heavy atoms:
               1          2
 Electronic spatial extent (au):  <R**2>=             13.6859
 Charge=             -0.0000 electrons
 Dipole moment (field-independent basis, Debye):
    X=              0.0000    Y=              0.0000    Z=             -0.0000  Tot=              0.0000
 Quadrupole moment (field-independent basis, Debye-Ang):
   XX=             -3.3100   YY=             -3.3100   ZZ=             -3.2865
   XY=              0.0000   XZ=             -0.0000   YZ=              0.0000
 Traceless Quadrupole moment (field-independent basis, Debye-Ang):
   XX=             -0.0078   YY=             -0.0078   ZZ=              0.0157
   XY=              0.0000   XZ=             -0.0000   YZ=              0.0000
 Octapole moment (field-independent basis, Debye-Ang**2):
  XXX=             -0.0000  YYY=              0.0000  ZZZ=             -0.0000  XYY=             -0.0000
  XXY=              0.0000  XXZ=             -0.0000  XZZ=             -0.0000  YZZ=              0.0000
  YYZ=             -0.0000  XYZ=              0.0000
 Hexadecapole moment (field-independent basis, Debye-Ang**3):
 XXXX=             -3.2245 YYYY=             -3.2245 ZZZZ=            -15.3831 XXXY=              0.0000
 XXXZ=              0.0000 YYYX=              0.0000 YYYZ=              0.0000 ZZZX=              0.0000
 ZZZY=              0.0000 XXYY=             -1.0748 XXZZ=             -3.1799 YYZZ=             -3.1799
 XXYZ=              0.0000 YYXZ=              0.0000 ZZXY=              0.0000
 N-N= 1.405720159920D+00 E-N=-5.963941168740D+00  KE= 1.631832278654D+00
                          Isotropic Fermi Contact Couplings
        Atom                 a.u.       MegaHertz       Gauss      10(-4) cm-1
     1  H(1)              -0.04038    -180.48863     -64.40283     -60.20453
     2  H(1)               0.19555     874.06873     311.88946     291.55794
     3  H(1)               0.19555     874.06873     311.88946     291.55794
 --------------------------------------------------------
       Center         ----  Spin Dipole Couplings  ----
                      3XX-RR        3YY-RR        3ZZ-RR
 --------------------------------------------------------
     1   Atom       -0.109578     -0.109578      0.219155
     2   Atom        0.007183      0.007183     -0.014367
     3   Atom        0.007183      0.007183     -0.014367
 --------------------------------------------------------
                        XY            XZ            YZ
 --------------------------------------------------------
     1   Atom        0.000000     -0.000000      0.000000
     2   Atom        0.000000      0.000000      0.000000
     3   Atom        0.000000      0.000000      0.000000
 --------------------------------------------------------


 ---------------------------------------------------------------------------------
              Anisotropic Spin Dipole Couplings in Principal Axis System
 ---------------------------------------------------------------------------------

       Atom             a.u.   MegaHertz   Gauss  10(-4) cm-1        Axes

              Baa    -0.1096   -58.465   -20.862   -19.502  0.0000  1.0000  0.0000
     1 H(1)   Bbb    -0.1096   -58.465   -20.862   -19.502  1.0000  0.0000  0.0000
              Bcc     0.2192   116.931    41.724    39.004 -0.0000  0.0000  1.0000
 
              Baa    -0.0144    -7.666    -2.735    -2.557 -0.0000  0.0000  1.0000
     2 H(1)   Bbb     0.0072     3.833     1.368     1.278  0.0000  1.0000  0.0000
              Bcc     0.0072     3.833     1.368     1.278  1.0000  0.0000  0.0000
 
              Baa    -0.0144    -7.666    -2.735    -2.557 -0.0000  0.0000  1.0000
     3 H(1)   Bbb     0.0072     3.833     1.368     1.278  0.7071  0.7071  0.0000
              Bcc     0.0072     3.833     1.368     1.278  0.7071 -0.7071  0.0000
 

 ---------------------------------------------------------------------------------

 No NMR shielding tensors so no spin-rotation constants.
 Leave Link  601 at Wed Oct  7 12:55:02 2020, MaxMem=  2684354560 cpu:               3.8 elap:               0.9
 (Enter /udrive/faculty/rpeverati/g16/g16/l9999.exe)

 Test job not archived.
 1\1\GINC-NODE27\FTS\UPBEPBE\6-31G(d)\H3(2)\RPEVERATI\07-Oct-2020\0\\#P
  Opt(TS,MaxCyc=50,NoEigenTest,MaxStep=10,AddRedundant) PBEPBE/6-31G* 5
 D 7F Integral=UltraFineGrid SCF=(NoSymm,XQC,MaxCyc=120) EmpiricalDispe
 rsion=GD3BJ IOp(1/33=1)\\TS search on BH76.\\0,2\H,0.,0.,0.\H,0.,0.,0.
 9407383561\H,0.,0.,-0.9407383561\\Version=ES64L-G16RevA.03\State=2-SGU
 \HF=-1.6535861\S2=0.757287\S2-1=0.\S2A=0.75\RMSD=6.470e-10\RMSF=1.242e
 -05\Dipole=0.,0.,0.\Quadrupole=-0.0058188,-0.0058188,0.0116377,0.,0.,0
 .\PG=D*H [O(H1),C*(H1.H1)]\\@


 A ROPE OVER THE TOP OF A FENCE HAS THE SAME LENGTH ON EACH SIDE.
 WEIGHS 1/3 POUND PER FOOT.  ON ONE END HANGS A MONKEY HOLDING A
 BANANA, AND ON THE OTHER END A WEIGHT EQUAL TO THE WEIGHT
 OF THE MONKEY.  THE BANANA WEIGHS TWO OUNCES PER INCH.
 THE ROPE IS AS LONG AS THE AGE OF THE MONKEY, 
 AND THE WEIGHT OF THE MONKEY (IN OUNCES) IS AS MUCH
 AS THE AGE OF THE MONKEY'S MOTHER.  THE COMBINED AGES OF MONKEY
 AND MOTHER ARE THIRTY YEARS.  HALF THE WEIGHT OF THE MONKEY,
  PLUS THE WEIGHT OF THE BANANA, IS ONE FOURTH AS MUCH AS THE WEIGHT
 OF THE WEIGHT AND THE ROPE.
 THE MONKEY'S MOTHER IS HALF AS OLD AS THE MONKEY WILL BE
 WHEN IT IS 3 TIMES AS OLD AS ITS MOTHER WAS WHEN
 SHE WAS HALF AS OLD AS THE MONKEY WILL BE WHEN IT IS
 AS OLD AS ITS MOTHER WILL BE WHEN SHE IS 4 TIMES AS
 OLD AS THE MONKEY WAS WHEN IT WAS TWICE AS OLD AS 
 ITS MOTHER WAS WHEN SHE WAS ONE THIRD AS OLD AS THE
 MONKEY WAS WHEN IT WAS AS OLD AS ITS MOTHER WAS WHEN 
 SHE WAS 3 TIMES AS OLD AS THE MONKEY WAS WHEN IT WAS AS OLD AS ITS
 MOTHER WAS WHEN SHE WAS 3 TIMES AS OLD AS THE MONKEY 
 WAS WHEN IT WAS ONE FOURTH WAS OLD AS IT IS NOW.

 HOW LONG IS THE BANANA?
 Job cpu time:       0 days  0 hours  1 minutes 39.6 seconds.
 Elapsed time:       0 days  0 hours  0 minutes 23.9 seconds.
 File lengths (MBytes):  RWF=      5 Int=      0 D2E=      0 Chk=      1 Scr=      1
 Normal termination of Gaussian 16 at Wed Oct  7 12:55:04 2020.
 Initial command:
 /udrive/faculty/rpeverati/g16/g16/l1.exe "/udrive/scratch-directories/gaussian09/rpeverati/Gau-23814.inp" -scrdir="/udrive/scratch-directories/gaussian09/rpeverati/"
 Entering Link 1 = /udrive/faculty/rpeverati/g16/g16/l1.exe PID=     24317.
  
 Copyright (c) 1988,1990,1992,1993,1995,1998,2003,2009,2016,
            Gaussian, Inc.  All Rights Reserved.
  
 This is part of the Gaussian(R) 16 program.  It is based on
 the Gaussian(R) 09 system (copyright 2009, Gaussian, Inc.),
 the Gaussian(R) 03 system (copyright 2003, Gaussian, Inc.),
 the Gaussian(R) 98 system (copyright 1998, Gaussian, Inc.),
 the Gaussian(R) 94 system (copyright 1995, Gaussian, Inc.),
 the Gaussian 92(TM) system (copyright 1992, Gaussian, Inc.),
 the Gaussian 90(TM) system (copyright 1990, Gaussian, Inc.),
 the Gaussian 88(TM) system (copyright 1988, Gaussian, Inc.),
 the Gaussian 86(TM) system (copyright 1986, Carnegie Mellon
 University), and the Gaussian 82(TM) system (copyright 1983,
 Carnegie Mellon University). Gaussian is a federally registered
 trademark of Gaussian, Inc.
  
 This software contains proprietary and confidential information,
 including trade secrets, belonging to Gaussian, Inc.
  
 This software is provided under written license and may be
 used, copied, transmitted, or stored only in accord with that
 written license.
  
 The following legend is applicable only to US Government
 contracts under FAR:
  
                    RESTRICTED RIGHTS LEGEND
  
 Use, reproduction and disclosure by the US Government is
 subject to restrictions as set forth in subparagraphs (a)
 and (c) of the Commercial Computer Software - Restricted
 Rights clause in FAR 52.227-19.
  
 Gaussian, Inc.
 340 Quinnipiac St., Bldg. 40, Wallingford CT 06492
  
  
 ---------------------------------------------------------------
 Warning -- This program may not be used in any manner that
 competes with the business of Gaussian, Inc. or will provide
 assistance to any competitor of Gaussian, Inc.  The licensee
[...]
     2  H(1)               0.19555     874.06873     311.88946     291.55794
     3  H(1)               0.19555     874.06873     311.88946     291.55794
 --------------------------------------------------------
       Center         ----  Spin Dipole Couplings  ----
                      3XX-RR        3YY-RR        3ZZ-RR
 --------------------------------------------------------
     1   Atom       -0.109578     -0.109578      0.219155
     2   Atom        0.007183      0.007183     -0.014367
     3   Atom        0.007183      0.007183     -0.014367
 --------------------------------------------------------
                        XY            XZ            YZ
 --------------------------------------------------------
     1   Atom        0.000000     -0.000000      0.000000
     2   Atom        0.000000      0.000000      0.000000
     3   Atom        0.000000      0.000000      0.000000
 --------------------------------------------------------


 ---------------------------------------------------------------------------------
              Anisotropic Spin Dipole Couplings in Principal Axis System
 ---------------------------------------------------------------------------------

       Atom             a.u.   MegaHertz   Gauss  10(-4) cm-1        Axes

              Baa    -0.1096   -58.465   -20.862   -19.502  0.0000  1.0000  0.0000
     1 H(1)   Bbb    -0.1096   -58.465   -20.862   -19.502  1.0000  0.0000  0.0000
              Bcc     0.2192   116.931    41.724    39.004 -0.0000  0.0000  1.0000
 
              Baa    -0.0144    -7.666    -2.735    -2.557 -0.0000  0.0000  1.0000
     2 H(1)   Bbb     0.0072     3.833     1.368     1.278  0.0000  1.0000  0.0000
              Bcc     0.0072     3.833     1.368     1.278  1.0000  0.0000  0.0000
 
              Baa    -0.0144    -7.666    -2.735    -2.557 -0.0000  0.0000  1.0000
     3 H(1)   Bbb     0.0072     3.833     1.368     1.278  0.0000  1.0000  0.0000
              Bcc     0.0072     3.833     1.368     1.278  1.0000  0.0000  0.0000
 

 ---------------------------------------------------------------------------------

 No NMR shielding tensors so no spin-rotation constants.
 Leave Link  601 at Wed Oct  7 12:55:18 2020, MaxMem=  2684354560 cpu:               3.7 elap:               0.6
 (Enter /udrive/faculty/rpeverati/g16/g16/l701.exe)
 ... and contract with generalized density number  0.
 Compute integral second derivatives.
 R6Disp: Adding Grimme-D3(BJ) dispersion energy 2nd derivatives to the Hessian.
 Leave Link  701 at Wed Oct  7 12:55:19 2020, MaxMem=  2684354560 cpu:               3.2 elap:               0.7
 (Enter /udrive/faculty/rpeverati/g16/g16/l702.exe)
 L702 exits ... SP integral derivatives will be done elsewhere.
 Leave Link  702 at Wed Oct  7 12:55:20 2020, MaxMem=  2684354560 cpu:               1.5 elap:               0.6
 (Enter /udrive/faculty/rpeverati/g16/g16/l703.exe)
 Integral derivatives from FoFJK, PRISM(SPDF).
 Compute integral second derivatives, UseDBF=F ICtDFT=           0.
 Calling FoFJK, ICntrl=    100527 FMM=F ISym2X=1 I1Cent= 0 IOpClX= 0 NMat=1 NMatS=1 NMatT=0.
 FoFJK:  IHMeth= 1 ICntrl=  100527 DoSepK=F KAlg= 0 I1Cent=           0 FoldK=F
 IRaf=         0 NMat=       1 IRICut=       1 DoRegI=T DoRafI=F ISym2E= 1 IDoP0=0 IntGTp=1.
 FoFCou: FMM=F IPFlag=           0 FMFlag=      100000 FMFlg1=         800
         NFxFlg=           0 DoJE=F BraDBF=F KetDBF=F FulRan=T
         wScrn=  0.000000 ICntrl=    100527 IOpCl=  0 I1Cent=           0 NGrid=           0
         NMat0=    1 NMatS0=      1 NMatT0=    0 NMatD0=    1 NMtDS0=    0 NMtDT0=    0
 Petite list used in FoFCou.
 Leave Link  703 at Wed Oct  7 12:55:21 2020, MaxMem=  2684354560 cpu:               3.3 elap:               0.8
 (Enter /udrive/faculty/rpeverati/g16/g16/l716.exe)
 Dipole        = 8.88959780D-18 0.00000000D+00 0.00000000D+00
 Polarizability= 7.86397244D-32 0.00000000D+00 0.00000000D+00
                -1.14780707D-15 0.00000000D+00 1.87451120D+01
 Full mass-weighted force constant matrix:
 Low frequencies --- -456.4231  -19.7258  -19.7258   -0.0001   -0.0001    0.0000
 Low frequencies --- 1072.8749 1072.8749 2055.9483
 ******    1 imaginary frequencies (negative Signs) ****** 
 Diagonal vibrational polarizability:
        0.2262348       0.2262348       8.9927085
 Harmonic frequencies (cm**-1), IR intensities (KM/Mole), Raman scattering
 activities (A**4/AMU), depolarization ratios for plane and unpolarized
 incident light, reduced masses (AMU), force constants (mDyne/A),
 and normal coordinates:
                      1                      2                      3
                     SGU                    PIU                    PIU
 Frequencies --   -456.4231              1072.8749              1072.8749
 Red. masses --      1.0078                 1.0078                 1.0078
 Frc consts  --      0.1237                 0.6835                 0.6835
 IR Inten    --     69.6133                 9.6766                 9.6766
  Atom  AN      X      Y      Z        X      Y      Z        X      Y      Z
     1   1    -0.00  -0.00   0.82     0.17   0.80   0.00     0.80  -0.17   0.00
     2   1     0.00   0.00  -0.41    -0.09  -0.40  -0.00    -0.40   0.09  -0.00
     3   1     0.00   0.00  -0.41    -0.09  -0.40  -0.00    -0.40   0.09  -0.00
                      4
                     SGG
 Frequencies --   2055.9483
 Red. masses --      1.0078
 Frc consts  --      2.5099
 IR Inten    --      0.0000
  Atom  AN      X      Y      Z
     1   1     0.00  -0.00   0.00
     2   1    -0.00   0.00   0.71
     3   1    -0.00   0.00  -0.71

 -------------------
 - Thermochemistry -
 -------------------
 Temperature   298.150 Kelvin.  Pressure   1.00000 Atm.
 Atom     1 has atomic number  1 and mass   1.00783
 Atom     2 has atomic number  1 and mass   1.00783
 Atom     3 has atomic number  1 and mass   1.00783
 Molecular mass:     3.02348 amu.
 Principal axes and moments of inertia in atomic units:
                           1         2         3
     Eigenvalues --     0.00000   6.37016   6.37016
           X           -0.00000   1.00000   0.00000
           Y            0.00000   0.00000   1.00000
           Z            1.00000   0.00000   0.00000
 This molecule is a prolate symmetric top.
 Rotational symmetry number  2.
 Rotational temperature (Kelvin)     13.59681
 Rotational constant (GHZ):         283.311601
    1 imaginary frequencies ignored.
 Zero-point vibrational energy      25131.7 (Joules/Mol)
                                    6.00663 (Kcal/Mol)
 Vibrational temperatures:   1543.63  1543.63  2958.05
          (Kelvin)
 
 Zero-point correction=                           0.009572 (Hartree/Particle)
 Thermal correction to Energy=                    0.011989
 Thermal correction to Enthalpy=                  0.012933
 Thermal correction to Gibbs Free Energy=        -0.004910
 Sum of electronic and zero-point Energies=             -1.644014
 Sum of electronic and thermal Energies=                -1.641597
 Sum of electronic and thermal Enthalpies=              -1.640653
 Sum of electronic and thermal Free Energies=           -1.658496
 
                     E (Thermal)             CV                S
                      KCal/Mol        Cal/Mol-Kelvin    Cal/Mol-Kelvin
 Total                    7.523              5.586             37.552
 Electronic               0.000              0.000              1.377
 Translational            0.889              2.981             29.289
 Rotational               0.592              1.987              6.746
 Vibrational              6.042              0.618              0.140
                       Q            Log10(Q)             Ln(Q)
 Total Bot       0.181242D+03          2.258258          5.199831
 Total V=0       0.458298D+07          6.661148         15.337860
 Vib (Bot)       0.399988D-04         -4.397953        -10.126662
 Vib (V=0)       0.101143D+01          0.004937          0.011367
 Electronic      0.200000D+01          0.301030          0.693147
 Translational   0.206640D+06          5.315213         12.238731
 Rotational      0.109640D+02          1.039968          2.394614
 
                                                          TS search on BH76.
                                                             IR Spectrum
 
     2                                                            1                                                                  
     0                                                            0                                                                  
     5                                                            7                                                                  
     6                                                            3                                                                  
 
                                                                  X                                                                  
                                                                  X                                                                  
                                                                  X                                                                  
                                                                  X                                                                  
                                                                  X                                                                  
                                                                  X                                                                  
                                                                  X                                                                  
                                                                  X                                                                  
                                                                  X                                                                  
                                                                  X                                                                  
                                                                  X                                                                  
                                                                  X                                                                  
                                                                  X                                                                  
                                                                  X                                                                  
                                                                  X                                                                  
                                                                  X                                                                  
                                                                  X                                                                  
                                                                  X                                                                  
                                                                  X                                                                  
                                                                  X                                                                  
 
 ***** Axes restored to original set *****
 -------------------------------------------------------------------
 Center     Atomic                   Forces (Hartrees/Bohr)
 Number     Number              X              Y              Z
 -------------------------------------------------------------------
      1        1           0.000000000   -0.000000000   -0.000000000
      2        1          -0.000000000   -0.000000000    0.000026343
      3        1          -0.000000000   -0.000000000   -0.000026343
 -------------------------------------------------------------------
 Cartesian Forces:  Max     0.000026343 RMS     0.000012418
 Force constants in Cartesian coordinates: 
                1             2             3             4             5 
      1  0.292674D-01
      2  0.000000D+00  0.292674D-01
      3  0.000000D+00  0.000000D+00 -0.529688D-02
      4 -0.146337D-01  0.000000D+00  0.000000D+00  0.730942D-02
      5  0.000000D+00 -0.146337D-01  0.000000D+00  0.000000D+00  0.730942D-02
      6  0.000000D+00  0.000000D+00  0.264844D-02  0.000000D+00  0.000000D+00
      7 -0.146337D-01  0.000000D+00  0.000000D+00  0.732426D-02  0.000000D+00
      8  0.000000D+00 -0.146337D-01  0.000000D+00  0.000000D+00  0.732426D-02
      9  0.000000D+00  0.000000D+00  0.264844D-02  0.000000D+00  0.000000D+00
                6             7             8             9 
      6  0.792824D-01
      7  0.000000D+00  0.730942D-02
      8  0.000000D+00  0.000000D+00  0.730942D-02
      9 -0.819309D-01  0.000000D+00  0.000000D+00  0.792824D-01
 FormGI is forming the generalized inverse of G from B-inverse, IUseBI=4.
 Force constants in internal coordinates: 
                1             2             3             4 
      1  0.792824D-01
      2  0.819309D-01  0.792824D-01
      3  0.000000D+00  0.000000D+00  0.231472D-01
      4  0.000000D+00  0.000000D+00  0.000000D+00  0.231472D-01
 Leave Link  716 at Wed Oct  7 12:55:21 2020, MaxMem=  2684354560 cpu:               1.9 elap:               0.6
 (Enter /udrive/faculty/rpeverati/g16/g16/l103.exe)

 GradGradGradGradGradGradGradGradGradGradGradGradGradGradGradGradGradGrad
 Berny optimization.
 Optmz: redundant internal coordinate code flag= 1
 Red2BG:  D1=  1.00D+00 OD1=  3.33D-16 B2RMS=  0.00D+00 IAprox=1
 Red2BG is reusing G-inverse.
 Internal  Forces:  Max     0.000026343 RMS     0.000018628
 Search for a local minimum.
 Step number   1 out of a maximum of    2
 All quantities printed in internal units (Hartrees-Bohrs-Radians)
 Second derivative matrix not updated -- analytic derivatives used.
 The second derivative matrix:
                          R1        R2        A1        A2
           R1           0.07928
           R2           0.08193   0.07928
           A1          -0.00000   0.00000   0.02315
           A2           0.00000  -0.00000  -0.00000   0.02315
 ITU=  0
 Eigenvectors of the second derivative matrix:
                           1         2         3         4
     Eigenvalues --    -0.00265   0.02315   0.02315   0.16121
   1         R1        -0.70711   0.00000   0.00000  -0.70711
   2         R2         0.70711  -0.00000  -0.00000  -0.70711
   3         A1        -0.00000   0.09668  -0.99532   0.00000
   4         A2         0.00000   0.99532   0.09668  -0.00000
 Eigenvalue     1 is  -2.65D-03 should be greater than     0.000000 Eigenvector:
                          R1        R2        A2        A1
   1                   -0.70711   0.70711   0.00000  -0.00000
 Angle between quadratic step and forces=   0.00 degrees.
 Linear search not attempted -- first point.
 Iteration  1 RMS(Cart)=  0.00011555 RMS(Int)=  0.00000000
 Iteration  2 RMS(Cart)=  0.00000000 RMS(Int)=  0.00000000
 ITry= 1 IFail=0 DXMaxC= 1.63D-04 DCOld= 1.00D+10 DXMaxT= 3.00D-01 DXLimC= 3.00D+00 Rises=F
 ClnCor:  largest displacement from symmetrization is 1.53D-14 for atom     1.
 Variable       Old X    -DE/DX   Delta X   Delta X   Delta X     New X
                                 (Linear)    (Quad)   (Total)
    R1        1.77774   0.00003   0.00000   0.00016   0.00016   1.77790
    R2        1.77774   0.00003   0.00000   0.00016   0.00016   1.77790
    A1        3.14159   0.00000   0.00000   0.00000   0.00000   3.14159
    A2        3.14159  -0.00000   0.00000  -0.00000   0.00000   3.14159
         Item               Value     Threshold  Converged?
 Maximum Force            0.000026     0.000450     YES
 RMS     Force            0.000019     0.000300     YES
 Maximum Displacement     0.000163     0.001800     YES
 RMS     Displacement     0.000116     0.001200     YES
 Predicted change in Energy=-4.304658D-09
 Optimization completed.
    -- Stationary point found.
                           ----------------------------
                           !   Optimized Parameters   !
                           ! (Angstroms and Degrees)  !
 --------------------------                            --------------------------
 ! Name  Definition              Value          Derivative Info.                !
 --------------------------------------------------------------------------------
 ! R1    R(1,2)                  0.9407         -DE/DX =    0.0                 !
 ! R2    R(1,3)                  0.9407         -DE/DX =    0.0                 !
 ! A1    L(2,1,3,-1,-1)        180.0            -DE/DX =    0.0                 !
 ! A2    L(2,1,3,-2,-2)        180.0            -DE/DX =    0.0                 !
 --------------------------------------------------------------------------------
 GradGradGradGradGradGradGradGradGradGradGradGradGradGradGradGradGradGrad

 Leave Link  103 at Wed Oct  7 12:55:22 2020, MaxMem=  2684354560 cpu:               1.5 elap:               0.6
 (Enter /udrive/faculty/rpeverati/g16/g16/l9999.exe)
 Dipole is zero, so no output in dipole orientation.

 ----------------------------------------------------------------------

 Electric dipole moment (input orientation):
 (Debye = 10**-18 statcoulomb cm , SI units = C m)
                  (au)            (Debye)         (10**-30 SI)
   Tot        0.000000D+00      0.000000D+00      0.000000D+00
   x          0.000000D+00      0.000000D+00      0.000000D+00
   y          0.000000D+00      0.000000D+00      0.000000D+00
   z          0.000000D+00      0.000000D+00      0.000000D+00

 Dipole polarizability, Alpha (input orientation).
 (esu units = cm**3 , SI units = C**2 m**2 J**-1)
 Alpha(0;0):
               (au)            (10**-24 esu)      (10**-40 SI)
   iso        0.624837D+01      0.925913D+00      0.103022D+01
   aniso      0.187451D+02      0.277774D+01      0.309065D+01
   xx         0.000000D+00      0.000000D+00      0.000000D+00
   yx         0.000000D+00      0.000000D+00      0.000000D+00
   yy         0.000000D+00      0.000000D+00      0.000000D+00
   zx         0.000000D+00      0.000000D+00      0.000000D+00
   zy         0.000000D+00      0.000000D+00      0.000000D+00
   zz         0.187451D+02      0.277774D+01      0.309065D+01

 ----------------------------------------------------------------------

 Test job not archived.
 1\1\GINC-NODE27\Freq\UPBEPBE\6-31G(d)\H3(2)\RPEVERATI\07-Oct-2020\0\\#
 P Freq PBEPBE/6-31G* 5D 7F Integral=UltraFineGrid SCF=(NoSymm,XQC,MaxC
 yc=120) EmpiricalDispersion=GD3BJ IOp(1/33=1) Geom=Check Guess=Read\\T
 S search on BH76.\\0,2\H,0.,0.,0.\H,0.,0.,0.9407383561\H,0.,0.,-0.9407
 383561\\Version=ES64L-G16RevA.03\State=2-SGU\HF=-1.6535861\S2=0.757287
 \S2-1=0.\S2A=0.75\RMSD=0.000e+00\RMSF=1.242e-05\ZeroPoint=0.0095722\Th
 ermal=0.0119886\Dipole=0.,0.,0.\DipoleDeriv=-0.0816645,0.,0.,0.,-0.081
 6645,0.,0.,0.,0.219037,0.0408323,0.,0.,0.,0.0408323,0.,0.,0.,-0.109518
 5,0.0408323,0.,0.,0.,0.0408323,0.,0.,0.,-0.1095185\Polar=0.,0.,0.,0.,0
 .,18.745112\Quadrupole=-0.0058188,-0.0058188,0.0116377,0.,0.,0.\PG=D*H
  [O(H1),C*(H1.H1)]\NImag=1\\0.02926736,0.,0.02926736,0.,0.,-0.00529688
 ,-0.01463368,0.,0.,0.00730942,0.,-0.01463368,0.,0.,0.00730942,0.,0.,0.
 00264844,0.,0.,0.07928245,-0.01463368,0.,0.,0.00732426,0.,0.,0.0073094
 2,0.,-0.01463368,0.,0.,0.00732426,0.,0.,0.00730942,0.,0.,0.00264844,0.
 ,0.,-0.08193089,0.,0.,0.07928245\\0.,0.,0.,0.,0.,-0.00002634,0.,0.,0.0
 0002634\\\@


 TRUST EVERYONE, BUT CUT THE CARDS.
 Job cpu time:       0 days  0 hours  1 minutes  3.3 seconds.
 Elapsed time:       0 days  0 hours  0 minutes 14.0 seconds.
 File lengths (MBytes):  RWF=      5 Int=      0 D2E=      0 Chk=      1 Scr=      1
 Normal termination of Gaussian 16 at Wed Oct  7 12:55:24 2020.
