212
 energy: -248.606894014560 gnorm: 0.000300403951 xtb: 6.2.2 (9d81278992624c895f80dd42a50cac0aa55982e2)
C         0.80563294359042   -0.00326444885185    0.01150390502297
C        -0.80571237817163    0.00328145318133   -0.01144454056167
C         1.43186704930273    0.32523575865505   -1.36025178758499
C        -1.43177382031418   -0.32510575823783    1.36043997497969
C        -1.40158849827695    1.36741672258301   -0.41614976192574
C         1.40180721366772   -1.36737967453764    0.41587995726619
C         1.38817435761414    1.02971137851414    0.99817413295655
C        -1.38831962612010   -1.02958929807841   -0.99820319645917
C         1.00248657873914    1.06761895123917    2.33701183856487
C        -1.00266973470053   -1.06742456992663   -2.33705874371054
C        -1.01866884781435   -1.42198965923726    2.11959468710893
C         1.01862311138346    1.42196126254684   -2.11955092886708
C         1.00681314473505   -2.55404923855449   -0.19614973284482
C        -1.00649558529946    2.55412285891888    0.19573009654215
C         2.43696519003279    1.86100571663192    0.61873616565462
C        -2.43696523681324   -1.86106058350333   -0.61875755050373
C        -2.54171365826939    0.37678659455367    1.81171698773569
C         2.54185427877038   -0.37663357782923   -1.81143381943911
C         2.48483289838679   -1.43549472212155    1.28762976231283
C        -2.48493059086472    1.43541942738656   -1.28751920056916
C         1.55819387050012    1.96085054396325    3.24315975411499
C        -1.55827612257469   -1.96069945583839   -3.24321827349847
C        -1.64502898480458   -1.77469237370068    3.30394694140165
C         1.64497329431205    1.77458815273325   -3.30394224033381
C         1.61147845024158   -3.77170436609390    0.08641925456832
C        -1.61133110905368    3.77172719900101   -0.08669209006394
C         3.05135394258537    2.73629715192142    1.50722838668309
C        -3.05126792959795   -2.73639238049605   -1.50725994308358
C        -3.22087837943951    0.02994744177039    2.97619239479798
C         3.22100726628360   -0.02986197236744   -2.97595078796729
C         3.13652115660198   -2.63033806561419    1.57097140694306
C        -3.13674678711257    2.63021844019500   -1.57074988769405
C         2.58163195304008    2.79663037480684    2.81139005006530
C        -2.58160684493726   -2.79660586028261   -2.81144824137768
C        -2.75721380089475   -1.04422041661330    3.71515833307340
C         2.75726720296956    1.04420466443601   -3.71502685408730
C         2.67916634011033   -3.79593630287579    0.97390957765827
C        -2.67923186396825    3.79587688164093   -0.97392824088824
H         0.25365228085624    0.38296863409675    2.68493962300375
H        -0.25392290780017   -0.38269778003058   -2.68499936002257
H        -0.19047767989231   -2.00793334683391    1.77470305593643
H         0.19024706495144    2.00775277028755   -1.77481197977685
H         0.20694013693029   -2.53328888498412   -0.91050177259639
H        -0.20655415656719    2.53339320625868    0.91000970916013
H         2.81326743050813    1.81383389353372   -0.38744286066741
H        -2.81319164960266   -1.81405022260022    0.38745311570021
H        -2.91981489359787    1.20220101885512    1.23586169356845
H         2.91993352619833   -1.20200745820367   -1.23550138289030
H         2.85642296748332   -0.53338438007387    1.74183349282243
H        -2.85672395216371    0.53322686046878   -1.74141221511269
C         1.09350612139180    1.93205343643771    4.69437188983838
C        -1.09365866824723   -1.93174947154416   -4.69445000516546
C        -1.18080360266378   -2.95809030498944    4.14241495532909
C         1.18064865346668    2.95784524469232   -4.14256100440859
C         1.08102126061633   -5.02688559059738   -0.59339248802569
C        -1.08072891640374    5.02697419128505    0.59288673745825
C         4.27661068654077    3.51319309218616    1.04230226834377
C        -4.27642891952183   -3.51341060844547   -1.04230174256673
C        -4.47065865390811    0.81313301733956    3.35196842831371
C         4.47087895372084   -0.81294864812091   -3.35165621152403
C         4.36036223434400   -2.60153216964003    2.47690648590320
C        -4.36075839412106    2.60136243018697   -2.47645979448240
H         3.03377873281297    3.48061714666620    3.50555275547532
H        -3.03372429306892   -3.48059154533350   -3.50562882110796
H        -3.26783362128893   -1.33474681807901    4.61672176752092
H         3.26791333448120    1.33472067189397   -4.61658122931957
H         3.16723779352214   -4.72811906153167    1.18963024889996
H        -3.16731741832719    4.72804997923452   -1.18966579904917
C         5.03598854989336   -0.40737236531259   -4.71587068411688
C        -5.03567240035376    0.40757597366401    4.71622307225464
C        -4.91357186485340    3.99826455878584   -2.77337864740938
C         4.91315523592620   -3.99845355192602    2.77376126285429
C         4.73061076661038    4.56528512630961    2.05858198783917
C        -4.73040737425706   -4.56545564451108   -2.05863559730493
C         5.54071411355460   -0.54454345437340   -2.28322641268281
C        -5.54056019766689    0.54478155429601    2.28359180887125
C        -5.45720976114305    1.78719951973755   -1.77355337693577
C         5.45689444831365   -1.78725383373147    1.77425616235576
C         5.41262771585747    2.49669258316228    0.84848989308014
C        -5.41249367964998   -2.49699100427967   -0.84833886762384
C         4.15491022747196   -2.31369233707513   -3.39991948759286
C        -4.15460526882790    2.31386118983907    3.40019340206672
C        -4.01091805358815    1.93875329575377   -3.81484875193723
C         4.01027919859902   -1.93906472693329    3.81530219504115
C         4.00943677526197    4.23186332800556   -0.28657537862197
C        -4.00911368345813   -4.23214343215144    0.28651284802842
C         1.03385979443916    2.53134753343617   -5.61077369013778
C        -1.03365653255706   -2.53163202492702    5.61059940983473
C        -1.88143275003239    6.28208519474232    0.23467629069693
C         1.88171962364611   -6.28200044134803   -0.23518972715813
C         1.58698892755448    3.14313827098894    5.49314470605188
C        -1.58703487825924   -3.14285158547939   -5.49326114033904
C        -0.17010372587418    3.51033656870782   -3.67921126225703
C         0.16974065856668   -3.51085862361939    3.67879178307915
C         0.37573891949630    5.24212317145816    0.16017076608413
C        -0.37551765538319   -5.24213630578403   -0.16096081888357
C        -0.43868061370387    1.91182207226030    4.77898386442237
C         0.43852251618924   -1.91130694853397   -4.77916230409871
C         2.22841551212259    4.07459569670142   -4.03453931219396
C        -2.22882171270029   -4.07462222774698    4.03456128762846
C        -1.13051458613503    4.84543474832964    2.11567687363069
C         1.13105937273501   -4.84515701328574   -2.11615031049361
C         1.65136104945271    0.65668659500520    5.34113194414347
C        -1.65172197829301   -0.65641269637568   -5.34109157205135
H         0.62738712161803    3.35257582881689   -6.19783676364900
H        -0.62731729242362   -3.35297708257452    6.19759155288569
H        -1.45664134597460    7.14165344222871    0.74984521251660
H         1.45707131442627   -7.14151876910416   -0.75055901166750
H         1.15970789330009    3.11683922618289    6.49365109295786
H        -1.15981026573701   -3.11644513946179   -6.49378892043083
H         1.98852188928234    2.25183496639774   -6.04710259123689
H        -1.98817135235733   -2.25184584467918    6.04707628447366
H        -2.91990620971708    6.18547504563631    0.54394806799561
H         2.92024684550730   -6.18529176222851   -0.54425101770947
H         2.66934396135262    3.13795100107142    5.59795453010183
H        -2.66939626569671   -3.13778738326944   -5.59801183548521
H         0.35836955350471    1.68301387097594   -5.69316433883540
H        -0.35791398083575   -1.68348724686159    5.69287675175706
H        -1.84362093208704    6.48175874833926   -0.83392028973103
H         1.84371248798890   -6.48181880069703    0.83337276379667
H         1.27922812149685    4.07198984906435    5.01757630223698
H        -1.27913766795923   -4.07169180206759   -5.01775796330709
H         1.93721139900636    4.92548139836296   -4.64727232413427
H        -1.93770499812405   -4.92554779675457    4.64728033436599
H        -0.80117978439020    5.75640370825045    2.61223324762049
H         0.80181104531136   -5.75606719035004   -2.61286861785956
H         1.31359997946315    0.57617506913019    6.37263089620246
H        -1.31405883652224   -0.57580154701501   -6.37261485719149
H         2.31949717069707    4.40736236511093   -3.00259511417289
H        -2.32011255746840   -4.40740693640828    3.00264108373103
H        -0.48089524467333    4.03394579260811    2.43144860709846
H         0.48148403651856   -4.03363606147825   -2.43192938959295
H         1.32011710689389   -0.22412679590402    4.79620879907058
H        -1.32054235867228    0.22441193361438   -4.79614729863936
H         3.20372903216998    3.72921070813972   -4.36905704059858
H        -3.20401759267706   -3.72903068988765    4.36920639347195
H        -2.14577400417906    4.62531177568449    2.43967432058231
H         2.14636748000567   -4.62498614891263   -2.43995733058668
H         2.73955350420176    0.67292817746499    5.33764426101995
H        -2.73991154045622   -0.67278597212275   -5.33751078301541
H        -0.48964879278389    4.30425340209818   -4.35212220093076
H         0.48921563538992   -4.30489558019095    4.35159325728061
H         0.79165312947924    6.11285238101105    0.66435479144788
H        -0.79130233688114   -6.11284115954676   -0.66529468815410
H        -0.74941466521089    1.92333746333314    5.82233506748319
H         0.74918806613292   -1.92268154976365   -5.82253574681612
H        -0.93119222329884    2.73342183761024   -3.68210797534780
H         0.93101171622440   -2.73412389672385    3.68160401093341
H         0.43202094940568    5.41040511339726   -0.91405111897356
H        -0.43198286098040   -5.41051776949856    0.91323589365138
H        -0.85629802904341    2.78779992537513    4.28858397560735
H         0.85629566776397   -2.78727731214861   -4.28888020474097
H        -0.10919931665797    3.92719326514423   -2.67741317049916
H         0.10856071173158   -3.92763442703014    2.67697669838868
H         0.98437520847408    4.37607334934161    0.40681667130356
H        -0.98415093504112   -4.37609298155477   -0.40763734423697
H        -0.86213515104606    1.02586989147112    4.31550437348670
H         0.86190132454875   -1.02534799914062   -4.31562673705018
H         5.90131639702204   -1.02501352216217   -4.94851856430802
H        -5.90091626139067    1.02530170350876    4.94895350381392
H        -5.76325721587679    3.91525891459619   -3.44837866071498
H         5.76271565600521   -3.91549545886727    3.44892326551880
H         5.56879161744937    5.12658612377238    1.65030291883989
H        -5.56852899231919   -5.12683716557739   -1.65034721260801
H         4.29692563090350   -0.55237414938354   -5.50085824540563
H        -4.29651901370033    0.55249262153028    5.50114248948806
H        -4.16146823447427    4.62050610792734   -3.25344588271765
H         4.16098045178784   -4.62077010735065    3.25362086531605
H         3.92767940604782    5.26648059690790    2.27568471298014
H        -3.92744080448601   -5.26658228405530   -2.27583161477053
H         5.35997709761866    0.63094518505198   -4.71664255065971
H        -5.35976077615818   -0.63071022306374    4.71700056232290
H        -5.25699728555464    4.48863996410142   -1.86539661881554
H         5.25675867525459   -4.48871254233590    1.86578374700971
H         5.06185372026109    4.10386125664173    2.98592441403247
H        -5.06173172872658   -4.10398266364376   -2.98592473346809
H         6.45134220240550   -1.09427016938302   -2.51286213143599
H        -6.45114997211703    1.09454530533991    2.51328806427527
H        -6.35105111741779    1.74368974365833   -2.39264331970426
H         6.35064214224351   -1.74379198552512    2.39348328400093
H         6.32219392227252    3.00103813019640    0.52854938908092
H        -6.32200948068605   -3.00142257711688   -0.52839384849162
H         5.78026944344347    0.51681412488328   -2.24782599412601
H        -5.78016129080092   -0.51656533442113    2.24819280837257
H        -5.72018947537672    2.25056472978285   -0.82430176141316
H         5.72002499934567   -2.25049436967300    0.82498540375304
H         5.61828860108572    1.97667259025875    1.78252288218376
H        -5.61823544827189   -1.97690089134466   -1.78231483486344
H         5.19342326274511   -0.84955158902784   -1.29939028091739
H        -5.19331189295607    0.84978147745626    1.29973850752445
H        -5.12552610101999    0.77037524923155   -1.57863106751667
H         5.12520934639857   -0.77041527935640    1.57940629647366
H         5.14538615218567    1.75759132960281    0.09697968299579
H        -5.14526044991891   -1.75793833453459   -0.09677579718340
H         5.04429395847846   -2.87288620542415   -3.68456152617326
H        -5.04396511169502    2.87310175276570    3.68481348253102
H        -4.88779342589164    1.91226932494591   -4.45893601149945
H         4.88705823840457   -1.91259646036944    4.45952045538454
H         4.90714220570764    4.75608504003554   -0.60899580839907
H        -4.90675127815519   -4.75647424299071    0.60894303632729
H         3.81891783871337   -2.68163261762714   -2.43434482406380
H        -3.81858451030212    2.68177156515328    2.43461623150193
H        -3.66368034262115    0.91961805005205   -3.67342537576012
H         3.66300746751782   -0.91993446596221    3.67392799295800
H         3.72935597507102    3.53562171369667   -1.07203674055136
H        -3.72906197753416   -3.53592395388622    1.07200419148408
H         3.37500054229727   -2.50842679850930   -4.13260945040148
H        -3.37469735193475    2.50857651261948    4.13288852624273
H        -3.23106516632024    2.50183616628185   -4.32327807113557
H         3.23038449892928   -2.50223866859713    4.32356678149514
H         3.21137338659232    4.96094493849673   -0.17011837398707
H        -3.21098452492494   -4.96113836491415    0.16996567563536
