66
 energy: -93.932223896110 gnorm: 0.000551342137 xtb: 6.2.2 (9d81278992624c895f80dd42a50cac0aa55982e2)
Cl       14.11561400105896    3.43715053857894    8.15818273914648
Cl       20.04982593411752    5.52735442877009    8.70809526208395
C        18.16076376896444    3.55305011475556    8.47897667048425
C        18.76128768085023    2.17626128073517    8.22423811038261
C        17.25282623372061    1.61889519290225    8.43780798931786
C        16.82877638664887    3.08068697581047    8.38753229504930
C        15.76850867613470    3.93609637351872    8.36972759652753
C        16.01867208944362    5.33339303544696    8.51417833298843
C        14.97167344598448    6.27549403029776    8.52715793960327
C        15.21271519838800    7.61146813623990    8.69532896080910
C        16.52263064092621    8.07035060154128    8.86014720772619
C        17.56439339342320    7.18398564219131    8.84614880654354
C        17.35398926190259    5.80241335473831    8.67046778620645
C        18.43915984140996    4.87824642220271    8.61894406114014
C        19.82392527220214    1.69680352343503    9.18604807794123
C        20.33529233409233    2.54574035440613   10.16378892996248
C        21.34366219216972    2.13924259541786   11.02013018949336
C        21.87070616152878    0.86456171821859   10.92614689543705
C        21.36659126522080    0.00098371861040    9.97077748059357
C        20.35738088332857    0.41176617346296    9.11756921311027
C        19.35011877821104    2.20630958086273    6.74481917725998
C        18.57120760144094    3.17775929138168    5.84296720003909
C        20.80057592793059    2.71177431189235    6.83001403315113
C        19.39894069737710    0.88197729292269    5.97050922955543
C        16.71709194343121    0.69182167003710    7.37453304450256
C        15.76849042601834    1.12657286458770    6.45431080257073
C        15.24132489985583    0.27056902269518    5.50275981070912
C        15.65119560203109   -1.04842576000232    5.44456295546583
C        16.61663372851911   -1.49025296258508    6.33209319791477
C        17.14705902279173   -0.63032167364557    7.27612956258389
C        16.84768855776967    1.08681975272464    9.87840268344391
C        17.20997631420435    2.07488812119899   10.99704149296670
C        15.31967657816600    0.91902658358536    9.91080591206873
C        17.42954391933026   -0.27424193555749   10.28194679879787
H        13.95825513875601    5.92652969064939    8.40610381555042
H        14.39210441189185    8.31291049347805    8.70352650279731
H        16.71018764079553    9.12464282401956    8.99717364107123
H        18.57349984908609    7.54405134787321    8.97197201023178
H        19.94308942078124    3.54237660932998   10.27123401024605
H        21.71714775144257    2.82717852775410   11.76460359714748
H        22.66056851127895    0.54596484502809   11.58974043766628
H        21.75821536115258   -1.00265210095810    9.88591269154596
H        19.98913859171779   -0.29346189009434    8.39112941415252
H        18.70657208070904    4.21295317326614    6.14146197793500
H        18.93641387824368    3.07750418699167    4.82266671688518
H        17.50951047812418    2.95162579562627    5.84021405258142
H        21.46235043468514    1.94380304695629    7.22276579161824
H        21.14733045062127    2.97989667766967    5.83403379307278
H        20.88512177042361    3.58708932473471    7.46244328465037
H        18.42651651538699    0.60831013173479    5.57823371057946
H        20.06755219634431    1.01880426841698    5.12154780115894
H        19.78974641564924    0.05722015518166    6.55166181460622
H        15.42816695568657    2.14752774788001    6.46783100872493
H        14.50435968324199    0.64142404112790    4.80523518810849
H        15.23425509139925   -1.72038668602950    4.70925067044325
H        16.96707289620494   -2.51135081883782    6.28603529849617
H        17.92852960400523   -0.99434001195524    7.91876711570735
H        18.28090290971238    2.10782931745312   11.16574587468230
H        16.85472144575910    3.08092938436577   10.79175119198334
H        16.73777446778755    1.74081190421951   11.91937252176148
H        14.81896809833480    1.87936755413397    9.94415719242129
H        14.95774133166942    0.36234667237532    9.04973368120914
H        15.03927951619347    0.37151380600572   10.80879523504715
H        17.23198965072732   -0.42713892551262   11.34177585829375
H        16.94620534483666   -1.08476048912556    9.74550164966026
H        18.50240395760891   -0.32555842798926   10.14245019716282
