62
 energy: -97.461939257035 gnorm: 0.000477875874 xtb: 6.2.2 (9d81278992624c895f80dd42a50cac0aa55982e2)
Br        5.96867151403328    2.87578733419058    5.74458574867305
Br        0.35141066065550   -0.62855297815241    6.55129479557855
C         3.97009794342059    0.78261082212296    3.56395267561248
C         2.49551483504374    0.10622909326725    3.69896190030987
C         2.56160433630672    0.52135438431636    5.15461443655387
C         1.93347878679628    0.42650267812786    6.35430119434561
C         2.50466092169722    1.11362611687045    7.46655287216164
C         1.90495310812223    1.09334498449712    8.73889228453964
C         2.43780739042246    1.78334664299002    9.79380418984749
C         3.60631342135110    2.53128160616809    9.62303400738574
C         4.22205413719953    2.57032764022670    8.40156325721446
C         3.70690557678378    1.87178733208298    7.29469793347020
C         4.36155780015197    1.88130027975528    6.02782746326238
C         3.80051726053657    1.17212044159171    5.01649058223031
C         5.03367942738575   -0.25006862959151    3.29961097248144
C         4.97423470517547   -1.01173467489924    2.13508153590188
C         5.91540185654593   -1.98999987926583    1.88088212361423
C         6.93623957667775   -2.22548043300650    2.78652191369676
C         7.00678234856711   -1.47229989455105    3.94367537045295
C         6.06110003235338   -0.49405532690078    4.19966397282844
C         4.08083271658984    2.00384120689439    2.68224502196880
C         3.28960457456228    3.11544321136863    2.96546390210599
C         3.37626564204552    4.26148745947585    2.19973161811528
C         4.26623162680557    4.32545881516917    1.14143853764308
C         5.07341242406790    3.23685593465627    0.86646861932214
C         4.98495623107476    2.08631533370739    1.63074169600769
C         2.44757082445761   -1.39625071621948    3.54383644753448
C         3.13632191056226   -2.19318526816271    4.45575501890242
C         3.12067742392912   -3.56999729848512    4.34869458782002
C         2.40824369588434   -4.18063165096266    3.33118716004343
C         1.70461066348041   -3.40022225323849    2.43235411165968
C         1.72049589977712   -2.02037612278996    2.53814928781062
C         1.45412799479087    0.81942137182172    2.87780747683845
C         0.31776144883548    1.36918593905259    3.45434160249847
C        -0.62154549769764    2.02645823409570    2.67835457301485
C        -0.43710124726327    2.14930666066793    1.31368080555146
C         0.69405831529919    1.60654324720859    0.72782672348638
C         1.62965293970416    0.94822427321556    1.50217535975900
H         0.99968219522329    0.52135745628168    8.87512396361342
H         1.95465253887504    1.75257584613736   10.75844658387368
H         4.02355365436293    3.07592951193349   10.45598799658831
H         5.12685643571584    3.14501478413626    8.27432758614545
H         4.17935027252362   -0.84424243034158    1.42391453863443
H         5.84877290612722   -2.57315042094248    0.97416574993446
H         7.67056532428951   -2.99250897249779    2.59037227685839
H         7.79838948985453   -1.64630296665472    4.65758924872238
H         6.13288830512482    0.07322164194634    5.11421967528884
H         2.59596364772395    3.08735929949977    3.79386928146512
H         2.74881171559008    5.10844351213329    2.43469979718541
H         4.33639598311136    5.22137666989210    0.54272564972353
H         5.78370962640943    3.28042266323092    0.05367652071450
H         5.63529571689942    1.25430342208411    1.40657785267712
H         3.69636762908097   -1.73479228720869    5.25849037090328
H         3.66610431681940   -4.16683370974458    5.06477297156019
H         2.39557795558127   -5.25689142206477    3.24552348218114
H         1.13396588314952   -3.86511613586197    1.64166215027290
H         1.15389942961095   -1.43254127194180    1.83209273479426
H         0.15325925730229    1.29442588836551    4.51702229747363
H        -1.49931796731697    2.44550478602317    3.14777472775937
H        -1.16838865166796    2.66534608441520    0.70933805284823
H         0.85134002981949    1.69829405483749   -0.33678987796647
H         2.51056236359673    0.53797578565843    1.03159929908076
