74
 energy: -90.161497817838 gnorm: 0.000733799833 xtb: 6.2.2 (9d81278992624c895f80dd42a50cac0aa55982e2)
C         0.82379875825192    5.53617477648462    9.04442849529877
C         1.58309234897772    5.61775614832726    7.68578108016041
C         0.88996789108526    3.99429414910816    9.67775465440049
C         1.81480965102709    7.05651129811795    7.20048485250377
C        -0.43928513876091    3.73837755572298   10.41737208565432
C        -0.56127546248214    6.22641435444309    8.72210728325370
C         2.05400553819379    3.79509358649332   10.69549555188523
C        -1.47809765552132    6.49437714029127    9.93191917292913
C         1.70445970490198    7.92334134501972    9.50857377974747
C         3.55461915043713    2.57666967650579    9.08119463494857
C         1.47510340363357    6.51393885673324   10.07114823489172
C        -0.33275096538503    7.67363042231159    8.18221228302321
C        -1.30340739565788    5.48752062765002    7.59877740968534
C         1.91421221511511    2.47401414511053   11.47834011200747
C         0.93152941445155    1.42432909652513    9.49101766715465
C         0.62917517118820    6.69929912879764   11.33894528469537
C         0.47001744276679    7.70335576916508    6.89241307808931
C         1.07452710740304    2.76405026785613    8.72541850764349
C         0.35821920069139    8.56788742712130    9.20431963194107
C         2.04304606851503    1.28790232687466   10.52944796049968
C        -0.53236352990141    2.42222841658076   11.17916110594401
C         3.43384936579866    3.76925579587671   10.02568958410591
C         3.41705078296218    1.28423202031862    9.87455976100670
C         2.44339704395665    2.63114955881948    8.03671660302778
C        -0.50854797164579    5.53436314772314    6.29215766989592
C        -0.41153535839443    1.27869575318325   10.18859467256719
C        -0.73385075181767    7.30148937145095   11.00034896172414
C         0.58343468900303    2.37687648330189   12.21237328369099
C         2.55572768354849    7.87208547310509    8.24930121536703
C        -0.49012750008489    8.70605581563652   10.46081218340696
C         0.86802234206754    4.92297709103474    6.51548907646151
C        -0.30790733602156    6.96480849636467    5.81326261106892
H         2.46371199080287    6.15164351812766   10.35111670913463
H         4.52990149439996    2.60218563211320    8.58097672760551
H        -1.50617113103210    2.38046582184714   11.68272873105394
H        -1.22757017696116    1.32533134158095    9.46287706876609
H         3.52346750646530    7.41269626787315    8.46787456486751
H         0.75550544294416    3.85702253389287    6.64685903079321
H         0.51749360882561    9.56008165225364    8.76405097102288
H         2.22861669948049    8.51066848823872   10.27299347710882
H         3.62591464134821    4.69045873096221    9.47670991104523
H         1.15768220095078    7.39294594289053   12.00099142206763
H         4.19584672580866    1.21662577917890   10.63829928954259
H         3.52014207588834    0.42098696223772    9.21263934536238
H        -1.32640530308221    8.08801818717511    7.97040432210153
H        -2.31959700762485    7.10078094777695    9.58059591453813
H        -1.43633989627013    9.19718831099432   10.22148742830739
H         0.54174798922065    1.44630511933482   12.78377120376197
H         0.51173879680651    5.77550388994264   11.89880209102036
H         2.04852083964863    4.57704720875300   11.45334534374434
H         0.47344990411169    3.20556364354770   12.91665863667209
H         2.74194314076463    8.88310132676403    7.87860586010951
H         2.57557039646919    5.19094801639823    7.82284078084353
H         4.19981680147360    3.69206508950922   10.80319788053466
H         0.26974909243114    2.75896602431833    7.98625585318647
H         2.72942806763190    2.44025242815264   12.21232509726815
H         0.24073805068640    6.96876005362168    4.86835167741371
H        -1.26784915774598    7.45957614618617    5.64634905851906
H        -1.48124837205680    4.44540230652856    7.86358035754350
H         2.42190802708912    7.01203148985442    6.28726185810138
H        -0.46858123590520    0.31219395462106   10.69504034911696
H        -1.25245923879259    3.75398453803889    9.69416059661831
H        -1.04570583519314    4.96129104583131    5.52685162340764
H         0.02704246757974    9.31897967291008   11.20301639798901
H        -0.60141427679251    4.51698657474483   11.14936853628655
H         2.44589276012115    1.69589654533938    7.46774551394991
H         2.65681972761614    3.41738640387817    7.32378321940771
H        -1.92538287131393    5.60130169376348   10.35014815882837
H        -1.34611996773166    7.35316318728812   11.90860183616448
H         0.62527604853088    8.74412434222442    6.58206300738640
H         1.02988076030457    0.61932339750142    8.75199399174336
H         1.47425805457250    5.06650371510998    5.61543352033229
H        -2.28000948031314    5.95571213505949    7.44585374185339
H         1.90466810103007    0.35453565993968   11.08831345602218
