54
 energy: -65.695977358210 gnorm: 0.000605685556 xtb: 6.2.2 (9d81278992624c895f80dd42a50cac0aa55982e2)
B         1.10836921969523   -0.05390026387793    7.97279067866762
B         0.69502921264150    1.42057059844794    8.86334996244209
B        -1.00057051738489    1.26793868055976    9.30531283612823
B        -1.56879982745381   -0.30667177990508    8.71386406247047
B         1.61235448127915    0.12484425709229    9.65264373928207
B         0.27163181649915    0.94816022162243   10.51203801011481
B        -1.17096261985698   -0.10814421079079   10.42005449767350
C        -0.43047357518659    0.63651184886376    7.83999193783746
N        -0.78975347623736    1.05419674353980    6.54684965449723
H         1.76064261746845   -0.04646017990640    6.99303111094745
H        -2.00249302694166   -0.12187029203930   11.25213781357467
H         1.12265295901627    2.44440806385939    8.46976301309635
H        -2.61702306094024   -0.48069867852588    8.20736980733393
H         2.74340577179185    0.26306530271910    9.94528087907889
H        -1.72512382203014    2.19271783992699    9.24821752505187
H         0.45322379387197    1.67760970675410   11.41680946292459
C        -1.97949069474681    1.84697073387280    6.31327240570794
B         0.99117057725344   -1.43979819103724    9.07608700847698
B        -0.69111057441602   -1.58701674532242    9.56688789644250
B         0.46138870007117   -0.81005178045643   10.65689925872397
C        -0.25900681135785   -1.09128238373135    7.98661124297027
N        -0.55896479694077   -1.78394443953474    6.79745838255001
C         0.40145545584357   -2.70130626870678    6.21035090971984
H         1.39128840488192   -2.24328905361863    6.27386649611492
H         0.43858652758907   -3.66583849436176    6.74285149099836
C         0.03992341252039   -2.92147922314600    4.76542626793304
C        -0.38672384457420   -4.15959033322939    4.30676465043222
H        -0.43783559826505   -4.99595185088577    4.99014205923894
C        -0.74056384070481   -4.33299616310602    2.97916684050732
H        -1.06820148074872   -5.30243101485913    2.63284337783105
C        -0.67617090097657   -3.26700353805753    2.09885723775899
H        -0.95247612031710   -3.40283684368188    1.06349063335462
C        -0.25526179725297   -2.02624775536164    2.55003982888328
H        -0.20309529394283   -1.19026034809711    1.86784996261617
C         0.09904290868417   -1.85553407707912    3.87527539398127
H         0.42025086686772   -0.88823086547399    4.23077456160439
H         1.64410344380117   -2.39452055306997    8.86290110984988
H        -1.20031830496343   -2.64492088319517    9.65436653054791
H         0.78880936955771   -1.32739018848653   11.66128755693073
H        -1.49258770539481   -2.17409355701310    6.78730605582293
C        -2.39955572450999    1.70872883696126    4.87325618461482
C        -2.71572047724835    2.81775745592711    4.10201778177920
C        -3.09695150877680    2.66643689217382    2.77958305666944
C        -3.16168017085768    1.40430910491514    2.21530784730908
C        -2.84543087862826    0.29261198319257    2.97892792325231
C        -2.46667335876329    0.44457919530717    4.29954803543119
H        -0.00930103777161    1.38141989587423    5.99403411476936
H        -1.83281172092065    2.91113614802684    6.56206313246594
H        -2.77598545858975    1.46377101570130    6.95721857102990
H        -2.66491819655506    3.80586551843496    4.53772798248946
H        -3.33967405795941    3.53718820180335    2.18801554762071
H        -3.45664472412781    1.28769521001973    1.18291672840868
H        -2.89309027179033   -0.69589697568737    2.54588969212244
H        -2.20659507759922   -0.41733917276177    4.89481642681884
