55
 energy: -67.859914871860 gnorm: 0.000814178879 xtb: 6.2.2 (9d81278992624c895f80dd42a50cac0aa55982e2)
B         0.36977448233310    0.71320969855833   12.65031396449299
H        -0.78995901927307    0.89670544331880   12.63677400071785
B         1.28182970631713    0.33014985083149   14.08494577870231
H         0.70934337909436    0.11925102790876   15.08911934059277
B         2.74601546347763    1.33902280736805   14.14198510128237
H         3.11572389430221    1.73850522126855   15.18453456113944
B         2.83534581516120    2.37595913843425   12.74438139721510
H         3.09205647430104    3.52100977184076   12.77988922243370
B         2.81379669602641    1.43218098543156   11.27926532556318
H         3.20335998998432    1.91387008399155   10.28030946221207
B         1.33301116871843    0.44446738873262   11.22508584487166
H         0.80020804401409    0.28820670964360   10.18815555370553
B         1.37019301773188   -0.70165051512409   12.61632171193021
H         0.88825939512119   -1.77247048067588   12.56174775940901
B         3.77112996766518    0.92278185265731   12.71644300505074
H         4.94538007168211    0.96753196003375   12.74812981293859
B         2.87152571571461   -0.27883600845330   11.75411753192377
H         3.43706774498727   -1.07691120622678   11.10098614294801
B         2.83849463414939   -0.34224242525867   13.55690822773420
H         3.38539497879764   -1.18120444258396   14.17357697171816
N         0.46193720844239    3.00899702850648   13.92082550196108
N         0.64618481433283    3.18578076803303   11.55688586728118
C         1.29216877602490    1.93240053943247   13.48940505119530
C         1.34367950811455    1.99867676221450   11.92472677577057
C        -0.04089144382895    3.69786343687779   12.74041826876918
H         0.12049922420223    4.78253336237397   12.82040959338392
H        -1.13241068281905    3.53277315231264   12.65728940702519
C        -0.15555079074638    3.17885798566398   10.35169988978205
H        -1.08634009567866    2.59810953943968   10.47793605547368
H         0.44136675355795    2.70905663022823    9.56482563817366
C        -0.47644640262070    4.59793982475627    9.96523815149743
C         0.56331600162824    5.48076164930127    9.69735417821259
H         1.58162703657639    5.12431292968317    9.75279785198302
C         0.29865470568003    6.79798560009225    9.37259243243549
H         1.11362844626860    7.47588089281275    9.16540562298864
C        -1.01037029312024    7.24825766248310    9.31091578689784
H        -1.21840225756244    8.27721382234431    9.05695629108692
C        -2.05036949486519    6.37516670353980    9.57605632250716
H        -3.07282592813726    6.72116802070742    9.53104098321731
C        -1.78388211338656    5.05656167536243    9.90489742814140
H        -2.60054409431413    4.37950797219390   10.11335563471988
C         0.93798358954243    3.86837013504426   14.98784651407353
H         1.74462545896892    4.54222268550937   14.65384685328003
H         1.33493004102987    3.21935645873310   15.77335715440687
C        -0.21210497443185    4.66961408877040   15.53605108040504
C        -0.19959227041862    6.05651321093322   15.52183032432329
H         0.65781588643228    6.58161977334691   15.12365716289440
C        -1.27509995204576    6.77344708772842   16.01859960231954
H        -1.25245533668983    7.85339255392905   16.00482109551190
C        -2.37605652290833    6.10851015715377   16.52852391257042
H        -3.21487063646171    6.66756140711215   16.91606063437635
C        -2.39830395229267    4.72326150177891   16.54060902590797
H        -3.25612341172225    4.20040282279714   16.93763415112236
C        -1.32278470849292    4.00870670454125   16.04765515096919
H        -1.33564338665608    2.92856567049063   16.04947517337860
