72
 energy: -84.714636306736 gnorm: 0.000371350726 xtb: 6.2.2 (9d81278992624c895f80dd42a50cac0aa55982e2)
N        10.32633835387673    8.97217020394746    2.04071935025264
N         8.55352422039671    6.61950443702607    1.49733613934554
C        12.47499032688655   11.72807944139334   -0.66108968841324
H        12.74080489315572   11.61858417843243   -1.70323410070885
C        11.40384128944209   11.00637375001710   -0.15704425458262
C         7.03084930204078    6.16188132701634   -0.33402903284040
C        11.04428036686836   11.14258157479572    1.18678366191159
C         9.82252918345181    8.31118423349327    3.18885185087956
C         9.89178564528616   10.34175183208896    1.73724451579636
H         9.48892353700700   10.82533261482279    2.63072644544578
H         9.08129573759796   10.29212517317869    0.99964337674377
C        13.21410069084555   12.58116843620300    0.14299740790873
B         7.70384213008070    6.74849223455659    4.08733780621784
C         8.81603619740326    6.93557862578956    2.83806303974260
B         8.18697007168368    8.38170091853583    3.55854842867841
C         6.32321134560249    4.01759630729219   -1.16866279780021
H         5.98069602731348    3.00993678665746   -0.97872537175649
C        11.79444957059330   11.98318392828083    2.01520363425306
C         7.19989528685010    6.59861678237687   -1.64904643977861
C        12.86196643886094   12.68964910247718    1.47902713133410
H        13.43678275539126   13.34036793278974    2.12284449867900
C         7.32891421989877    7.06194167600455    0.84196464386443
H         7.39149520318389    8.10971278751046    0.51978935757766
H         6.51766241156953    6.98661024459374    1.56853591489005
B         9.38412295101462    9.00133994424456    4.70835810898040
B        10.41382100830124    6.70784287777052    3.35566710144789
C         6.58851600176969    4.85542957971384   -0.09727843069944
B         8.03071701562747    8.02632380598031    5.28074624165100
C         6.92250490569752    5.73400429485013   -2.70011731903718
H         7.05408184239488    6.08239135907297   -3.71524919172924
C         6.48376432681024    4.43979877240281   -2.48008262860247
B         9.12000270857478    5.69771536648331    3.99805709470473
B        10.79333168357068    7.96831589105776    4.54370163655494
C        14.35343523144924   13.37616035430636   -0.41774737002806
H        13.99726708442286   14.35337243943532   -0.74590492011370
H        14.79428792180804   12.87269623065602   -1.27472123930107
H        15.12254027610868   13.53512158977207    0.33474645155028
C        10.64991357517671   10.08197196863917   -1.06640595586794
H        11.15793340533612    9.98887469692734   -2.02307500922647
H         9.64568074343281   10.46403781300615   -1.25174322488860
H        10.56700876049764    9.09406321315391   -0.61785916355893
B         8.64149603603816    6.36370406470694    5.55589979698227
C         7.67270404193882    7.98793968676050   -1.97015518549522
H         7.78928008531539    8.10735104781809   -3.04460679573205
H         8.63321185821312    8.18817624305380   -1.50151212722391
H         6.95714905720637    8.73358916478578   -1.62380828025276
B         9.68694480208402    7.75023109889787    5.91810055861864
C         6.38675035228210    4.34793112575416    1.29736436819445
H         6.12992957295390    3.29182717322983    1.28453601373067
H         5.57754052719207    4.88844777459337    1.78774423444992
H         7.28753890894517    4.48653061272574    1.88874610583227
B        10.36931090564419    6.32884866852782    5.08130283475964
C         6.20145379898880    3.50750570594021   -3.61911323906930
H         6.97778676626602    2.74450347691817   -3.68012925683144
H         6.17292579548805    4.04354758824198   -4.56448771371866
H         5.24893730052879    3.00145264894148   -3.47277451906649
C        11.48651467391320   12.14088415296147    3.47562446328270
H        12.20310197273794   12.81401009374867    3.93947872655283
H        11.53467348324016   11.18377996806462    3.99244628873864
H        10.48980894814382   12.55593380139203    3.62235282181328
H         7.50685660141945    9.06130883919182    2.88323700183395
H         9.02505080429599    4.59440764467324    3.60660171830204
H        11.17866576718266    6.36468790831014    2.52839841492031
H         9.99992389910102    8.04460704083464    7.01332215515399
H         6.63132036609225    6.35129681367391    3.81842598873526
H        11.87733459443690    8.43343293579343    4.52795282306525
H         8.19714390777686    5.67584485760126    6.40018473722123
H         7.16524341082701    8.49432613877812    5.92617878592519
H         9.49084845626433   10.16496635198419    4.83812700066514
H        11.16644985484520    5.62006909580673    5.57684866225322
H        11.33702805596552    8.91110584343092    1.99614424073727
H         9.35756621577560    6.73259720813353    0.89339452502666
