50
 energy: -63.636356675795 gnorm: 0.000173273527 xtb: 6.2.2 (9d81278992624c895f80dd42a50cac0aa55982e2)
B         5.74853910741128    3.62356007858825    3.60365294839361
B         4.20966984367309    4.50283943802062    3.62535041306210
B         3.59634590437805    4.50438412652192    5.27155815498181
B         5.75295175622515    5.38319572043479    3.58883630814042
B         4.41303366045719    5.94444235868341    4.63798064857648
C         4.47555196158906    3.15787633456264    4.66170241077128
C         2.78664169013598    1.65967718225366    4.04630802151385
H         2.07734974283310    2.46112909269459    3.80146816491052
N         3.95985294370069    1.88787139493966    4.46671494293756
C         2.30273860128865    0.30467856106751    3.86432429176880
C         0.99497504806968    0.08405033273483    3.43171341226072
H         0.34964989843327    0.92803033890290    3.23227693049003
C         0.52469035872688   -1.20388520519417    3.26038097571778
H        -0.48953317792099   -1.36696206830168    2.92628081713486
C         1.35203116211907   -2.28557307076617    3.51651452115369
H         0.98182854168773   -3.29123386862350    3.38187313642951
C         2.65475938026417   -2.07602496723548    3.94503632691660
H         3.29777620153272   -2.92125003430463    4.14273453084141
C         3.12874153796478   -0.79186618978692    4.11847453776131
H         4.13790311151878   -0.60428942017639    4.44931224024876
H         2.45040555191871    4.33935925848210    5.48006279174119
H         6.05144028268631    2.83514846731997    2.78981344911962
H         3.47896698223182    4.33537109563006    2.71867808165136
H         6.10821731221607    5.97033873119912    2.63412892780915
H         3.82034177855584    6.93562925790493    4.41691197440962
B         4.74504215720663    3.62357874407113    6.29348322660062
B         6.28392174126462    4.50283957266826    6.27177766885432
B         6.89724609939028    4.50436077894741    4.62557006572963
B         4.74065109220997    5.38321528949078    6.30828289791971
B         6.08057606919659    5.94443512183744    5.25913316296026
C         6.01802337278829    3.15786952473752    5.23543841308297
C         7.70691380840530    1.65965760667671    5.85085337622577
H         8.41620922355785    2.46110438346828    6.09569997806232
N         6.53370887775763    1.88786029474264    5.43043401409698
C         8.19080777680056    0.30465514926356    6.03283806015366
C         9.49856916377541    0.08401920671396    6.46545091328267
H        10.14389860735447    0.92799532855603    6.66489000483322
C         9.96884661845977   -1.20391944644692    6.63678194155306
H        10.98306878598987   -1.36700233181405    6.97088316898137
C         9.14150046391225   -2.28560202140727    6.38064449554120
H         9.51169764166080   -3.29126518828367    6.51528368553401
C         7.83877450429858   -2.07604615593659    5.95212012881268
H         7.19575354694178   -2.92126734347256    5.75441881249912
C         7.36479928733673   -0.79188430876089    5.77868416237786
H         6.35563905734182   -0.60430139647263    5.44784576162673
H         8.04318439360948    4.33931877539998    4.41706755464393
H         4.44213098931413    2.83517897132552    7.10733058528128
H         7.01462215141667    4.33537182849941    7.17845207910829
H         4.38539282335077    5.97037205440535    7.26298454659447
H         6.67328033853413    6.93561685917067    5.48019190854485
