 Entering Gaussian System, Link 0=g16
 Input=MN_14_C2H5_upper_BH76_PBE0DBJ_631Gs.in
 Output=MN_14_C2H5_upper_BH76_PBE0DBJ_631Gs.log
 Initial command:
 /udrive/faculty/rpeverati/g16/g16/l1.exe "/udrive/scratch-directories/gaussian09/rpeverati/Gau-14576.inp" -scrdir="/udrive/scratch-directories/gaussian09/rpeverati/"
 Entering Link 1 = /udrive/faculty/rpeverati/g16/g16/l1.exe PID=     14578.
  
 Copyright (c) 1988,1990,1992,1993,1995,1998,2003,2009,2016,
            Gaussian, Inc.  All Rights Reserved.
  
 This is part of the Gaussian(R) 16 program.  It is based on
 the Gaussian(R) 09 system (copyright 2009, Gaussian, Inc.),
 the Gaussian(R) 03 system (copyright 2003, Gaussian, Inc.),
 the Gaussian(R) 98 system (copyright 1998, Gaussian, Inc.),
 the Gaussian(R) 94 system (copyright 1995, Gaussian, Inc.),
 the Gaussian 92(TM) system (copyright 1992, Gaussian, Inc.),
 the Gaussian 90(TM) system (copyright 1990, Gaussian, Inc.),
 the Gaussian 88(TM) system (copyright 1988, Gaussian, Inc.),
 the Gaussian 86(TM) system (copyright 1986, Carnegie Mellon
 University), and the Gaussian 82(TM) system (copyright 1983,
 Carnegie Mellon University). Gaussian is a federally registered
 trademark of Gaussian, Inc.
  
 This software contains proprietary and confidential information,
 including trade secrets, belonging to Gaussian, Inc.
  
 This software is provided under written license and may be
 used, copied, transmitted, or stored only in accord with that
 written license.
  
 The following legend is applicable only to US Government
 contracts under FAR:
  
                    RESTRICTED RIGHTS LEGEND
  
 Use, reproduction and disclosure by the US Government is
 subject to restrictions as set forth in subparagraphs (a)
 and (c) of the Commercial Computer Software - Restricted
 Rights clause in FAR 52.227-19.
  
 Gaussian, Inc.
 340 Quinnipiac St., Bldg. 40, Wallingford CT 06492
  
  
 ---------------------------------------------------------------
 Warning -- This program may not be used in any manner that
 competes with the business of Gaussian, Inc. or will provide
 assistance to any competitor of Gaussian, Inc.  The licensee
 of this program is prohibited from giving any competitor of
 Gaussian, Inc. access to this program.  By using this program,
 the user acknowledges that Gaussian, Inc. is engaged in the
 business of creating and licensing software in the field of
 computational chemistry and represents and warrants to the
 licensee that it is not a competitor of Gaussian, Inc. and that
 it will not use this program in any manner prohibited above.
 ---------------------------------------------------------------
  

 Cite this work as:
 Gaussian 16, Revision A.03,
 M. J. Frisch, G. W. Trucks, H. B. Schlegel, G. E. Scuseria, 
 M. A. Robb, J. R. Cheeseman, G. Scalmani, V. Barone, 
 G. A. Petersson, H. Nakatsuji, X. Li, M. Caricato, A. V. Marenich, 
 J. Bloino, B. G. Janesko, R. Gomperts, B. Mennucci, H. P. Hratchian, 
 J. V. Ortiz, A. F. Izmaylov, J. L. Sonnenberg, D. Williams-Young, 
 F. Ding, F. Lipparini, F. Egidi, J. Goings, B. Peng, A. Petrone, 
 T. Henderson, D. Ranasinghe, V. G. Zakrzewski, J. Gao, N. Rega, 
 G. Zheng, W. Liang, M. Hada, M. Ehara, K. Toyota, R. Fukuda, 
 J. Hasegawa, M. Ishida, T. Nakajima, Y. Honda, O. Kitao, H. Nakai, 
 T. Vreven, K. Throssell, J. A. Montgomery, Jr., J. E. Peralta, 
 F. Ogliaro, M. J. Bearpark, J. J. Heyd, E. N. Brothers, K. N. Kudin, 
 V. N. Staroverov, T. A. Keith, R. Kobayashi, J. Normand, 
 K. Raghavachari, A. P. Rendell, J. C. Burant, S. S. Iyengar, 
 J. Tomasi, M. Cossi, J. M. Millam, M. Klene, C. Adamo, R. Cammi, 
 J. W. Ochterski, R. L. Martin, K. Morokuma, O. Farkas, 
 J. B. Foresman, and D. J. Fox, Gaussian, Inc., Wallingford CT, 2016.
 
 ******************************************
 Gaussian 16:  ES64L-G16RevA.03 25-Dec-2016
                 7-Oct-2020 
 ******************************************
 %NoSave
 %nproc=12
 Will use up to   12 processors via shared memory.
 %mem=20GB
 %chk=MN_14_C2H5_upper_BH76_PBE0DBJ_631Gs
 ----------------------------------------------------------------------
 #P Opt(MaxCyc=100) PBE1PBE/6-31G* 5D 7F Integral=UltraFineGrid SCF=(No
 Symm,XQC,MaxCyc=120) EmpiricalDispersion=GD3BJ IOp(1/33=1)
 ----------------------------------------------------------------------
 1/6=100,18=20,19=15,26=4,33=1,38=1/1,3;
 2/9=110,12=2,17=6,18=5,40=1/2;
 3/5=1,6=6,7=1,8=11,11=2,25=1,30=1,71=1,74=-13,75=-5,124=41/1,2,3;
 4/9=2/1;
 5/5=2,7=120,8=3,13=1,38=5/2,8;
 6/7=2,8=2,9=2,10=2,28=1/1;
 7//1,2,3,16;
 1/6=100,18=20,19=15,26=4,33=1/3(2);
 2/9=110/2;
 99//99;
 2/9=110/2;
 3/5=1,6=6,7=1,8=11,11=2,25=1,30=1,71=1,74=-13,75=-5,124=41/1,2,3;
 4/5=5,9=2,16=3,69=1/1;
 5/5=2,7=120,8=3,13=1,38=5/2,8;
 7//1,2,3,16;
 1/6=100,18=20,19=15,26=4,33=1/3(-5);
 2/9=110/2;
 6/7=2,8=2,9=2,10=2,19=2,28=1/1;
 99/9=1/99;
 Leave Link    1 at Wed Oct  7 14:29:05 2020, MaxMem=  2684354560 cpu:               6.4 elap:               0.6
 (Enter /udrive/faculty/rpeverati/g16/g16/l101.exe)
 ONIOM data not found on unit 2.
 ------------------
 TS search on BH76.
 ------------------
 TstMul:  ICh=     0
 TstMul:  Mul=     2
 TstMul:  ICh=     0
 TstMul:  Mul=     2
 Symbolic Z-matrix:
 Charge =  0 Multiplicity = 2
 C                     0.79461   0.00001  -0.02239 
 C                    -0.69537   0.00017  -0.00046 
 H                    -1.1034    0.88959  -0.48106 
 H                     1.34848  -0.92405   0.04849 
 H                    -1.08604  -0.01333   1.02465 
 H                    -1.10383  -0.87672  -0.50357 
 H                     1.34939   0.92345   0.04863 
 
 RdStrC is calling ZToCFu for IStruc=1 NZ=     7.
 PrtBox:  NBox=     1 Levels=  1 BoxLen=    8.00 SMaxX=        4.64
          Shift=            2.085930            1.746200            0.951617
 Box      1 Number                   0 centers from      1 to      7:
 After GenITR:
 ITRead=  0  0  0  0  0  0  0
 MicOpt= -1 -1 -1 -1 -1 -1 -1
 ITRead=  0  0  0  0  0  0  0
 MicOpt= -1 -1 -1 -1 -1 -1 -1
 NAtoms=      7 NQM=        7 NQMF=       0 NMMI=      0 NMMIF=      0
                NMic=       0 NMicF=      0.
                    Isotopes and Nuclear Properties:
 (Nuclear quadrupole moments (NQMom) in fm**2, nuclear magnetic moments (NMagM)
  in nuclear magnetons)

  Atom         1           2           3           4           5           6           7
 IAtWgt=          12          12           1           1           1           1           1
 AtmWgt=  12.0000000  12.0000000   1.0078250   1.0078250   1.0078250   1.0078250   1.0078250
 NucSpn=           0           0           1           1           1           1           1
 AtZEff=   0.0000000   0.0000000   0.0000000   0.0000000   0.0000000   0.0000000   0.0000000
 NQMom=    0.0000000   0.0000000   0.0000000   0.0000000   0.0000000   0.0000000   0.0000000
 NMagM=    0.0000000   0.0000000   2.7928460   2.7928460   2.7928460   2.7928460   2.7928460
 AtZNuc=   6.0000000   6.0000000   1.0000000   1.0000000   1.0000000   1.0000000   1.0000000
 No MM parameters found.
 Leave Link  101 at Wed Oct  7 14:29:07 2020, MaxMem=  2684354560 cpu:              13.1 elap:               1.2
 (Enter /udrive/faculty/rpeverati/g16/g16/l103.exe)

 GradGradGradGradGradGradGradGradGradGradGradGradGradGradGradGradGradGrad
 Berny optimization.
 Optmz: redundant internal coordinate code flag= 1
 Initialization pass.
                           ----------------------------
                           !    Initial Parameters    !
                           ! (Angstroms and Degrees)  !
 --------------------------                            --------------------------
 ! Name  Definition              Value          Derivative Info.                !
 --------------------------------------------------------------------------------
 ! R1    R(1,2)                  1.4901         estimate D2E/DX2                !
 ! R2    R(1,4)                  1.0797         estimate D2E/DX2                !
 ! R3    R(1,7)                  1.0796         estimate D2E/DX2                !
 ! R4    R(2,3)                  1.0902         estimate D2E/DX2                !
 ! R5    R(2,5)                  1.0971         estimate D2E/DX2                !
 ! R6    R(2,6)                  1.0904         estimate D2E/DX2                !
 ! A1    A(2,1,4)              120.802          estimate D2E/DX2                !
 ! A2    A(2,1,7)              120.8472         estimate D2E/DX2                !
 ! A3    A(4,1,7)              117.654          estimate D2E/DX2                !
 ! A4    A(1,2,3)              111.5818         estimate D2E/DX2                !
 ! A5    A(1,2,5)              111.7036         estimate D2E/DX2                !
 ! A6    A(1,2,6)              111.5728         estimate D2E/DX2                !
 ! A7    A(3,2,5)              106.778          estimate D2E/DX2                !
 ! A8    A(3,2,6)              108.2098         estimate D2E/DX2                !
 ! A9    A(5,2,6)              106.7292         estimate D2E/DX2                !
 ! D1    D(4,1,2,3)           -156.2068         estimate D2E/DX2                !
 ! D2    D(4,1,2,5)             84.3504         estimate D2E/DX2                !
 ! D3    D(4,1,2,6)            -35.0241         estimate D2E/DX2                !
 ! D4    D(7,1,2,3)             33.5825         estimate D2E/DX2                !
 ! D5    D(7,1,2,5)            -85.8603         estimate D2E/DX2                !
 ! D6    D(7,1,2,6)            154.7652         estimate D2E/DX2                !
 --------------------------------------------------------------------------------
 Maximum allowed force set to 1.00D+20.
 Trust Radius=3.00D-01 FncErr=1.00D-07 GrdErr=1.00D-06 EigMax=2.50D+02 EigMin=1.00D-04
 Number of steps in this run=    100 maximum allowed number of steps=    100.
 GradGradGradGradGradGradGradGradGradGradGradGradGradGradGradGradGradGrad

 Leave Link  103 at Wed Oct  7 14:29:08 2020, MaxMem=  2684354560 cpu:               1.2 elap:               0.6
 (Enter /udrive/faculty/rpeverati/g16/g16/l202.exe)
                          Input orientation:                          
 ---------------------------------------------------------------------
 Center     Atomic      Atomic             Coordinates (Angstroms)
 Number     Number       Type             X           Y           Z
 ---------------------------------------------------------------------
      1          6           0        0.794607    0.000006   -0.022395
      2          6           0       -0.695371    0.000170   -0.000460
      3          1           0       -1.103398    0.889595   -0.481056
      4          1           0        1.348476   -0.924049    0.048485
      5          1           0       -1.086041   -0.013327    1.024646
      6          1           0       -1.103827   -0.876720   -0.503574
      7          1           0        1.349386    0.923446    0.048633
 ---------------------------------------------------------------------
                    Distance matrix (angstroms):
                    1          2          3          4          5
     1  C    0.000000
     2  C    1.490139   0.000000
     3  H    2.145731   1.090199   0.000000
     4  H    1.079663   2.243632   3.095384   0.000000
     5  H    2.152512   1.097109   1.755764   2.776540   0.000000
     6  H    2.145747   1.090365   1.766458   2.514119   1.755340
     7  H    1.079614   2.244076   2.509555   1.847495   2.785938
                    6          7
     6  H    0.000000
     7  H    3.092536   0.000000
 Stoichiometry    C2H5(2)
 Framework group  C1[X(C2H5)]
 Deg. of freedom    15
 Full point group                 C1      NOp   1
 Largest Abelian subgroup         C1      NOp   1
 Largest concise Abelian subgroup C1      NOp   1
                         Standard orientation:                         
 ---------------------------------------------------------------------
 Center     Atomic      Atomic             Coordinates (Angstroms)
 Number     Number       Type             X           Y           Z
 ---------------------------------------------------------------------
      1          6           0        0.794606    0.000007   -0.022395
      2          6           0       -0.695372    0.000169   -0.000460
      3          1           0       -1.103400    0.889593   -0.481056
      4          1           0        1.348476   -0.924048    0.048485
      5          1           0       -1.086042   -0.013328    1.024646
      6          1           0       -1.103827   -0.876721   -0.503574
      7          1           0        1.349384    0.923447    0.048633
 ---------------------------------------------------------------------
 Rotational constants (GHZ):         104.2257635          22.7282478          21.0824177
 Leave Link  202 at Wed Oct  7 14:29:08 2020, MaxMem=  2684354560 cpu:               1.1 elap:               0.5
 (Enter /udrive/faculty/rpeverati/g16/g16/l301.exe)
 Standard basis: 6-31G(d) (5D, 7F)
 Ernie: Thresh=  0.10000D-02 Tol=  0.10000D-05 Strict=F.
 There are    40 symmetry adapted cartesian basis functions of A   symmetry.
 There are    38 symmetry adapted basis functions of A   symmetry.
    38 basis functions,    76 primitive gaussians,    40 cartesian basis functions
     9 alpha electrons        8 beta electrons
       nuclear repulsion energy        36.9816189775 Hartrees.
 IExCor= 1009 DFT=T Ex+Corr=PBE1PBE ExCW=0 ScaHFX=  0.250000
 ScaDFX=  0.750000  0.750000  1.000000  1.000000 ScalE2=  1.000000  1.000000
 IRadAn=      5 IRanWt=     -1 IRanGd=            0 ICorTp=0 IEmpDi=141
 NAtoms=    7 NActive=    7 NUniq=    7 SFac= 1.00D+00 NAtFMM=   60 NAOKFM=F Big=F
 Integral buffers will be    131072 words long.
 Raffenetti 2 integral format.
 Two-electron integral symmetry is turned on.
 R6Disp:  Grimme-D3(BJ) Dispersion energy=       -0.0022585502 Hartrees.
 Nuclear repulsion after empirical dispersion term =       36.9793604273 Hartrees.
 Leave Link  301 at Wed Oct  7 14:29:09 2020, MaxMem=  2684354560 cpu:               2.5 elap:               0.6
 (Enter /udrive/faculty/rpeverati/g16/g16/l302.exe)
 NPDir=0 NMtPBC=     1 NCelOv=     1 NCel=       1 NClECP=     1 NCelD=      1
         NCelK=      1 NCelE2=     1 NClLst=     1 CellRange=     0.0.
 One-electron integrals computed using PRISM.
 One-electron integral symmetry used in STVInt
 NBasis=    38 RedAO= T EigKep=  1.05D-02  NBF=    38
 NBsUse=    38 1.00D-06 EigRej= -1.00D+00 NBFU=    38
 Precomputing XC quadrature grid using
 IXCGrd= 4 IRadAn=           5 IRanWt=          -1 IRanGd=           0 AccXCQ= 0.00D+00.
 Generated NRdTot=       0 NPtTot=           0 NUsed=           0 NTot=          32
 NSgBfM=    40    40    40    40    40 MxSgAt=     7 MxSgA2=     7.
 Leave Link  302 at Wed Oct  7 14:29:10 2020, MaxMem=  2684354560 cpu:               4.1 elap:               0.7
 (Enter /udrive/faculty/rpeverati/g16/g16/l303.exe)
 DipDrv:  MaxL=1.
 Leave Link  303 at Wed Oct  7 14:29:11 2020, MaxMem=  2684354560 cpu:               2.0 elap:               0.6
 (Enter /udrive/faculty/rpeverati/g16/g16/l401.exe)
 SCF N**3 symmetry information disabled.
 ExpMin= 1.61D-01 ExpMax= 3.05D+03 ExpMxC= 4.57D+02 IAcc=3 IRadAn=         5 AccDes= 0.00D+00
 Harris functional with IExCor= 1009 and IRadAn=       5 diagonalized for initial guess.
 HarFok:  IExCor= 1009 AccDes= 0.00D+00 IRadAn=         5 IDoV= 1 UseB2=F ITyADJ=14
 ICtDFT=  3500011 ScaDFX=  1.000000  1.000000  1.000000  1.000000
 FoFCou: FMM=F IPFlag=           0 FMFlag=      100000 FMFlg1=           0
         NFxFlg=           0 DoJE=T BraDBF=F KetDBF=T FulRan=T
         wScrn=  0.000000 ICntrl=       500 IOpCl=  0 I1Cent=   200000004 NGrid=           0
         NMat0=    1 NMatS0=      1 NMatT0=    0 NMatD0=    1 NMtDS0=    0 NMtDT0=    0
 Petite list used in FoFCou.
 Harris En= -79.0876257991319    
 JPrj=0 DoOrth=F DoCkMO=F.
 Initial guess <Sx>= 0.0000 <Sy>= 0.0000 <Sz>= 0.5000 <S**2>= 0.7500 S= 0.5000
 Leave Link  401 at Wed Oct  7 14:29:13 2020, MaxMem=  2684354560 cpu:               5.5 elap:               0.9
 (Enter /udrive/faculty/rpeverati/g16/g16/l502.exe)
 Keep R1 and R2 ints in memory in canonical form, NReq=10906541.
 FoFCou: FMM=F IPFlag=           0 FMFlag=           0 FMFlg1=           0
         NFxFlg=           0 DoJE=F BraDBF=F KetDBF=F FulRan=T
         wScrn=  0.000000 ICntrl=       600 IOpCl=  0 I1Cent=           0 NGrid=           0
         NMat0=    1 NMatS0=    741 NMatT0=    0 NMatD0=    1 NMtDS0=    0 NMtDT0=    0
 Symmetry not used in FoFCou.
 Two-electron integral symmetry not used.
 UHF open shell SCF:
 Using DIIS extrapolation, IDIIS=  1040.
 NGot=  2684354560 LenX=  2683800373 LenY=  2683798332
 Requested convergence on RMS density matrix=1.00D-08 within 120 cycles.
 Requested convergence on MAX density matrix=1.00D-06.
 Requested convergence on             energy=1.00D-06.
 No special actions if energy rises.
 Integral accuracy reduced to 1.0D-05 until final iterations.

 Cycle   1  Pass 0  IDiag  1:
 E= -78.9641928339747    
 DIIS: error= 5.88D-02 at cycle   1 NSaved=   1.
 NSaved= 1 IEnMin= 1 EnMin= -78.9641928339747     IErMin= 1 ErrMin= 5.88D-02
 ErrMax= 5.88D-02  0.00D+00 EMaxC= 1.00D-01 BMatC= 2.98D-01 BMatP= 2.98D-01
 IDIUse=3 WtCom= 4.12D-01 WtEn= 5.88D-01
 Coeff-Com:  0.100D+01
 Coeff-En:   0.100D+01
 Coeff:      0.100D+01
 Gap=     0.283 Goal=   None    Shift=    0.000
 Gap=     0.358 Goal=   None    Shift=    0.000
 GapD=    0.283 DampG=1.000 DampE=0.500 DampFc=0.5000 IDamp=-1.
 Damping current iteration by 5.00D-01
 RMSDP=1.35D-02 MaxDP=1.31D-01              OVMax= 1.69D-01

 Cycle   2  Pass 0  IDiag  1:
 E= -79.0073762998363     Delta-E=       -0.043183465862 Rises=F Damp=T
 DIIS: error= 6.28D-03 at cycle   2 NSaved=   2.
 NSaved= 2 IEnMin= 2 EnMin= -79.0073762998363     IErMin= 2 ErrMin= 6.28D-03
 ErrMax= 6.28D-03  0.00D+00 EMaxC= 1.00D-01 BMatC= 7.81D-03 BMatP= 2.98D-01
 IDIUse=3 WtCom= 9.37D-01 WtEn= 6.28D-02
 Coeff-Com:  0.782D-02 0.992D+00
 Coeff-En:   0.000D+00 0.100D+01
 Coeff:      0.733D-02 0.993D+00
 Gap=     0.334 Goal=   None    Shift=    0.000
 Gap=     0.373 Goal=   None    Shift=    0.000
 RMSDP=1.64D-03 MaxDP=1.74D-02 DE=-4.32D-02 OVMax= 8.21D-02

 Cycle   3  Pass 0  IDiag  1:
 E= -79.0517505763596     Delta-E=       -0.044374276523 Rises=F Damp=F
 DIIS: error= 1.69D-03 at cycle   3 NSaved=   3.
 NSaved= 3 IEnMin= 3 EnMin= -79.0517505763596     IErMin= 3 ErrMin= 1.69D-03
 ErrMax= 1.69D-03  0.00D+00 EMaxC= 1.00D-01 BMatC= 4.37D-04 BMatP= 7.81D-03
 IDIUse=3 WtCom= 9.83D-01 WtEn= 1.69D-02
 Coeff-Com: -0.775D-02 0.749D-01 0.933D+00
 Coeff-En:   0.000D+00 0.000D+00 0.100D+01
 Coeff:     -0.762D-02 0.737D-01 0.934D+00
 Gap=     0.340 Goal=   None    Shift=    0.000
 Gap=     0.341 Goal=   None    Shift=    0.000
 RMSDP=4.22D-04 MaxDP=6.22D-03 DE=-4.44D-02 OVMax= 5.82D-03

 Cycle   4  Pass 0  IDiag  1:
 E= -79.0518879404304     Delta-E=       -0.000137364071 Rises=F Damp=F
 DIIS: error= 9.31D-04 at cycle   4 NSaved=   4.
 NSaved= 4 IEnMin= 4 EnMin= -79.0518879404304     IErMin= 4 ErrMin= 9.31D-04
 ErrMax= 9.31D-04  0.00D+00 EMaxC= 1.00D-01 BMatC= 1.04D-04 BMatP= 4.37D-04
 IDIUse=3 WtCom= 9.91D-01 WtEn= 9.31D-03
 Coeff-Com: -0.145D-02-0.203D-01 0.267D+00 0.755D+00
 Coeff-En:   0.000D+00 0.000D+00 0.000D+00 0.100D+01
 Coeff:     -0.143D-02-0.201D-01 0.264D+00 0.757D+00
 Gap=     0.339 Goal=   None    Shift=    0.000
 Gap=     0.344 Goal=   None    Shift=    0.000
 RMSDP=1.53D-04 MaxDP=2.20D-03 DE=-1.37D-04 OVMax= 2.95D-03

 Cycle   5  Pass 0  IDiag  1:
 E= -79.0519179432373     Delta-E=       -0.000030002807 Rises=F Damp=F
 DIIS: error= 4.07D-04 at cycle   5 NSaved=   5.
 NSaved= 5 IEnMin= 5 EnMin= -79.0519179432373     IErMin= 5 ErrMin= 4.07D-04
 ErrMax= 4.07D-04  0.00D+00 EMaxC= 1.00D-01 BMatC= 1.96D-05 BMatP= 1.04D-04
 IDIUse=3 WtCom= 9.96D-01 WtEn= 4.07D-03
 Coeff-Com:  0.746D-04-0.167D-01-0.175D-01 0.269D+00 0.765D+00
 Coeff-En:   0.000D+00 0.000D+00 0.000D+00 0.000D+00 0.100D+01
 Coeff:      0.743D-04-0.166D-01-0.174D-01 0.268D+00 0.766D+00
 Gap=     0.340 Goal=   None    Shift=    0.000
 Gap=     0.343 Goal=   None    Shift=    0.000
 RMSDP=7.03D-05 MaxDP=1.19D-03 DE=-3.00D-05 OVMax= 1.17D-03

 Cycle   6  Pass 0  IDiag  1:
 E= -79.0519246827630     Delta-E=       -0.000006739526 Rises=F Damp=F
 DIIS: error= 1.06D-04 at cycle   6 NSaved=   6.
 NSaved= 6 IEnMin= 6 EnMin= -79.0519246827630     IErMin= 6 ErrMin= 1.06D-04
 ErrMax= 1.06D-04  0.00D+00 EMaxC= 1.00D-01 BMatC= 1.32D-06 BMatP= 1.96D-05
 IDIUse=3 WtCom= 9.99D-01 WtEn= 1.06D-03
 Coeff-Com:  0.112D-04 0.340D-02-0.464D-01-0.120D+00 0.421D-01 0.112D+01
 Coeff-En:   0.000D+00 0.000D+00 0.000D+00 0.000D+00 0.000D+00 0.100D+01
 Coeff:      0.111D-04 0.339D-02-0.464D-01-0.120D+00 0.421D-01 0.112D+01
 Gap=     0.340 Goal=   None    Shift=    0.000
 Gap=     0.344 Goal=   None    Shift=    0.000
 RMSDP=3.15D-05 MaxDP=4.16D-04 DE=-6.74D-06 OVMax= 4.53D-04

 Cycle   7  Pass 0  IDiag  1:
 E= -79.0519254855490     Delta-E=       -0.000000802786 Rises=F Damp=F
 DIIS: error= 1.28D-05 at cycle   7 NSaved=   7.
 NSaved= 7 IEnMin= 7 EnMin= -79.0519254855490     IErMin= 7 ErrMin= 1.28D-05
 ErrMax= 1.28D-05  0.00D+00 EMaxC= 1.00D-01 BMatC= 2.03D-08 BMatP= 1.32D-06
 IDIUse=1 WtCom= 1.00D+00 WtEn= 0.00D+00
 Coeff-Com:  0.250D-04-0.417D-04 0.873D-02 0.137D-01-0.291D-01-0.223D+00
 Coeff-Com:  0.123D+01
 Coeff:      0.250D-04-0.417D-04 0.873D-02 0.137D-01-0.291D-01-0.223D+00
 Coeff:      0.123D+01
 Gap=     0.340 Goal=   None    Shift=    0.000
 Gap=     0.344 Goal=   None    Shift=    0.000
 RMSDP=5.28D-06 MaxDP=5.83D-05 DE=-8.03D-07 OVMax= 7.37D-05

 Initial convergence to 1.0D-05 achieved.  Increase integral accuracy.
 Cycle   8  Pass 1  IDiag  1:
 E= -79.0519249659225     Delta-E=        0.000000519627 Rises=F Damp=F
 DIIS: error= 1.88D-06 at cycle   1 NSaved=   1.
 NSaved= 1 IEnMin= 1 EnMin= -79.0519249659225     IErMin= 1 ErrMin= 1.88D-06
 ErrMax= 1.88D-06  0.00D+00 EMaxC= 1.00D-01 BMatC= 8.80D-10 BMatP= 8.80D-10
 IDIUse=1 WtCom= 1.00D+00 WtEn= 0.00D+00
 Coeff-Com:  0.100D+01
 Coeff:      0.100D+01
 Gap=     0.340 Goal=   None    Shift=    0.000
 Gap=     0.344 Goal=   None    Shift=    0.000
 RMSDP=5.28D-06 MaxDP=5.83D-05 DE= 5.20D-07 OVMax= 1.07D-05

 Cycle   9  Pass 1  IDiag  1:
 E= -79.0519249663998     Delta-E=       -0.000000000477 Rises=F Damp=F
 DIIS: error= 1.33D-06 at cycle   2 NSaved=   2.
 NSaved= 2 IEnMin= 2 EnMin= -79.0519249663998     IErMin= 2 ErrMin= 1.33D-06
 ErrMax= 1.33D-06  0.00D+00 EMaxC= 1.00D-01 BMatC= 1.62D-10 BMatP= 8.80D-10
 IDIUse=1 WtCom= 1.00D+00 WtEn= 0.00D+00
 Coeff-Com:  0.123D+00 0.877D+00
 Coeff:      0.123D+00 0.877D+00
 Gap=     0.340 Goal=   None    Shift=    0.000
 Gap=     0.344 Goal=   None    Shift=    0.000
 RMSDP=2.74D-07 MaxDP=3.39D-06 DE=-4.77D-10 OVMax= 5.16D-06

 Cycle  10  Pass 1  IDiag  1:
 E= -79.0519249664698     Delta-E=       -0.000000000070 Rises=F Damp=F
 DIIS: error= 8.33D-07 at cycle   3 NSaved=   3.
 NSaved= 3 IEnMin= 3 EnMin= -79.0519249664698     IErMin= 3 ErrMin= 8.33D-07
 ErrMax= 8.33D-07  0.00D+00 EMaxC= 1.00D-01 BMatC= 5.62D-11 BMatP= 1.62D-10
 IDIUse=1 WtCom= 1.00D+00 WtEn= 0.00D+00
 Coeff-Com: -0.127D+00 0.275D+00 0.852D+00
 Coeff:     -0.127D+00 0.275D+00 0.852D+00
 Gap=     0.340 Goal=   None    Shift=    0.000
 Gap=     0.344 Goal=   None    Shift=    0.000
 RMSDP=1.68D-07 MaxDP=2.23D-06 DE=-7.00D-11 OVMax= 2.38D-06

 Cycle  11  Pass 1  IDiag  1:
 E= -79.0519249664933     Delta-E=       -0.000000000023 Rises=F Damp=F
 DIIS: error= 3.26D-07 at cycle   4 NSaved=   4.
 NSaved= 4 IEnMin= 4 EnMin= -79.0519249664933     IErMin= 4 ErrMin= 3.26D-07
 ErrMax= 3.26D-07  0.00D+00 EMaxC= 1.00D-01 BMatC= 8.93D-12 BMatP= 5.62D-11
 IDIUse=1 WtCom= 1.00D+00 WtEn= 0.00D+00
 Coeff-Com: -0.729D-01-0.498D-01 0.300D+00 0.823D+00
 Coeff:     -0.729D-01-0.498D-01 0.300D+00 0.823D+00
 Gap=     0.340 Goal=   None    Shift=    0.000
 Gap=     0.344 Goal=   None    Shift=    0.000
 RMSDP=6.97D-08 MaxDP=8.60D-07 DE=-2.34D-11 OVMax= 1.09D-06

 Cycle  12  Pass 1  IDiag  1:
 E= -79.0519249664968     Delta-E=       -0.000000000004 Rises=F Damp=F
 DIIS: error= 7.71D-08 at cycle   5 NSaved=   5.
 NSaved= 5 IEnMin= 5 EnMin= -79.0519249664968     IErMin= 5 ErrMin= 7.71D-08
 ErrMax= 7.71D-08  0.00D+00 EMaxC= 1.00D-01 BMatC= 3.80D-13 BMatP= 8.93D-12
 IDIUse=1 WtCom= 1.00D+00 WtEn= 0.00D+00
 Coeff-Com:  0.668D-02-0.309D-01-0.583D-01 0.845D-01 0.998D+00
 Coeff:      0.668D-02-0.309D-01-0.583D-01 0.845D-01 0.998D+00
 Gap=     0.340 Goal=   None    Shift=    0.000
 Gap=     0.344 Goal=   None    Shift=    0.000
 RMSDP=1.65D-08 MaxDP=2.08D-07 DE=-3.60D-12 OVMax= 2.83D-07

 Cycle  13  Pass 1  IDiag  1:
 E= -79.0519249664975     Delta-E=       -0.000000000001 Rises=F Damp=F
 DIIS: error= 1.65D-08 at cycle   6 NSaved=   6.
 NSaved= 6 IEnMin= 6 EnMin= -79.0519249664975     IErMin= 6 ErrMin= 1.65D-08
 ErrMax= 1.65D-08  0.00D+00 EMaxC= 1.00D-01 BMatC= 2.43D-14 BMatP= 3.80D-13
 IDIUse=1 WtCom= 1.00D+00 WtEn= 0.00D+00
 Coeff-Com:  0.596D-02-0.329D-02-0.273D-01-0.369D-01 0.162D+00 0.900D+00
 Coeff:      0.596D-02-0.329D-02-0.273D-01-0.369D-01 0.162D+00 0.900D+00
 Gap=     0.340 Goal=   None    Shift=    0.000
 Gap=     0.344 Goal=   None    Shift=    0.000
 RMSDP=3.67D-09 MaxDP=4.49D-08 DE=-6.39D-13 OVMax= 4.91D-08

 SCF Done:  E(UPBE1PBE) =  -79.0519249665     A.U. after   13 cycles
            NFock= 13  Conv=0.37D-08     -V/T= 2.0052
 <Sx>= 0.0000 <Sy>= 0.0000 <Sz>= 0.5000 <S**2>= 0.7547 S= 0.5023
 <L.S>= 0.000000000000E+00
 KE= 7.864498517899D+01 PE=-2.567885700007D+02 EE= 6.211229942793D+01
 Annihilation of the first spin contaminant:
 S**2 before annihilation     0.7547,   after     0.7500
 Leave Link  502 at Wed Oct  7 14:29:16 2020, MaxMem=  2684354560 cpu:              24.9 elap:               2.6
 (Enter /udrive/faculty/rpeverati/g16/g16/l508.exe)
 QCSCF skips out because SCF is already converged.
 Leave Link  508 at Wed Oct  7 14:29:16 2020, MaxMem=  2684354560 cpu:               0.3 elap:               0.4
 (Enter /udrive/faculty/rpeverati/g16/g16/l601.exe)
 Copying SCF densities to generalized density rwf, IOpCl= 1 IROHF=0.

 **********************************************************************

            Population analysis using the SCF density.

 **********************************************************************

 Orbital symmetries:
 Alpha Orbitals:
       Occupied  (A) (A) (A) (A) (A) (A) (A) (A) (A)
       Virtual   (A) (A) (A) (A) (A) (A) (A) (A) (A) (A) (A) (A)
                 (A) (A) (A) (A) (A) (A) (A) (A) (A) (A) (A) (A)
                 (A) (A) (A) (A) (A)
 Beta  Orbitals:
       Occupied  (A) (A) (A) (A) (A) (A) (A) (A)
       Virtual   (A) (A) (A) (A) (A) (A) (A) (A) (A) (A) (A) (A)
                 (A) (A) (A) (A) (A) (A) (A) (A) (A) (A) (A) (A)
                 (A) (A) (A) (A) (A) (A)
 The electronic state is 2-A.
 Alpha  occ. eigenvalues --  -10.22592 -10.21502  -0.77500  -0.62457  -0.46030
 Alpha  occ. eigenvalues --   -0.42324  -0.39771  -0.36475  -0.20989
 Alpha virt. eigenvalues --    0.13030   0.15497   0.16283   0.19212   0.23582
 Alpha virt. eigenvalues --    0.26971   0.52936   0.55558   0.57069   0.63193
 Alpha virt. eigenvalues --    0.63710   0.76129   0.81878   0.89989   0.90542
 Alpha virt. eigenvalues --    0.97336   0.97836   0.99423   1.29508   1.47137
 Alpha virt. eigenvalues --    1.65756   1.77303   1.94117   2.01010   2.17431
 Alpha virt. eigenvalues --    2.20554   2.34815   2.47848   2.61260
  Beta  occ. eigenvalues --  -10.21614 -10.21030  -0.75600  -0.59680  -0.45313
  Beta  occ. eigenvalues --   -0.40669  -0.38889  -0.36012
  Beta virt. eigenvalues --   -0.01651   0.13520   0.16521   0.17040   0.20033
  Beta virt. eigenvalues --    0.24076   0.27940   0.53589   0.55871   0.61718
  Beta virt. eigenvalues --    0.65720   0.67722   0.76899   0.84010   0.90620
  Beta virt. eigenvalues --    0.91027   0.97669   0.98814   1.01509   1.30617
  Beta virt. eigenvalues --    1.50089   1.72566   1.77836   1.97303   2.04531
  Beta virt. eigenvalues --    2.21012   2.22705   2.36448   2.48514   2.62657
          Condensed to atoms (all electrons):
               1          2          3          4          5          6
     1  C    5.330866   0.368116  -0.035413   0.383600  -0.046297  -0.035745
     2  C    0.368116   5.113897   0.383224  -0.037200   0.375204   0.383111
     3  H   -0.035413   0.383224   0.528840   0.003587  -0.033209  -0.026969
     4  H    0.383600  -0.037200   0.003587   0.517455   0.000501  -0.004698
     5  H   -0.046297   0.375204  -0.033209   0.000501   0.550003  -0.033430
     6  H   -0.035745   0.383111  -0.026969  -0.004698  -0.033430   0.529255
     7  H    0.383672  -0.037110  -0.004837  -0.034039   0.000623   0.003570
               7
     1  C    0.383672
     2  C   -0.037110
     3  H   -0.004837
     4  H   -0.034039
     5  H    0.000623
     6  H    0.003570
     7  H    0.517162
          Atomic-Atomic Spin Densities.
               1          2          3          4          5          6
     1  C    1.229465  -0.045261  -0.008189  -0.008705  -0.031693  -0.008799
     2  C   -0.045261  -0.078525   0.006626  -0.000270   0.016825   0.006961
     3  H   -0.008189   0.006626   0.021899  -0.000001  -0.010762   0.004059
     4  H   -0.008705  -0.000270  -0.000001  -0.051488  -0.000379   0.000718
     5  H   -0.031693   0.016825  -0.010762  -0.000379   0.099631  -0.011243
     6  H   -0.008799   0.006961   0.004059   0.000718  -0.011243   0.023862
     7  H   -0.008711  -0.000278   0.000716   0.002096  -0.000380   0.000007
               7
     1  C   -0.008711
     2  C   -0.000278
     3  H    0.000716
     4  H    0.002096
     5  H   -0.000380
     6  H    0.000007
     7  H   -0.051519
 Mulliken charges and spin densities:
               1          2
     1  C   -0.348800   1.118108
     2  C   -0.549243  -0.093922
     3  H    0.184778   0.014348
     4  H    0.170794  -0.058029
     5  H    0.186605   0.061998
     6  H    0.184907   0.015565
     7  H    0.170959  -0.058068
 Sum of Mulliken charges =   0.00000   1.00000
 Mulliken charges and spin densities with hydrogens summed into heavy atoms:
               1          2
     1  C   -0.007047   1.002010
     2  C    0.007047  -0.002010
 Electronic spatial extent (au):  <R**2>=             98.2498
 Charge=              0.0000 electrons
 Dipole moment (field-independent basis, Debye):
    X=             -0.2123    Y=             -0.0005    Z=              0.1364  Tot=              0.2524
 Quadrupole moment (field-independent basis, Debye-Ang):
   XX=            -13.8718   YY=            -13.3103   ZZ=            -14.8894
   XY=              0.0012   XZ=              0.1672   YZ=              0.0002
 Traceless Quadrupole moment (field-independent basis, Debye-Ang):
   XX=              0.1520   YY=              0.7135   ZZ=             -0.8656
   XY=              0.0012   XZ=              0.1672   YZ=              0.0002
 Octapole moment (field-independent basis, Debye-Ang**2):
  XXX=              0.3127  YYY=              0.0227  ZZZ=              0.7452  XYY=              0.5286
  XXY=              0.0024  XXZ=              0.2210  XZZ=             -1.4341  YZZ=             -0.0222
  YYZ=             -0.4624  XYZ=             -0.0002
 Hexadecapole moment (field-independent basis, Debye-Ang**3):
 XXXX=            -83.0371 YYYY=            -26.8142 ZZZZ=            -21.9105 XXXY=              0.0049
 XXXZ=              0.4915 YYYX=             -0.0271 YYYZ=              0.0008 ZZZX=             -0.4538
 ZZZY=             -0.0006 XXYY=            -16.1271 XXZZ=            -17.9404 YYZZ=             -8.4451
 XXYZ=              0.0013 YYXZ=              0.8736 ZZXY=              0.0266
 N-N= 3.697936042729D+01 E-N=-2.567885693655D+02  KE= 7.864498517899D+01
                          Isotropic Fermi Contact Couplings
        Atom                 a.u.       MegaHertz       Gauss      10(-4) cm-1
     1  C(13)              0.15970     179.53394      64.06218      59.88608
     2  C(13)             -0.03318     -37.29798     -13.30885     -12.44127
     3  H(1)               0.00756      33.81267      12.06520      11.27869
     4  H(1)              -0.01718     -76.78347     -27.39825     -25.61221
     5  H(1)               0.03168     141.59858      50.52589      47.23220
     6  H(1)               0.00822      36.73381      13.10754      12.25308
     7  H(1)              -0.01720     -76.86265     -27.42650     -25.63862
 --------------------------------------------------------
       Center         ----  Spin Dipole Couplings  ----
                      3XX-RR        3YY-RR        3ZZ-RR
 --------------------------------------------------------
     1   Atom       -0.535389     -0.532853      1.068243
     2   Atom        0.011980     -0.015478      0.003497
     3   Atom        0.012945     -0.004819     -0.008125
     4   Atom       -0.033862      0.037376     -0.003514
     5   Atom        0.012805     -0.010731     -0.002074
     6   Atom        0.013017     -0.004855     -0.008162
     7   Atom       -0.033737      0.037224     -0.003487
 --------------------------------------------------------
                        XY            XZ            YZ
 --------------------------------------------------------
     1   Atom       -0.000008     -0.056986     -0.000144
     2   Atom       -0.000012     -0.003136      0.000038
     3   Atom       -0.010149      0.003180     -0.000903
     4   Atom       -0.063904      0.001739     -0.007285
     5   Atom        0.000151     -0.009361     -0.000143
     6   Atom        0.010062      0.003399      0.001023
     7   Atom        0.064000      0.001757      0.007290
 --------------------------------------------------------


 ---------------------------------------------------------------------------------
              Anisotropic Spin Dipole Couplings in Principal Axis System
 ---------------------------------------------------------------------------------

       Atom             a.u.   MegaHertz   Gauss  10(-4) cm-1        Axes

              Baa    -0.5374   -72.116   -25.733   -24.055  0.9994  0.0028  0.0355
     1 C(13)  Bbb    -0.5329   -71.504   -25.514   -23.851 -0.0028  1.0000 -0.0000
              Bcc     1.0703   143.619    51.247    47.906 -0.0355 -0.0001  0.9994
 
              Baa    -0.0155    -2.077    -0.741    -0.693  0.0002  1.0000 -0.0020
     2 C(13)  Bbb     0.0025     0.331     0.118     0.110  0.3130  0.0018  0.9497
              Bcc     0.0130     1.746     0.623     0.583  0.9497 -0.0008 -0.3130
 
              Baa    -0.0096    -5.143    -1.835    -1.716  0.4219  0.8132 -0.4009
     3 H(1)   Bbb    -0.0083    -4.439    -1.584    -1.481  0.0624  0.4151  0.9076
              Bcc     0.0180     9.582     3.419     3.196  0.9045 -0.4079  0.1244
 
              Baa    -0.0715   -38.135   -13.608   -12.721  0.8610  0.5076  0.0324
     4 H(1)   Bbb    -0.0041    -2.183    -0.779    -0.728 -0.0736  0.0614  0.9954
              Bcc     0.0756    40.318    14.387    13.449 -0.5033  0.8594 -0.0902
 
              Baa    -0.0107    -5.727    -2.043    -1.910  0.0002  0.9999  0.0167
     5 H(1)   Bbb    -0.0066    -3.517    -1.255    -1.173  0.4347 -0.0152  0.9004
              Bcc     0.0173     9.243     3.298     3.083  0.9006  0.0071 -0.4346
 
              Baa    -0.0096    -5.118    -1.826    -1.707 -0.4205  0.8011  0.4259
     6 H(1)   Bbb    -0.0084    -4.492    -1.603    -1.498  0.0653 -0.4415  0.8949
              Bcc     0.0180     9.610     3.429     3.206  0.9049  0.4042  0.1333
 
              Baa    -0.0715   -38.151   -13.613   -12.726  0.8604 -0.5086  0.0323
     7 H(1)   Bbb    -0.0041    -2.170    -0.774    -0.724 -0.0737 -0.0615  0.9954
              Bcc     0.0756    40.321    14.388    13.450  0.5043  0.8588  0.0904
 

 ---------------------------------------------------------------------------------

 No NMR shielding tensors so no spin-rotation constants.
 Leave Link  601 at Wed Oct  7 14:29:17 2020, MaxMem=  2684354560 cpu:               4.7 elap:               0.8
 (Enter /udrive/faculty/rpeverati/g16/g16/l701.exe)
 ... and contract with generalized density number  0.
 Compute integral first derivatives.
 R6Disp: Adding Grimme-D3(BJ) dispersion energy 1st derivatives to the gradient.
 Leave Link  701 at Wed Oct  7 14:29:19 2020, MaxMem=  2684354560 cpu:               4.7 elap:               0.9
 (Enter /udrive/faculty/rpeverati/g16/g16/l702.exe)
 L702 exits ... SP integral derivatives will be done elsewhere.
 Leave Link  702 at Wed Oct  7 14:29:20 2020, MaxMem=  2684354560 cpu:               2.0 elap:               0.7
 (Enter /udrive/faculty/rpeverati/g16/g16/l703.exe)
 Integral derivatives from FoFJK, PRISM(SPDF).
 Compute integral first derivatives, UseDBF=F ICtDFT=           0.
 Calling FoFJK, ICntrl=      2127 FMM=F ISym2X=0 I1Cent= 0 IOpClX= 1 NMat=1 NMatS=1 NMatT=0.
 FoFJK:  IHMeth= 1 ICntrl=    2127 DoSepK=F KAlg= 0 I1Cent=           0 FoldK=F
 IRaf=         0 NMat=       1 IRICut=       1 DoRegI=T DoRafI=F ISym2E= 0 IDoP0=0 IntGTp=1.
 FoFCou: FMM=F IPFlag=           0 FMFlag=      100000 FMFlg1=         800
         NFxFlg=           0 DoJE=F BraDBF=F KetDBF=F FulRan=T
         wScrn=  0.000000 ICntrl=      2127 IOpCl=  1 I1Cent=           0 NGrid=           0
         NMat0=    1 NMatS0=      1 NMatT0=    0 NMatD0=    1 NMtDS0=    0 NMtDT0=    0
 Symmetry not used in FoFCou.
 Leave Link  703 at Wed Oct  7 14:29:21 2020, MaxMem=  2684354560 cpu:               8.0 elap:               1.1
 (Enter /udrive/faculty/rpeverati/g16/g16/l716.exe)
 Dipole        =-8.35435905D-02-1.98866373D-04 5.36766566D-02
 ***** Axes restored to original set *****
 -------------------------------------------------------------------
 Center     Atomic                   Forces (Hartrees/Bohr)
 Number     Number              X              Y              Z
 -------------------------------------------------------------------
      1        6          -0.006750156    0.000002314   -0.000623974
      2        6           0.007961592    0.000005752   -0.000194749
      3        1          -0.001711597    0.003099714   -0.001627651
      4        1           0.002035576   -0.003306485    0.000262181
      5        1          -0.001860362   -0.000042174    0.003606318
      6        1          -0.001715407   -0.003065716   -0.001700910
      7        1           0.002040353    0.003306596    0.000278786
 -------------------------------------------------------------------
 Cartesian Forces:  Max     0.007961592 RMS     0.002980796
 Leave Link  716 at Wed Oct  7 14:29:22 2020, MaxMem=  2684354560 cpu:               1.8 elap:               0.5
 (Enter /udrive/faculty/rpeverati/g16/g16/l103.exe)

 GradGradGradGradGradGradGradGradGradGradGradGradGradGradGradGradGradGrad
 Berny optimization.
 Optmz: redundant internal coordinate code flag= 1
 FormGI is forming the generalized inverse of G from B-inverse, IUseBI=4.
 Internal  Forces:  Max     0.004032599 RMS     0.002008753
 Search for a local minimum.
 Step number   1 out of a maximum of  100
 All quantities printed in internal units (Hartrees-Bohrs-Radians)
 RMS Force = .20088D-02 SwitMx=.10000D-02 MixMth= 1
 Mixed Optimization -- RFO/linear search
 Second derivative matrix not updated -- first step.
 The second derivative matrix:
                          R1        R2        R3        R4        R5
           R1           0.33434
           R2           0.00000   0.36035
           R3           0.00000   0.00000   0.36041
           R4           0.00000   0.00000   0.00000   0.34790
           R5           0.00000   0.00000   0.00000   0.00000   0.34004
           R6           0.00000   0.00000   0.00000   0.00000   0.00000
           A1           0.00000   0.00000   0.00000   0.00000   0.00000
           A2           0.00000   0.00000   0.00000   0.00000   0.00000
           A3           0.00000   0.00000   0.00000   0.00000   0.00000
           A4           0.00000   0.00000   0.00000   0.00000   0.00000
           A5           0.00000   0.00000   0.00000   0.00000   0.00000
           A6           0.00000   0.00000   0.00000   0.00000   0.00000
           A7           0.00000   0.00000   0.00000   0.00000   0.00000
           A8           0.00000   0.00000   0.00000   0.00000   0.00000
           A9           0.00000   0.00000   0.00000   0.00000   0.00000
           D1           0.00000   0.00000   0.00000   0.00000   0.00000
           D2           0.00000   0.00000   0.00000   0.00000   0.00000
           D3           0.00000   0.00000   0.00000   0.00000   0.00000
           D4           0.00000   0.00000   0.00000   0.00000   0.00000
           D5           0.00000   0.00000   0.00000   0.00000   0.00000
           D6           0.00000   0.00000   0.00000   0.00000   0.00000
                          R6        A1        A2        A3        A4
           R6           0.34771
           A1           0.00000   0.16000
           A2           0.00000   0.00000   0.16000
           A3           0.00000   0.00000   0.00000   0.16000
           A4           0.00000   0.00000   0.00000   0.00000   0.16000
           A5           0.00000   0.00000   0.00000   0.00000   0.00000
           A6           0.00000   0.00000   0.00000   0.00000   0.00000
           A7           0.00000   0.00000   0.00000   0.00000   0.00000
           A8           0.00000   0.00000   0.00000   0.00000   0.00000
           A9           0.00000   0.00000   0.00000   0.00000   0.00000
           D1           0.00000   0.00000   0.00000   0.00000   0.00000
           D2           0.00000   0.00000   0.00000   0.00000   0.00000
           D3           0.00000   0.00000   0.00000   0.00000   0.00000
           D4           0.00000   0.00000   0.00000   0.00000   0.00000
           D5           0.00000   0.00000   0.00000   0.00000   0.00000
           D6           0.00000   0.00000   0.00000   0.00000   0.00000
                          A5        A6        A7        A8        A9
           A5           0.16000
           A6           0.00000   0.16000
           A7           0.00000   0.00000   0.16000
           A8           0.00000   0.00000   0.00000   0.16000
           A9           0.00000   0.00000   0.00000   0.00000   0.16000
           D1           0.00000   0.00000   0.00000   0.00000   0.00000
           D2           0.00000   0.00000   0.00000   0.00000   0.00000
           D3           0.00000   0.00000   0.00000   0.00000   0.00000
           D4           0.00000   0.00000   0.00000   0.00000   0.00000
           D5           0.00000   0.00000   0.00000   0.00000   0.00000
           D6           0.00000   0.00000   0.00000   0.00000   0.00000
                          D1        D2        D3        D4        D5
           D1           0.00896
           D2           0.00000   0.00896
           D3           0.00000   0.00000   0.00896
           D4           0.00000   0.00000   0.00000   0.00896
           D5           0.00000   0.00000   0.00000   0.00000   0.00896
           D6           0.00000   0.00000   0.00000   0.00000   0.00000
                          D6
           D6           0.00896
 ITU=  0
 Eigenvectors of the second derivative matrix:
                           1         2         3         4         5
     Eigenvalues --     0.00896   0.00965   0.07156   0.07224   0.16000
   1         R1        -0.00000  -0.00000   0.00000  -0.00000   0.00000
   2         R2         0.00000   0.00000   0.00000  -0.00000   0.00000
   3         R3         0.00000   0.00000   0.00000   0.00000   0.00000
   4         R4        -0.00000   0.00000   0.00000   0.00000  -0.00000
   5         R5        -0.00000  -0.00000   0.00000  -0.00000  -0.00000
   6         R6        -0.00000   0.00000  -0.00000  -0.00000  -0.00000
   7         A1        -0.00000  -0.03861  -0.00000  -0.00000   0.18703
   8         A2         0.00000  -0.03861  -0.00000  -0.00000   0.38680
   9         A3         0.00000  -0.03915   0.00000   0.00000  -0.56598
  10         A4         0.00000  -0.00000   0.12005  -0.21872  -0.25061
  11         A5         0.00000   0.00000  -0.24994   0.00611   0.54992
  12         A6         0.00000  -0.00000   0.13077   0.21253  -0.10215
  13         A7         0.00000  -0.00000  -0.24426  -0.39756  -0.15940
  14         A8        -0.00000  -0.00000   0.45872  -0.01129   0.19275
  15         A9        -0.00000   0.00000  -0.22451   0.40950  -0.23847
  16         D1        -0.40825  -0.40733  -0.38794  -0.21058  -0.00000
  17         D2        -0.40825  -0.40733   0.01091   0.43997   0.00000
  18         D3        -0.40825  -0.40733   0.37703  -0.22940  -0.00000
  19         D4        -0.40825   0.40733  -0.38794  -0.21058  -0.00000
  20         D5        -0.40825   0.40733   0.01091   0.43997   0.00000
  21         D6        -0.40825   0.40733   0.37703  -0.22940  -0.00000
                           6         7         8         9        10
     Eigenvalues --     0.16000   0.16000   0.16000   0.16000   0.33434
   1         R1         0.00000  -0.00000  -0.00000  -0.00000  -1.00000
   2         R2         0.00000  -0.00000   0.00000  -0.00000  -0.00000
   3         R3         0.00000  -0.00000   0.00000  -0.00000   0.00000
   4         R4         0.00000  -0.00000   0.00000   0.00000   0.00000
   5         R5        -0.00000   0.00000  -0.00000   0.00000  -0.00000
   6         R6         0.00000  -0.00000  -0.00000   0.00000  -0.00000
   7         A1        -0.42123  -0.57138   0.03284  -0.36023   0.00000
   8         A2         0.44537   0.06524   0.23017   0.51433  -0.00000
   9         A3        -0.02381   0.49923  -0.25941  -0.15199  -0.00000
  10         A4         0.48189  -0.46534  -0.39784   0.00824   0.00000
  11         A5        -0.02197   0.30669  -0.47929  -0.21895   0.00000
  12         A6        -0.50203  -0.05626  -0.19414   0.60556  -0.00000
  13         A7        -0.24591   0.08517   0.46840   0.11240  -0.00000
  14         A8         0.01105   0.28500   0.32346  -0.33542  -0.00000
  15         A9         0.27983  -0.13337   0.35908  -0.20674  -0.00000
  16         D1         0.00000   0.00000  -0.00000   0.00000   0.00000
  17         D2        -0.00000   0.00000  -0.00000   0.00000  -0.00000
  18         D3         0.00000   0.00000  -0.00000  -0.00000   0.00000
  19         D4         0.00000  -0.00000   0.00000   0.00000  -0.00000
  20         D5        -0.00000  -0.00000   0.00000   0.00000  -0.00000
  21         D6         0.00000  -0.00000   0.00000   0.00000   0.00000
                          11        12        13        14        15
     Eigenvalues --     0.34004   0.34771   0.34790   0.36035   0.36041
   1         R1         0.00000  -0.00000  -0.00000   0.00000   0.00000
   2         R2        -0.00000   0.00000   0.00000  -1.00000   0.00000
   3         R3        -0.00000   0.00000  -0.00000   0.00000   1.00000
   4         R4         0.00000  -0.00000  -1.00000  -0.00000  -0.00000
   5         R5        -1.00000   0.00000  -0.00000   0.00000  -0.00000
   6         R6         0.00000   1.00000  -0.00000   0.00000  -0.00000
   7         A1        -0.00000  -0.00000  -0.00000   0.00000  -0.00000
   8         A2        -0.00000  -0.00000  -0.00000   0.00000   0.00000
   9         A3         0.00000  -0.00000   0.00000  -0.00000   0.00000
  10         A4        -0.00000  -0.00000   0.00000  -0.00000   0.00000
  11         A5         0.00000   0.00000  -0.00000  -0.00000   0.00000
  12         A6         0.00000  -0.00000   0.00000  -0.00000   0.00000
  13         A7         0.00000   0.00000   0.00000   0.00000  -0.00000
  14         A8         0.00000   0.00000  -0.00000   0.00000  -0.00000
  15         A9        -0.00000   0.00000   0.00000  -0.00000  -0.00000
  16         D1         0.00000  -0.00000   0.00000   0.00000   0.00000
  17         D2         0.00000   0.00000   0.00000  -0.00000   0.00000
  18         D3         0.00000   0.00000   0.00000   0.00000   0.00000
  19         D4         0.00000  -0.00000   0.00000   0.00000  -0.00000
  20         D5         0.00000   0.00000   0.00000  -0.00000  -0.00000
  21         D6         0.00000  -0.00000   0.00000   0.00000  -0.00000
 Iter=   1 RLamda= 0.00000000D+00 Sum=-2.45080252D-04.
 Iter=   2 RLamda=-2.45080252D-04 Sum=-2.44903328D-04.
 Iter=   3 RLamda=-2.44903328D-04 Sum=-2.44903455D-04.
 RFO step:  Lambda=-2.44903328D-04 EMin= 8.96386027D-03
 Linear search not attempted -- first point.
 Iteration  1 RMS(Cart)=  0.00484884 RMS(Int)=  0.00000589
 Iteration  2 RMS(Cart)=  0.00000667 RMS(Int)=  0.00000109
 Iteration  3 RMS(Cart)=  0.00000000 RMS(Int)=  0.00000109
 ITry= 1 IFail=0 DXMaxC= 9.23D-03 DCOld= 1.00D+10 DXMaxT= 3.00D-01 DXLimC= 3.00D+00 Rises=F
 Variable       Old X    -DE/DX   Delta X   Delta X   Delta X     New X
                                 (Linear)    (Quad)   (Total)
    R1        2.81596  -0.00267   0.00000  -0.00799  -0.00799   2.80797
    R2        2.04027   0.00389   0.00000   0.01079   0.01079   2.05106
    R3        2.04017   0.00390   0.00000   0.01080   0.01080   2.05097
    R4        2.06018   0.00389   0.00000   0.01116   0.01116   2.07134
    R5        2.07323   0.00403   0.00000   0.01185   0.01185   2.08509
    R6        2.06049   0.00389   0.00000   0.01119   0.01119   2.07168
    A1        2.10839   0.00003   0.00000   0.00013   0.00013   2.10853
    A2        2.10918   0.00003   0.00000   0.00012   0.00012   2.10930
    A3        2.05345  -0.00006   0.00000  -0.00045  -0.00046   2.05300
    A4        1.94747   0.00022   0.00000   0.00135   0.00135   1.94882
    A5        1.94960   0.00053   0.00000   0.00334   0.00334   1.95293
    A6        1.94731   0.00022   0.00000   0.00136   0.00136   1.94867
    A7        1.86363  -0.00039   0.00000  -0.00238  -0.00238   1.86124
    A8        1.88862  -0.00026   0.00000  -0.00173  -0.00173   1.88689
    A9        1.86278  -0.00039   0.00000  -0.00237  -0.00238   1.86040
    D1       -2.72632   0.00001   0.00000  -0.00007  -0.00007  -2.72639
    D2        1.47219  -0.00000   0.00000  -0.00022  -0.00022   1.47197
    D3       -0.61129  -0.00001   0.00000  -0.00039  -0.00039  -0.61167
    D4        0.58613   0.00002   0.00000   0.00138   0.00138   0.58750
    D5       -1.49854   0.00001   0.00000   0.00122   0.00122  -1.49732
    D6        2.70116  -0.00000   0.00000   0.00105   0.00105   2.70222
         Item               Value     Threshold  Converged?
 Maximum Force            0.004033     0.000450     NO 
 RMS     Force            0.002009     0.000300     NO 
 Maximum Displacement     0.009233     0.001800     NO 
 RMS     Displacement     0.004847     0.001200     NO 
 Predicted change in Energy=-1.225401D-04
 Lowest energy point so far.  Saving SCF results.
 Largest change from initial coordinates is atom    5       0.005 Angstoms.
 GradGradGradGradGradGradGradGradGradGradGradGradGradGradGradGradGradGrad

 Leave Link  103 at Wed Oct  7 14:29:23 2020, MaxMem=  2684354560 cpu:               3.8 elap:               0.8
 (Enter /udrive/faculty/rpeverati/g16/g16/l202.exe)
                          Input orientation:                          
 ---------------------------------------------------------------------
 Center     Atomic      Atomic             Coordinates (Angstroms)
 Number     Number       Type             X           Y           Z
 ---------------------------------------------------------------------
      1          6           0        0.793131    0.000019   -0.023087
      2          6           0       -0.692607    0.000168   -0.000349
      3          1           0       -1.104509    0.893768   -0.483329
      4          1           0        1.350108   -0.928813    0.048209
      5          1           0       -1.088350   -0.013206    1.029532
      6          1           0       -1.104947   -0.881019   -0.505649
      7          1           0        1.351007    0.928202    0.048952
 ---------------------------------------------------------------------
                    Distance matrix (angstroms):
                    1          2          3          4          5
     1  C    0.000000
     2  C    1.485912   0.000000
     3  H    2.147474   1.096108   0.000000
     4  H    1.085374   2.244560   3.103140   0.000000
     5  H    2.155957   1.103380   1.763975   2.783417   0.000000
     6  H    2.147509   1.096285   1.774927   2.517208   1.763563
     7  H    1.085329   2.245003   2.512780   1.857016   2.792535
                    6          7
     6  H    0.000000
     7  H    3.100415   0.000000
 Stoichiometry    C2H5(2)
 Framework group  C1[X(C2H5)]
 Deg. of freedom    15
 Full point group                 C1      NOp   1
 RotChk:  IX=0 Diff= 7.44D-04
 Largest Abelian subgroup         C1      NOp   1
 Largest concise Abelian subgroup C1      NOp   1
                         Standard orientation:                         
 ---------------------------------------------------------------------
 Center     Atomic      Atomic             Coordinates (Angstroms)
 Number     Number       Type             X           Y           Z
 ---------------------------------------------------------------------
      1          6           0        0.792761    0.000003   -0.022588
      2          6           0       -0.692987    0.000170   -0.000466
      3          1           0       -1.104681    0.893616   -0.483905
      4          1           0        1.349702   -0.928811    0.049239
      5          1           0       -1.089157   -0.012868    1.029255
      6          1           0       -1.105123   -0.881178   -0.505651
      7          1           0        1.350614    0.928205    0.049382
 ---------------------------------------------------------------------
 Rotational constants (GHZ):         103.2137585          22.7703414          21.1025570
 Leave Link  202 at Wed Oct  7 14:29:24 2020, MaxMem=  2684354560 cpu:               1.9 elap:               0.6
 (Enter /udrive/faculty/rpeverati/g16/g16/l301.exe)
 Standard basis: 6-31G(d) (5D, 7F)
 Ernie: Thresh=  0.10000D-02 Tol=  0.10000D-05 Strict=F.
 There are    40 symmetry adapted cartesian basis functions of A   symmetry.
 There are    38 symmetry adapted basis functions of A   symmetry.
    38 basis functions,    76 primitive gaussians,    40 cartesian basis functions
     9 alpha electrons        8 beta electrons
       nuclear repulsion energy        36.9251981116 Hartrees.
 IExCor= 1009 DFT=T Ex+Corr=PBE1PBE ExCW=0 ScaHFX=  0.250000
 ScaDFX=  0.750000  0.750000  1.000000  1.000000 ScalE2=  1.000000  1.000000
 IRadAn=      5 IRanWt=     -1 IRanGd=            0 ICorTp=0 IEmpDi=141
 NAtoms=    7 NActive=    7 NUniq=    7 SFac= 1.00D+00 NAtFMM=   60 NAOKFM=F Big=F
 Integral buffers will be    131072 words long.
 Raffenetti 2 integral format.
 Two-electron integral symmetry is turned on.
 R6Disp:  Grimme-D3(BJ) Dispersion energy=       -0.0022574951 Hartrees.
 Nuclear repulsion after empirical dispersion term =       36.9229406165 Hartrees.
 Leave Link  301 at Wed Oct  7 14:29:25 2020, MaxMem=  2684354560 cpu:               1.9 elap:               0.5
 (Enter /udrive/faculty/rpeverati/g16/g16/l302.exe)
 NPDir=0 NMtPBC=     1 NCelOv=     1 NCel=       1 NClECP=     1 NCelD=      1
         NCelK=      1 NCelE2=     1 NClLst=     1 CellRange=     0.0.
 One-electron integrals computed using PRISM.
 One-electron integral symmetry used in STVInt
 NBasis=    38 RedAO= T EigKep=  1.05D-02  NBF=    38
 NBsUse=    38 1.00D-06 EigRej= -1.00D+00 NBFU=    38
 Precomputing XC quadrature grid using
 IXCGrd= 4 IRadAn=           5 IRanWt=          -1 IRanGd=           0 AccXCQ= 0.00D+00.
 Generated NRdTot=       0 NPtTot=           0 NUsed=           0 NTot=          32
 NSgBfM=    40    40    40    40    40 MxSgAt=     7 MxSgA2=     7.
 Leave Link  302 at Wed Oct  7 14:29:26 2020, MaxMem=  2684354560 cpu:               3.7 elap:               0.8
 (Enter /udrive/faculty/rpeverati/g16/g16/l303.exe)
 DipDrv:  MaxL=1.
 Leave Link  303 at Wed Oct  7 14:29:26 2020, MaxMem=  2684354560 cpu:               1.8 elap:               0.5
 (Enter /udrive/faculty/rpeverati/g16/g16/l401.exe)
 Initial guess from the checkpoint file:  "MN_14_C2H5_upper_BH76_PBE0DBJ_631Gs.chk"
 SCF N**3 symmetry information disabled.
 B after Tr=     0.000000   -0.000000    0.000000
         Rot=    1.000000    0.000162    0.000101    0.000003 Ang=   0.02 deg.
 Guess basis will be translated and rotated to current coordinates.
 JPrj=2 DoOrth=T DoCkMO=T.
 Initial guess <Sx>= 0.0000 <Sy>= 0.0000 <Sz>= 0.5000 <S**2>= 0.7547 S= 0.5024
 Leave Link  401 at Wed Oct  7 14:29:28 2020, MaxMem=  2684354560 cpu:               5.1 elap:               1.0
 (Enter /udrive/faculty/rpeverati/g16/g16/l502.exe)
 Keep R1 and R2 ints in memory in canonical form, NReq=10906541.
 FoFCou: FMM=F IPFlag=           0 FMFlag=           0 FMFlg1=           0
         NFxFlg=           0 DoJE=F BraDBF=F KetDBF=F FulRan=T
         wScrn=  0.000000 ICntrl=       600 IOpCl=  0 I1Cent=           0 NGrid=           0
         NMat0=    1 NMatS0=    741 NMatT0=    0 NMatD0=    1 NMtDS0=    0 NMtDT0=    0
 Symmetry not used in FoFCou.
 Two-electron integral symmetry not used.
 UHF open shell SCF:
 Using DIIS extrapolation, IDIIS=  1040.
 NGot=  2684354560 LenX=  2683800373 LenY=  2683798332
 Requested convergence on RMS density matrix=1.00D-08 within 120 cycles.
 Requested convergence on MAX density matrix=1.00D-06.
 Requested convergence on             energy=1.00D-06.
 No special actions if energy rises.

 Cycle   1  Pass 1  IDiag  1:
 E= -79.0520164872419    
 DIIS: error= 9.04D-04 at cycle   1 NSaved=   1.
 NSaved= 1 IEnMin= 1 EnMin= -79.0520164872419     IErMin= 1 ErrMin= 9.04D-04
 ErrMax= 9.04D-04  0.00D+00 EMaxC= 1.00D-01 BMatC= 8.72D-05 BMatP= 8.72D-05
 IDIUse=3 WtCom= 9.91D-01 WtEn= 9.04D-03
 Coeff-Com:  0.100D+01
 Coeff-En:   0.100D+01
 Coeff:      0.100D+01
 Gap=     0.545 Goal=   None    Shift=    0.000
 Gap=     0.690 Goal=   None    Shift=    0.000
 RMSDP=2.03D-04 MaxDP=1.94D-03              OVMax= 2.58D-03

 Cycle   2  Pass 1  IDiag  1:
 E= -79.0520434340338     Delta-E=       -0.000026946792 Rises=F Damp=F
 DIIS: error= 6.10D-04 at cycle   2 NSaved=   2.
 NSaved= 2 IEnMin= 2 EnMin= -79.0520434340338     IErMin= 2 ErrMin= 6.10D-04
 ErrMax= 6.10D-04  0.00D+00 EMaxC= 1.00D-01 BMatC= 2.97D-05 BMatP= 8.72D-05
 IDIUse=3 WtCom= 9.94D-01 WtEn= 6.10D-03
 Coeff-Com:  0.331D+00 0.669D+00
 Coeff-En:   0.000D+00 0.100D+01
 Coeff:      0.329D+00 0.671D+00
 Gap=     0.339 Goal=   None    Shift=    0.000
 Gap=     0.342 Goal=   None    Shift=    0.000
 RMSDP=8.41D-05 MaxDP=8.99D-04 DE=-2.69D-05 OVMax= 1.12D-03

 Cycle   3  Pass 1  IDiag  1:
 E= -79.0520503436630     Delta-E=       -0.000006909629 Rises=F Damp=F
 DIIS: error= 2.07D-04 at cycle   3 NSaved=   3.
 NSaved= 3 IEnMin= 3 EnMin= -79.0520503436630     IErMin= 3 ErrMin= 2.07D-04
 ErrMax= 2.07D-04  0.00D+00 EMaxC= 1.00D-01 BMatC= 4.18D-06 BMatP= 2.97D-05
 IDIUse=3 WtCom= 9.98D-01 WtEn= 2.07D-03
 Coeff-Com:  0.229D-01 0.269D+00 0.708D+00
 Coeff-En:   0.000D+00 0.132D-01 0.987D+00
 Coeff:      0.229D-01 0.269D+00 0.708D+00
 Gap=     0.339 Goal=   None    Shift=    0.000
 Gap=     0.342 Goal=   None    Shift=    0.000
 RMSDP=2.32D-05 MaxDP=3.20D-04 DE=-6.91D-06 OVMax= 3.53D-04

 Cycle   4  Pass 1  IDiag  1:
 E= -79.0520514278973     Delta-E=       -0.000001084234 Rises=F Damp=F
 DIIS: error= 2.36D-05 at cycle   4 NSaved=   4.
 NSaved= 4 IEnMin= 4 EnMin= -79.0520514278973     IErMin= 4 ErrMin= 2.36D-05
 ErrMax= 2.36D-05  0.00D+00 EMaxC= 1.00D-01 BMatC= 6.24D-08 BMatP= 4.18D-06
 IDIUse=1 WtCom= 1.00D+00 WtEn= 0.00D+00
 Coeff-Com: -0.710D-02 0.255D-01 0.141D+00 0.841D+00
 Coeff:     -0.710D-02 0.255D-01 0.141D+00 0.841D+00
 Gap=     0.339 Goal=   None    Shift=    0.000
 Gap=     0.342 Goal=   None    Shift=    0.000
 RMSDP=5.05D-06 MaxDP=4.83D-05 DE=-1.08D-06 OVMax= 7.23D-05

 Cycle   5  Pass 1  IDiag  1:
 E= -79.0520514477399     Delta-E=       -0.000000019843 Rises=F Damp=F
 DIIS: error= 6.15D-06 at cycle   5 NSaved=   5.
 NSaved= 5 IEnMin= 5 EnMin= -79.0520514477399     IErMin= 5 ErrMin= 6.15D-06
 ErrMax= 6.15D-06  0.00D+00 EMaxC= 1.00D-01 BMatC= 6.00D-09 BMatP= 6.24D-08
 IDIUse=1 WtCom= 1.00D+00 WtEn= 0.00D+00
 Coeff-Com: -0.218D-02-0.248D-02 0.857D-02 0.201D+00 0.795D+00
 Coeff:     -0.218D-02-0.248D-02 0.857D-02 0.201D+00 0.795D+00
 Gap=     0.339 Goal=   None    Shift=    0.000
 Gap=     0.342 Goal=   None    Shift=    0.000
 RMSDP=1.57D-06 MaxDP=2.34D-05 DE=-1.98D-08 OVMax= 2.86D-05

 Cycle   6  Pass 1  IDiag  1:
 E= -79.0520514499742     Delta-E=       -0.000000002234 Rises=F Damp=F
 DIIS: error= 3.23D-06 at cycle   6 NSaved=   6.
 NSaved= 6 IEnMin= 6 EnMin= -79.0520514499742     IErMin= 6 ErrMin= 3.23D-06
 ErrMax= 3.23D-06  0.00D+00 EMaxC= 1.00D-01 BMatC= 1.60D-09 BMatP= 6.00D-09
 IDIUse=1 WtCom= 1.00D+00 WtEn= 0.00D+00
 Coeff-Com:  0.933D-03-0.768D-02-0.328D-01-0.131D+00 0.271D+00 0.900D+00
 Coeff:      0.933D-03-0.768D-02-0.328D-01-0.131D+00 0.271D+00 0.900D+00
 Gap=     0.339 Goal=   None    Shift=    0.000
 Gap=     0.342 Goal=   None    Shift=    0.000
 RMSDP=1.07D-06 MaxDP=1.40D-05 DE=-2.23D-09 OVMax= 1.43D-05

 Cycle   7  Pass 1  IDiag  1:
 E= -79.0520514507008     Delta-E=       -0.000000000727 Rises=F Damp=F
 DIIS: error= 7.21D-07 at cycle   7 NSaved=   7.
 NSaved= 7 IEnMin= 7 EnMin= -79.0520514507008     IErMin= 7 ErrMin= 7.21D-07
 ErrMax= 7.21D-07  0.00D+00 EMaxC= 1.00D-01 BMatC= 5.34D-11 BMatP= 1.60D-09
 IDIUse=1 WtCom= 1.00D+00 WtEn= 0.00D+00
 Coeff-Com:  0.173D-03 0.109D-02 0.278D-02-0.111D-01-0.106D+00-0.408D-01
 Coeff-Com:  0.115D+01
 Coeff:      0.173D-03 0.109D-02 0.278D-02-0.111D-01-0.106D+00-0.408D-01
 Coeff:      0.115D+01
 Gap=     0.339 Goal=   None    Shift=    0.000
 Gap=     0.342 Goal=   None    Shift=    0.000
 RMSDP=2.65D-07 MaxDP=3.00D-06 DE=-7.27D-10 OVMax= 4.98D-06

 Cycle   8  Pass 1  IDiag  1:
 E= -79.0520514507382     Delta-E=       -0.000000000037 Rises=F Damp=F
 DIIS: error= 8.25D-08 at cycle   8 NSaved=   8.
 NSaved= 8 IEnMin= 8 EnMin= -79.0520514507382     IErMin= 8 ErrMin= 8.25D-08
 ErrMax= 8.25D-08  0.00D+00 EMaxC= 1.00D-01 BMatC= 1.43D-12 BMatP= 5.34D-11
 IDIUse=1 WtCom= 1.00D+00 WtEn= 0.00D+00
 Coeff-Com: -0.263D-04 0.231D-03 0.918D-03 0.337D-02-0.824D-02-0.226D-01
 Coeff-Com:  0.476D-05 0.103D+01
 Coeff:     -0.263D-04 0.231D-03 0.918D-03 0.337D-02-0.824D-02-0.226D-01
 Coeff:      0.476D-05 0.103D+01
 Gap=     0.339 Goal=   None    Shift=    0.000
 Gap=     0.342 Goal=   None    Shift=    0.000
 RMSDP=3.94D-08 MaxDP=5.25D-07 DE=-3.73D-11 OVMax= 4.21D-07

 Cycle   9  Pass 1  IDiag  1:
 E= -79.0520514507391     Delta-E=       -0.000000000001 Rises=F Damp=F
 DIIS: error= 3.63D-08 at cycle   9 NSaved=   9.
 NSaved= 9 IEnMin= 9 EnMin= -79.0520514507391     IErMin= 9 ErrMin= 3.63D-08
 ErrMax= 3.63D-08  0.00D+00 EMaxC= 1.00D-01 BMatC= 2.00D-13 BMatP= 1.43D-12
 IDIUse=1 WtCom= 1.00D+00 WtEn= 0.00D+00
 Coeff-Com: -0.215D-04-0.779D-04-0.167D-03 0.162D-02 0.955D-02 0.164D-02
 Coeff-Com: -0.116D+00 0.137D+00 0.966D+00
 Coeff:     -0.215D-04-0.779D-04-0.167D-03 0.162D-02 0.955D-02 0.164D-02
 Coeff:     -0.116D+00 0.137D+00 0.966D+00
 Gap=     0.339 Goal=   None    Shift=    0.000
 Gap=     0.342 Goal=   None    Shift=    0.000
 RMSDP=1.14D-08 MaxDP=1.18D-07 DE=-9.38D-13 OVMax= 1.46D-07

 Cycle  10  Pass 1  IDiag  1:
 E= -79.0520514507392     Delta-E=       -0.000000000000 Rises=F Damp=F
 DIIS: error= 6.24D-09 at cycle  10 NSaved=  10.
 NSaved=10 IEnMin=10 EnMin= -79.0520514507392     IErMin=10 ErrMin= 6.24D-09
 ErrMax= 6.24D-09  0.00D+00 EMaxC= 1.00D-01 BMatC= 8.59D-15 BMatP= 2.00D-13
 IDIUse=1 WtCom= 1.00D+00 WtEn= 0.00D+00
 Coeff-Com:  0.313D-05-0.111D-04-0.483D-04-0.296D-03-0.724D-04 0.101D-02
 Coeff-Com:  0.770D-02-0.752D-01-0.479D-01 0.111D+01
 Coeff:      0.313D-05-0.111D-04-0.483D-04-0.296D-03-0.724D-04 0.101D-02
 Coeff:      0.770D-02-0.752D-01-0.479D-01 0.111D+01
 Gap=     0.339 Goal=   None    Shift=    0.000
 Gap=     0.342 Goal=   None    Shift=    0.000
 RMSDP=3.86D-09 MaxDP=4.95D-08 DE=-2.84D-14 OVMax= 4.55D-08

 SCF Done:  E(UPBE1PBE) =  -79.0520514507     A.U. after   10 cycles
            NFock= 10  Conv=0.39D-08     -V/T= 2.0056
 <Sx>= 0.0000 <Sy>= 0.0000 <Sz>= 0.5000 <S**2>= 0.7547 S= 0.5024
 <L.S>= 0.000000000000E+00
 KE= 7.861178504444D+01 PE=-2.566507022466D+02 EE= 6.206392513485D+01
 Annihilation of the first spin contaminant:
 S**2 before annihilation     0.7547,   after     0.7500
 Leave Link  502 at Wed Oct  7 14:29:30 2020, MaxMem=  2684354560 cpu:              24.2 elap:               2.3
 (Enter /udrive/faculty/rpeverati/g16/g16/l508.exe)
 QCSCF skips out because SCF is already converged.
 Leave Link  508 at Wed Oct  7 14:29:31 2020, MaxMem=  2684354560 cpu:               0.2 elap:               0.3
 (Enter /udrive/faculty/rpeverati/g16/g16/l701.exe)
 ... and contract with generalized density number  0.
 Compute integral first derivatives.
 R6Disp: Adding Grimme-D3(BJ) dispersion energy 1st derivatives to the gradient.
 Leave Link  701 at Wed Oct  7 14:29:32 2020, MaxMem=  2684354560 cpu:               3.6 elap:               0.6
 (Enter /udrive/faculty/rpeverati/g16/g16/l702.exe)
 L702 exits ... SP integral derivatives will be done elsewhere.
 Leave Link  702 at Wed Oct  7 14:29:33 2020, MaxMem=  2684354560 cpu:               1.5 elap:               0.5
 (Enter /udrive/faculty/rpeverati/g16/g16/l703.exe)
 Integral derivatives from FoFJK, PRISM(SPDF).
 Compute integral first derivatives, UseDBF=F ICtDFT=           0.
 Calling FoFJK, ICntrl=      2127 FMM=F ISym2X=0 I1Cent= 0 IOpClX= 1 NMat=1 NMatS=1 NMatT=0.
 FoFJK:  IHMeth= 1 ICntrl=    2127 DoSepK=F KAlg= 0 I1Cent=           0 FoldK=F
 IRaf=         0 NMat=       1 IRICut=       1 DoRegI=T DoRafI=F ISym2E= 0 IDoP0=0 IntGTp=1.
 FoFCou: FMM=F IPFlag=           0 FMFlag=      100000 FMFlg1=         800
         NFxFlg=           0 DoJE=F BraDBF=F KetDBF=F FulRan=T
         wScrn=  0.000000 ICntrl=      2127 IOpCl=  1 I1Cent=           0 NGrid=           0
         NMat0=    1 NMatS0=      1 NMatT0=    0 NMatD0=    1 NMtDS0=    0 NMtDT0=    0
 Symmetry not used in FoFCou.
 Leave Link  703 at Wed Oct  7 14:29:34 2020, MaxMem=  2684354560 cpu:               7.9 elap:               1.1
 (Enter /udrive/faculty/rpeverati/g16/g16/l716.exe)
 Dipole        =-8.28806110D-02-1.74449180D-04 5.35836708D-02
 ***** Axes restored to original set *****
 -------------------------------------------------------------------
 Center     Atomic                   Forces (Hartrees/Bohr)
 Number     Number              X              Y              Z
 -------------------------------------------------------------------
      1        6          -0.000828877    0.000000569   -0.000096922
      2        6           0.001627338    0.000002763   -0.000221161
      3        1          -0.000276018   -0.000043583    0.000081402
      4        1           0.000078373    0.000246550    0.000024518
      5        1          -0.000402274    0.000004146    0.000082337
      6        1          -0.000275327    0.000036964    0.000089841
      7        1           0.000076785   -0.000247409    0.000039984
 -------------------------------------------------------------------
 Cartesian Forces:  Max     0.001627338 RMS     0.000429196
 Leave Link  716 at Wed Oct  7 14:29:35 2020, MaxMem=  2684354560 cpu:               1.3 elap:               0.5
 (Enter /udrive/faculty/rpeverati/g16/g16/l103.exe)

 GradGradGradGradGradGradGradGradGradGradGradGradGradGradGradGradGradGrad
 Berny optimization.
 Optmz: redundant internal coordinate code flag= 1
 Using GEDIIS/GDIIS optimizer.
 Red2BG:  D1=  2.83D-01 OD1=  1.03D-02 B2RMS=  0.00D+00 IAprox=0
 FormGI is forming the generalized inverse of G from B-inverse, IUseBI=4.
 Internal  Forces:  Max     0.000673143 RMS     0.000242684
 Search for a local minimum.
 Step number   2 out of a maximum of  100
 All quantities printed in internal units (Hartrees-Bohrs-Radians)
 RMS Force = .24268D-03 SwitMx=.10000D-02 MixMth= 2
 Mixed Optimization -- En-DIIS/RFO-DIIS
 Update second derivatives using D2CorX and points    1    2
 DE= -1.26D-04 DEPred=-1.23D-04 R= 1.03D+00
 TightC=F SS=  1.41D+00  RLast= 2.69D-02 DXNew= 5.0454D-01 8.0569D-02
 Trust test= 1.03D+00 RLast= 2.69D-02 DXMaxT set to 3.00D-01
 The second derivative matrix:
                          R1        R2        R3        R4        R5
           R1           0.32217
           R2           0.00798   0.36854
           R3           0.00799   0.00820   0.36862
           R4           0.00968   0.00471   0.00472   0.34931
           R5           0.01163   0.00165   0.00166  -0.00160   0.33534
           R6           0.00969   0.00471   0.00472   0.00141  -0.00161
           A1           0.00109  -0.00208  -0.00208  -0.00199  -0.00199
           A2           0.00106  -0.00202  -0.00203  -0.00194  -0.00193
           A3          -0.00251   0.00463   0.00463   0.00445   0.00446
           A4           0.00271  -0.00415  -0.00415  -0.00411  -0.00423
           A5           0.00437  -0.00552  -0.00553  -0.00566  -0.00601
           A6           0.00271  -0.00414  -0.00415  -0.00410  -0.00423
           A7          -0.00377   0.00527   0.00527   0.00530   0.00554
           A8          -0.00304   0.00443   0.00444   0.00442   0.00459
           A9          -0.00375   0.00524   0.00524   0.00527   0.00551
           D1          -0.00035   0.00070   0.00070   0.00067   0.00066
           D2          -0.00013   0.00025   0.00025   0.00024   0.00024
           D3           0.00010  -0.00022  -0.00022  -0.00020  -0.00020
           D4           0.00000   0.00007   0.00007   0.00006   0.00005
           D5           0.00022  -0.00038  -0.00038  -0.00037  -0.00038
           D6           0.00045  -0.00085  -0.00085  -0.00081  -0.00081
                          R6        A1        A2        A3        A4
           R6           0.34912
           A1          -0.00200   0.16004
           A2          -0.00194   0.00004   0.16004
           A3           0.00446  -0.00008  -0.00008   0.16015
           A4          -0.00411  -0.00000   0.00000   0.00003   0.15982
           A5          -0.00567  -0.00012  -0.00012   0.00031  -0.00050
           A6          -0.00411  -0.00000  -0.00000   0.00003  -0.00018
           A7           0.00531   0.00005   0.00005  -0.00015   0.00034
           A8           0.00443   0.00002   0.00002  -0.00008   0.00024
           A9           0.00528   0.00005   0.00005  -0.00015   0.00034
           D1           0.00067  -0.00002  -0.00002   0.00003  -0.00001
           D2           0.00024  -0.00001  -0.00001   0.00001  -0.00000
           D3          -0.00020   0.00001   0.00001  -0.00001   0.00001
           D4           0.00006  -0.00001  -0.00001   0.00002  -0.00001
           D5          -0.00037   0.00000   0.00000  -0.00001  -0.00001
           D6          -0.00081   0.00002   0.00002  -0.00003  -0.00000
                          A5        A6        A7        A8        A9
           A5           0.15896
           A6          -0.00050   0.15981
           A7           0.00080   0.00035   0.15941
           A8           0.00061   0.00025  -0.00043   0.15969
           A9           0.00080   0.00035  -0.00058  -0.00043   0.15942
           D1           0.00003  -0.00001  -0.00001  -0.00000  -0.00001
           D2           0.00001  -0.00000  -0.00001  -0.00000  -0.00001
           D3          -0.00000   0.00001  -0.00000  -0.00000  -0.00000
           D4          -0.00002  -0.00001   0.00002   0.00001   0.00002
           D5          -0.00003  -0.00001   0.00002   0.00001   0.00002
           D6          -0.00005  -0.00000   0.00002   0.00001   0.00002
                          D1        D2        D3        D4        D5
           D1           0.00897
           D2           0.00000   0.00896
           D3          -0.00000  -0.00000   0.00896
           D4           0.00000   0.00000  -0.00000   0.00896
           D5          -0.00000  -0.00000   0.00000  -0.00000   0.00896
           D6          -0.00001  -0.00000   0.00000  -0.00000   0.00000
                          D6
           D6           0.00897
 ITU=  1  0
 Use linear search instead of GDIIS.
 Eigenvectors of the second derivative matrix:
                           1         2         3         4         5
     Eigenvalues --     0.00896   0.00965   0.07141   0.07195   0.15228
   1         R1         0.00048  -0.00181  -0.00171   0.00003   0.06978
   2         R2        -0.00049   0.00218   0.00257  -0.00006  -0.05564
   3         R3        -0.00049   0.00218   0.00257  -0.00006  -0.05567
   4         R4        -0.00053   0.00231   0.00263  -0.00006  -0.06531
   5         R5        -0.00060   0.00249   0.00275  -0.00006  -0.07660
   6         R6        -0.00054   0.00231   0.00263  -0.00006  -0.06547
   7         A1         0.00012  -0.03881  -0.00005   0.00001  -0.11865
   8         A2         0.00012  -0.03881  -0.00005   0.00001  -0.11530
   9         A3         0.00028  -0.03969   0.00010  -0.00002   0.23041
  10         A4        -0.00015   0.00043   0.11909  -0.21974  -0.29485
  11         A5        -0.00027   0.00089  -0.24923   0.00742  -0.50186
  12         A6        -0.00015   0.00043   0.13208   0.21226  -0.29475
  13         A7         0.00023  -0.00069  -0.24614  -0.39493   0.42647
  14         A8         0.00016  -0.00049   0.45784  -0.01368   0.32405
  15         A9         0.00023  -0.00069  -0.22226   0.40926   0.42601
  16         D1        -0.40644  -0.40909  -0.38940  -0.20889  -0.00147
  17         D2        -0.40645  -0.40910   0.01321   0.44062  -0.00066
  18         D3        -0.40645  -0.40912   0.37616  -0.23172   0.00007
  19         D4        -0.41004   0.40551  -0.38940  -0.20890   0.00048
  20         D5        -0.41004   0.40550   0.01322   0.44062   0.00129
  21         D6        -0.41005   0.40548   0.37617  -0.23173   0.00202
                           6         7         8         9        10
     Eigenvalues --     0.16000   0.16000   0.16000   0.16014   0.31308
   1         R1         0.00000  -0.00000   0.00000  -0.00520   0.86726
   2         R2        -0.00000   0.00000  -0.00000   0.00932  -0.04556
   3         R3        -0.00000   0.00000  -0.00000   0.00932  -0.04548
   4         R4        -0.00000   0.00000  -0.00000   0.00941  -0.18598
   5         R5        -0.00000   0.00000  -0.00000   0.00970  -0.39865
   6         R6        -0.00000   0.00000  -0.00000   0.00944  -0.18733
   7         A1        -0.50892  -0.28408  -0.44329   0.34471   0.01907
   8         A2         0.51376   0.51202   0.12268   0.33865   0.01858
   9         A3        -0.00477  -0.22477   0.31616  -0.67387  -0.03753
  10         A4        -0.42887   0.12681   0.59986   0.13739   0.03878
  11         A5        -0.00169   0.27127  -0.38025  -0.44595   0.05526
  12         A6         0.43159  -0.60765   0.07809   0.13151   0.03871
  13         A7         0.23141  -0.21336  -0.11887   0.16475  -0.05154
  14         A8        -0.00152   0.26333  -0.37122  -0.14702  -0.04024
  15         A9        -0.23082   0.18122   0.16138   0.16770  -0.05141
  16         D1         0.00000   0.00000  -0.00000  -0.00019  -0.00248
  17         D2         0.00000  -0.00000   0.00000  -0.00004  -0.00105
  18         D3         0.00000   0.00000  -0.00000   0.00011   0.00033
  19         D4         0.00000   0.00000  -0.00000  -0.00011   0.00032
  20         D5        -0.00000  -0.00000   0.00000   0.00004   0.00175
  21         D6        -0.00000   0.00000   0.00000   0.00019   0.00313
                          11        12        13        14        15
     Eigenvalues --     0.34028   0.34780   0.35034   0.36038   0.38615
   1         R1        -0.35412   0.00965   0.24342  -0.00071   0.24127
   2         R2         0.09156  -0.00972  -0.30890  -0.70776   0.62442
   3         R3         0.09140  -0.00968  -0.30747   0.70645   0.62664
   4         R4         0.12839  -0.68752   0.63434  -0.00101   0.26358
   5         R5        -0.90756   0.00247   0.01762  -0.00026   0.10545
   6         R6         0.13186   0.72596   0.58918  -0.00100   0.26263
   7         A1         0.00311  -0.00019  -0.00527   0.00003  -0.01722
   8         A2         0.00303  -0.00018  -0.00514   0.00003  -0.01679
   9         A3        -0.00612   0.00037   0.01039  -0.00005   0.03396
  10         A4         0.00582  -0.00035  -0.00992   0.00005  -0.03171
  11         A5         0.00761  -0.00046  -0.01303   0.00007  -0.04050
  12         A6         0.00580  -0.00035  -0.00989   0.00005  -0.03162
  13         A7        -0.00742   0.00045   0.01268  -0.00006   0.04005
  14         A8        -0.00593   0.00036   0.01011  -0.00005   0.03207
  15         A9        -0.00740   0.00045   0.01265  -0.00006   0.03994
  16         D1        -0.00047   0.00003   0.00080  -0.00000   0.00285
  17         D2        -0.00019   0.00001   0.00033  -0.00000   0.00115
  18         D3         0.00008  -0.00001  -0.00014   0.00000  -0.00051
  19         D4         0.00002  -0.00000  -0.00004   0.00000  -0.00011
  20         D5         0.00030  -0.00002  -0.00052   0.00000  -0.00181
  21         D6         0.00057  -0.00004  -0.00099   0.00001  -0.00347
 Iter=   1 RLamda= 0.00000000D+00 Sum=-6.26533671D-06.
 Iter=   2 RLamda=-6.26533671D-06 Sum=-6.26495231D-06.
 RFO step:  Lambda=-6.26533671D-06 EMin= 8.96283608D-03
 Quartic linear search produced a step of  0.04006.
 Iteration  1 RMS(Cart)=  0.00119896 RMS(Int)=  0.00000237
 Iteration  2 RMS(Cart)=  0.00000210 RMS(Int)=  0.00000128
 Iteration  3 RMS(Cart)=  0.00000000 RMS(Int)=  0.00000128
 ITry= 1 IFail=0 DXMaxC= 2.36D-03 DCOld= 1.00D+10 DXMaxT= 3.00D-01 DXLimC= 3.00D+00 Rises=F
 Variable       Old X    -DE/DX   Delta X   Delta X   Delta X     New X
                                 (Linear)    (Quad)   (Total)
    R1        2.80797  -0.00067  -0.00032  -0.00198  -0.00230   2.80566
    R2        2.05106  -0.00017   0.00043  -0.00064  -0.00021   2.05085
    R3        2.05097  -0.00017   0.00043  -0.00064  -0.00021   2.05077
    R4        2.07134   0.00003   0.00045  -0.00006   0.00039   2.07173
    R5        2.08509   0.00022   0.00047   0.00051   0.00099   2.08607
    R6        2.07168   0.00003   0.00045  -0.00006   0.00039   2.07207
    A1        2.10853   0.00013   0.00001   0.00067   0.00067   2.10920
    A2        2.10930   0.00013   0.00000   0.00065   0.00065   2.10995
    A3        2.05300  -0.00026  -0.00002  -0.00190  -0.00192   2.05107
    A4        1.94882   0.00026   0.00005   0.00173   0.00179   1.95060
    A5        1.95293   0.00035   0.00013   0.00217   0.00230   1.95523
    A6        1.94867   0.00026   0.00005   0.00173   0.00178   1.95046
    A7        1.86124  -0.00034  -0.00010  -0.00229  -0.00238   1.85886
    A8        1.88689  -0.00026  -0.00007  -0.00152  -0.00159   1.88529
    A9        1.86040  -0.00034  -0.00010  -0.00228  -0.00237   1.85802
    D1       -2.72639  -0.00003  -0.00000  -0.00181  -0.00182  -2.72820
    D2        1.47197  -0.00001  -0.00001  -0.00157  -0.00158   1.47040
    D3       -0.61167   0.00000  -0.00002  -0.00133  -0.00134  -0.61302
    D4        0.58750   0.00001   0.00006   0.00239   0.00244   0.58994
    D5       -1.49732   0.00002   0.00005   0.00263   0.00268  -1.49464
    D6        2.70222   0.00004   0.00004   0.00287   0.00291   2.70513
         Item               Value     Threshold  Converged?
 Maximum Force            0.000673     0.000450     NO 
 RMS     Force            0.000243     0.000300     YES
 Maximum Displacement     0.002358     0.001800     NO 
 RMS     Displacement     0.001199     0.001200     YES
 Predicted change in Energy=-3.306198D-06
 Lowest energy point so far.  Saving SCF results.
 Largest change from initial coordinates is atom    5       0.005 Angstoms.
 GradGradGradGradGradGradGradGradGradGradGradGradGradGradGradGradGradGrad

 Leave Link  103 at Wed Oct  7 14:29:36 2020, MaxMem=  2684354560 cpu:               2.6 elap:               0.8
 (Enter /udrive/faculty/rpeverati/g16/g16/l202.exe)
                          Input orientation:                          
[...]
 DoSqrt=T IScMMF=    -3 MM Scaling Factor =       0.00000
 En-DIIS/RFO-DIIS/Sim-DIIS IScMMF=       -3 using points:     3    2
 Iter=   1 RLamda=-4.10993929D-02 Sum=-4.63492817D-07.
 Iter=   2 RLamda=-4.63492817D-07 Sum=-6.29524175D-07.
 Iter=   3 RLamda=-6.29524175D-07 Sum=-6.29522755D-07.
 RFO step:  Lambda=-6.29524175D-07.
 NNeg= 0 NGDIIS= 2 SimSw=  2.50D-03 Rises=F DC= -4.13D-06 SmlDif=  1.00D-05
 NRisDI= 0 DoIntr=F SqrtH=F CThrHd= 10.0 CDAdj=  3.0
 RMS Error=  0.6381287982D-03 NUsed= 2 OKEnD=F EnDIS=F
 Total RFO-DIIS matrix:
                 1             2             3 
      1   0.000000D+00 -0.100000D+01 -0.100000D+01
      2  -0.100000D+01  0.855138D-05  0.292773D-04
      3  -0.100000D+01  0.292773D-04  0.115956D-03
 InvSVX:  RCond= 1.65D-05 Info=           0 Equed=N FErr=  1.68D-15 BErr=  0.00D+00
 DidBck=F Rises=F RFO-DIIS coefs:    1.31425   -0.31425
 Iteration  1 RMS(Cart)=  0.00050062 RMS(Int)=  0.00000056
 Iteration  2 RMS(Cart)=  0.00000027 RMS(Int)=  0.00000049
 ITry= 1 IFail=0 DXMaxC= 9.84D-04 DCOld= 1.00D+10 DXMaxT= 3.00D-01 DXLimC= 3.00D+00 Rises=F
 Variable       Old X    -DE/DX   Delta X   Delta X   Delta X     New X
                                 (Linear)    (Quad)   (Total)
    R1        2.80566  -0.00019  -0.00072  -0.00014  -0.00086   2.80480
    R2        2.05085  -0.00007  -0.00006  -0.00008  -0.00014   2.05071
    R3        2.05077  -0.00006  -0.00007  -0.00007  -0.00014   2.05063
    R4        2.07173  -0.00005   0.00012  -0.00020  -0.00007   2.07166
    R5        2.08607  -0.00001   0.00031  -0.00021   0.00010   2.08617
    R6        2.07207  -0.00005   0.00012  -0.00021  -0.00009   2.07198
    A1        2.10920   0.00005   0.00021   0.00018   0.00039   2.10960
    A2        2.10995   0.00005   0.00021   0.00015   0.00035   2.11031
    A3        2.05107  -0.00010  -0.00060  -0.00027  -0.00087   2.05020
    A4        1.95060   0.00007   0.00056   0.00005   0.00061   1.95122
    A5        1.95523   0.00007   0.00072  -0.00009   0.00063   1.95586
    A6        1.95046   0.00007   0.00056   0.00006   0.00062   1.95107
    A7        1.85886  -0.00008  -0.00075  -0.00006  -0.00081   1.85805
    A8        1.88529  -0.00006  -0.00050   0.00006  -0.00044   1.88486
    A9        1.85802  -0.00008  -0.00075  -0.00003  -0.00077   1.85725
    D1       -2.72820  -0.00001  -0.00057   0.00061   0.00003  -2.72817
    D2        1.47040   0.00000  -0.00050   0.00071   0.00021   1.47061
    D3       -0.61302   0.00001  -0.00042   0.00076   0.00034  -0.61268
    D4        0.58994  -0.00000   0.00077   0.00021   0.00098   0.59092
    D5       -1.49464   0.00001   0.00084   0.00031   0.00116  -1.49348
    D6        2.70513   0.00002   0.00092   0.00037   0.00129   2.70641
         Item               Value     Threshold  Converged?
 Maximum Force            0.000191     0.000450     YES
 RMS     Force            0.000068     0.000300     YES
 Maximum Displacement     0.000984     0.001800     YES
 RMS     Displacement     0.000501     0.001200     YES
 Predicted change in Energy=-3.147669D-07
 Optimization completed.
    -- Stationary point found.
                           ----------------------------
                           !   Optimized Parameters   !
                           ! (Angstroms and Degrees)  !
 --------------------------                            --------------------------
 ! Name  Definition              Value          Derivative Info.                !
 --------------------------------------------------------------------------------
 ! R1    R(1,2)                  1.4847         -DE/DX =   -0.0002              !
 ! R2    R(1,4)                  1.0853         -DE/DX =   -0.0001              !
 ! R3    R(1,7)                  1.0852         -DE/DX =   -0.0001              !
 ! R4    R(2,3)                  1.0963         -DE/DX =    0.0                 !
 ! R5    R(2,5)                  1.1039         -DE/DX =    0.0                 !
 ! R6    R(2,6)                  1.0965         -DE/DX =   -0.0001              !
 ! A1    A(2,1,4)              120.8483         -DE/DX =    0.0001              !
 ! A2    A(2,1,7)              120.8915         -DE/DX =    0.0                 !
 ! A3    A(4,1,7)              117.5178         -DE/DX =   -0.0001              !
 ! A4    A(1,2,3)              111.7613         -DE/DX =    0.0001              !
 ! A5    A(1,2,5)              112.0267         -DE/DX =    0.0001              !
 ! A6    A(1,2,6)              111.7529         -DE/DX =    0.0001              !
 ! A7    A(3,2,5)              106.5048         -DE/DX =   -0.0001              !
 ! A8    A(3,2,6)              108.0194         -DE/DX =   -0.0001              !
 ! A9    A(5,2,6)              106.457          -DE/DX =   -0.0001              !
 ! D1    D(4,1,2,3)           -156.3146         -DE/DX =    0.0                 !
 ! D2    D(4,1,2,5)             84.2476         -DE/DX =    0.0                 !
 ! D3    D(4,1,2,6)            -35.1234         -DE/DX =    0.0                 !
 ! D4    D(7,1,2,3)             33.8013         -DE/DX =    0.0                 !
 ! D5    D(7,1,2,5)            -85.6366         -DE/DX =    0.0                 !
 ! D6    D(7,1,2,6)            154.9925         -DE/DX =    0.0                 !
 --------------------------------------------------------------------------------
 Lowest energy point so far.  Saving SCF results.
 Largest change from initial coordinates is atom    5       0.005 Angstoms.
 GradGradGradGradGradGradGradGradGradGradGradGradGradGradGradGradGradGrad

 Leave Link  103 at Wed Oct  7 14:29:50 2020, MaxMem=  2684354560 cpu:               2.6 elap:               0.6
 (Enter /udrive/faculty/rpeverati/g16/g16/l202.exe)
                          Input orientation:                          
 ---------------------------------------------------------------------
 Center     Atomic      Atomic             Coordinates (Angstroms)
 Number     Number       Type             X           Y           Z
 ---------------------------------------------------------------------
      1          6           0        0.793147    0.000030   -0.024197
      2          6           0       -0.691359    0.000172   -0.000639
      3          1           0       -1.105429    0.893322   -0.483062
      4          1           0        1.350768   -0.928189    0.048380
      5          1           0       -1.089077   -0.012995    1.029043
      6          1           0       -1.105864   -0.880777   -0.505028
      7          1           0        1.351647    0.927558    0.049781
 ---------------------------------------------------------------------
                    Distance matrix (angstroms):
                    1          2          3          4          5
     1  C    0.000000
     2  C    1.484694   0.000000
     3  H    2.147817   1.096313   0.000000
     4  H    1.085264   2.243778   3.103745   0.000000
     5  H    2.156909   1.103901   1.762991   2.784264   0.000000
     6  H    2.147851   1.096491   1.774235   2.518640   1.762584
     7  H    1.085219   2.244206   2.514421   1.855747   2.792978
                    6          7
     6  H    0.000000
     7  H    3.101168   0.000000
 Stoichiometry    C2H5(2)
 Framework group  C1[X(C2H5)]
 Deg. of freedom    15
 Full point group                 C1      NOp   1
 RotChk:  IX=0 Diff= 7.87D-16
 Largest Abelian subgroup         C1      NOp   1
 Largest concise Abelian subgroup C1      NOp   1
                         Standard orientation:                         
 ---------------------------------------------------------------------
 Center     Atomic      Atomic             Coordinates (Angstroms)
 Number     Number       Type             X           Y           Z
 ---------------------------------------------------------------------
      1          6           0        0.792411    0.000002   -0.023097
      2          6           0       -0.692110    0.000168   -0.000509
      3          1           0       -1.105859    0.892993   -0.483807
      4          1           0        1.349979   -0.928170    0.050474
      5          1           0       -1.090502   -0.012299    1.028922
      6          1           0       -1.106290   -0.881120   -0.504572
      7          1           0        1.350867    0.927576    0.050618
 ---------------------------------------------------------------------
 Rotational constants (GHZ):         103.3197768          22.7837928          21.1160512
 Leave Link  202 at Wed Oct  7 14:29:50 2020, MaxMem=  2684354560 cpu:               0.5 elap:               0.2
 (Enter /udrive/faculty/rpeverati/g16/g16/l601.exe)
 Copying SCF densities to generalized density rwf, IOpCl= 1 IROHF=0.

 **********************************************************************

            Population analysis using the SCF density.

 **********************************************************************

 Orbital symmetries:
 Alpha Orbitals:
       Occupied  (A) (A) (A) (A) (A) (A) (A) (A) (A)
       Virtual   (A) (A) (A) (A) (A) (A) (A) (A) (A) (A) (A) (A)
                 (A) (A) (A) (A) (A) (A) (A) (A) (A) (A) (A) (A)
                 (A) (A) (A) (A) (A)
 Beta  Orbitals:
       Occupied  (A) (A) (A) (A) (A) (A) (A) (A)
       Virtual   (A) (A) (A) (A) (A) (A) (A) (A) (A) (A) (A) (A)
                 (A) (A) (A) (A) (A) (A) (A) (A) (A) (A) (A) (A)
                 (A) (A) (A) (A) (A) (A)
 The electronic state is 2-A.
 Alpha  occ. eigenvalues --  -10.22700 -10.21687  -0.77508  -0.62283  -0.45948
 Alpha  occ. eigenvalues --   -0.42228  -0.39885  -0.36308  -0.20978
 Alpha virt. eigenvalues --    0.12910   0.15338   0.16027   0.19021   0.23471
 Alpha virt. eigenvalues --    0.27151   0.52801   0.55775   0.57068   0.63405
 Alpha virt. eigenvalues --    0.63915   0.76231   0.81824   0.89454   0.90042
 Alpha virt. eigenvalues --    0.96991   0.97216   0.98967   1.29551   1.47225
 Alpha virt. eigenvalues --    1.65746   1.77169   1.94353   2.00431   2.17368
 Alpha virt. eigenvalues --    2.19811   2.34548   2.47675   2.61504
  Beta  occ. eigenvalues --  -10.21801 -10.21140  -0.75594  -0.59524  -0.45231
  Beta  occ. eigenvalues --   -0.40533  -0.39009  -0.35847
  Beta virt. eigenvalues --   -0.01702   0.13405   0.16269   0.16881   0.19871
  Beta virt. eigenvalues --    0.23971   0.28124   0.53462   0.56087   0.61894
  Beta virt. eigenvalues --    0.65938   0.67731   0.76995   0.83903   0.90102
  Beta virt. eigenvalues --    0.90538   0.97319   0.98163   1.01087   1.30662
  Beta virt. eigenvalues --    1.50175   1.72478   1.77756   1.97719   2.03731
  Beta virt. eigenvalues --    2.20282   2.22573   2.36274   2.48343   2.62901
          Condensed to atoms (all electrons):
               1          2          3          4          5          6
     1  C    5.329553   0.368579  -0.035636   0.382965  -0.046403  -0.035945
     2  C    0.368579   5.115501   0.382299  -0.037367   0.373698   0.382188
     3  H   -0.035636   0.382299   0.530849   0.003587  -0.033355  -0.026829
     4  H    0.382965  -0.037367   0.003587   0.518727   0.000481  -0.004733
     5  H   -0.046403   0.373698  -0.033355   0.000481   0.553231  -0.033567
     6  H   -0.035945   0.382188  -0.026829  -0.004733  -0.033567   0.531259
     7  H    0.383031  -0.037283  -0.004862  -0.033799   0.000594   0.003571
               7
     1  C    0.383031
     2  C   -0.037283
     3  H   -0.004862
     4  H   -0.033799
     5  H    0.000594
     6  H    0.003571
     7  H    0.518452
          Atomic-Atomic Spin Densities.
               1          2          3          4          5          6
     1  C    1.227610  -0.045283  -0.008345  -0.008641  -0.032150  -0.008916
     2  C   -0.045283  -0.080288   0.006748  -0.000265   0.016775   0.007060
     3  H   -0.008345   0.006748   0.022789   0.000004  -0.011103   0.004159
     4  H   -0.008641  -0.000265   0.000004  -0.051558  -0.000404   0.000730
     5  H   -0.032150   0.016775  -0.011103  -0.000404   0.103717  -0.011558
     6  H   -0.008916   0.007060   0.004159   0.000730  -0.011558   0.024660
     7  H   -0.008647  -0.000272   0.000728   0.002098  -0.000404   0.000012
               7
     1  C   -0.008647
     2  C   -0.000272
     3  H    0.000728
     4  H    0.002098
     5  H   -0.000404
     6  H    0.000012
     7  H   -0.051587
 Mulliken charges and spin densities:
               1          2
     1  C   -0.346143   1.115629
     2  C   -0.547615  -0.095526
     3  H    0.183947   0.014982
     4  H    0.170139  -0.058034
     5  H    0.185321   0.064874
     6  H    0.184056   0.016147
     7  H    0.170296  -0.058071
 Sum of Mulliken charges =   0.00000   1.00000
 Mulliken charges and spin densities with hydrogens summed into heavy atoms:
               1          2
     1  C   -0.005709   0.999523
     2  C    0.005709   0.000477
 Electronic spatial extent (au):  <R**2>=             98.3746
 Charge=              0.0000 electrons
 Dipole moment (field-independent basis, Debye):
    X=             -0.2114    Y=             -0.0004    Z=              0.1388  Tot=              0.2529
 Quadrupole moment (field-independent basis, Debye-Ang):
   XX=            -13.8836   YY=            -13.3288   ZZ=            -14.9180
   XY=              0.0012   XZ=              0.1722   YZ=              0.0002
 Traceless Quadrupole moment (field-independent basis, Debye-Ang):
   XX=              0.1598   YY=              0.7147   ZZ=             -0.8745
   XY=              0.0012   XZ=              0.1722   YZ=              0.0002
 Octapole moment (field-independent basis, Debye-Ang**2):
  XXX=              0.3190  YYY=              0.0212  ZZZ=              0.7480  XYY=              0.5424
  XXY=              0.0023  XXZ=              0.2305  XZZ=             -1.4305  YZZ=             -0.0205
  YYZ=             -0.4657  XYZ=             -0.0002
 Hexadecapole moment (field-independent basis, Debye-Ang**3):
 XXXX=            -83.0915 YYYY=            -27.0345 ZZZZ=            -22.0572 XXXY=              0.0048
 XXXZ=              0.5029 YYYX=             -0.0254 YYYZ=              0.0007 ZZZX=             -0.4563
 ZZZY=             -0.0005 XXYY=            -16.1458 XXZZ=            -17.9702 YYZZ=             -8.5108
 XXYZ=              0.0012 YYXZ=              0.8923 ZZXY=              0.0247
 N-N= 3.693170757608D+01 E-N=-2.566682404061D+02  KE= 7.861260241653D+01
                          Isotropic Fermi Contact Couplings
        Atom                 a.u.       MegaHertz       Gauss      10(-4) cm-1
     1  C(13)              0.16035     180.26752      64.32393      60.13077
     2  C(13)             -0.03385     -38.05411     -13.57865     -12.69348
     3  H(1)               0.00780      34.86830      12.44188      11.63081
     4  H(1)              -0.01717     -76.73652     -27.38150     -25.59655
     5  H(1)               0.03261     145.76117      52.01121      48.62069
     6  H(1)               0.00842      37.62449      13.42535      12.55018
     7  H(1)              -0.01718     -76.81124     -27.40816     -25.62147
 --------------------------------------------------------
       Center         ----  Spin Dipole Couplings  ----
                      3XX-RR        3YY-RR        3ZZ-RR
 --------------------------------------------------------
     1   Atom       -0.534789     -0.531544      1.066333
     2   Atom        0.013657     -0.015343      0.001686
     3   Atom        0.012869     -0.004812     -0.008058
     4   Atom       -0.033177      0.037114     -0.003937
     5   Atom        0.012639     -0.010513     -0.002126
     6   Atom        0.012936     -0.004848     -0.008088
     7   Atom       -0.033057      0.036969     -0.003912
 --------------------------------------------------------
                        XY            XZ            YZ
 --------------------------------------------------------
     1   Atom       -0.000006     -0.058401     -0.000137
     2   Atom       -0.000017     -0.002997      0.000038
     3   Atom       -0.010067      0.003155     -0.000924
     4   Atom       -0.063409      0.001847     -0.007471
     5   Atom        0.000136     -0.009240     -0.000127
     6   Atom        0.009986      0.003356      0.001031
     7   Atom        0.063501      0.001865      0.007475
 --------------------------------------------------------


 ---------------------------------------------------------------------------------
              Anisotropic Spin Dipole Couplings in Principal Axis System
 ---------------------------------------------------------------------------------

       Atom             a.u.   MegaHertz   Gauss  10(-4) cm-1        Axes

              Baa    -0.5369   -72.049   -25.709   -24.033  0.9993  0.0021  0.0364
     1 C(13)  Bbb    -0.5315   -71.328   -25.452   -23.793 -0.0021  1.0000  0.0000
              Bcc     1.0685   143.377    51.161    47.825 -0.0364 -0.0001  0.9993
 
              Baa    -0.0153    -2.059    -0.735    -0.687  0.0004  1.0000 -0.0022
     2 C(13)  Bbb     0.0010     0.131     0.047     0.044  0.2301  0.0020  0.9732
              Bcc     0.0144     1.928     0.688     0.643  0.9732 -0.0008 -0.2301
 
              Baa    -0.0096    -5.101    -1.820    -1.701  0.4226  0.8217 -0.3825
     3 H(1)   Bbb    -0.0083    -4.416    -1.576    -1.473  0.0532  0.3988  0.9155
              Bcc     0.0178     9.516     3.396     3.174  0.9048 -0.4072  0.1248
 
              Baa    -0.0706   -37.670   -13.442   -12.565  0.8603  0.5087  0.0332
     4 H(1)   Bbb    -0.0046    -2.429    -0.867    -0.810 -0.0757  0.0632  0.9951
              Bcc     0.0752    40.099    14.308    13.375 -0.5041  0.8586 -0.0929
 
              Baa    -0.0105    -5.610    -2.002    -1.871  0.0003  0.9999  0.0154
     5 H(1)   Bbb    -0.0066    -3.505    -1.251    -1.169  0.4335 -0.0140  0.9010
              Bcc     0.0171     9.115     3.253     3.041  0.9011  0.0064 -0.4335
 
              Baa    -0.0095    -5.079    -1.812    -1.694 -0.4215  0.8123  0.4032
     6 H(1)   Bbb    -0.0084    -4.463    -1.592    -1.489  0.0548 -0.4210  0.9054
              Bcc     0.0179     9.541     3.405     3.183  0.9052  0.4037  0.1330
 
              Baa    -0.0706   -37.685   -13.447   -12.570  0.8597 -0.5097  0.0331
     7 H(1)   Bbb    -0.0045    -2.417    -0.862    -0.806 -0.0758 -0.0633  0.9951
              Bcc     0.0752    40.102    14.309    13.376  0.5051  0.8580  0.0930
 

 ---------------------------------------------------------------------------------

 No NMR shielding tensors so no spin-rotation constants.
 Leave Link  601 at Wed Oct  7 14:29:51 2020, MaxMem=  2684354560 cpu:               8.5 elap:               0.9
 (Enter /udrive/faculty/rpeverati/g16/g16/l9999.exe)

 Test job not archived.
 1\1\GINC-NODE56\FOpt\UPBE1PBE\6-31G(d)\C2H5(2)\RPEVERATI\07-Oct-2020\0
 \\#P Opt(MaxCyc=100) PBE1PBE/6-31G* 5D 7F Integral=UltraFineGrid SCF=(
 NoSymm,XQC,MaxCyc=120) EmpiricalDispersion=GD3BJ IOp(1/33=1)\\TS searc
 h on BH76.\\0,2\C,0.7931474784,0.000030437,-0.0241973847\C,-0.69135926
 18,0.0001717123,-0.00063862\H,-1.105428813,0.8933215592,-0.4830616182\
 H,1.3507679143,-0.9281886963,0.048380057\H,-1.0890773851,-0.0129950117
 ,1.0290434691\H,-1.1058635995,-0.880776982,-0.5050279361\H,1.351646530
 3,0.9275575908,0.0497809346\\Version=ES64L-G16RevA.03\State=2-A\HF=-79
 .0520556\S2=0.754736\S2-1=0.\S2A=0.750014\RMSD=5.628e-09\RMSF=1.044e-0
 4\Dipole=-0.0831473,-0.0002053,0.0546452\Quadrupole=0.1189959,0.531359
 2,-0.6503551,0.0007867,0.1275475,0.0009171\PG=C01 [X(C2H5)]\\@


 ALMOST ALL THE CHEMICAL PROCESSES WHICH OCCUR IN NATURE,
 WHETHER IN ANIMAL OR VEGETABLE ORGANISMS,
 OR IN THE NON-LIVING SURFACE OF THE EARTH ... 
 TAKE PLACE BETWEEN SUBSTANCES IN SOLUTION

                                    -- W. OSTWALD, 1890
 Job cpu time:       0 days  0 hours  3 minutes 32.3 seconds.
 Elapsed time:       0 days  0 hours  0 minutes 34.3 seconds.
 File lengths (MBytes):  RWF=      5 Int=      0 D2E=      0 Chk=      1 Scr=      1
 Normal termination of Gaussian 16 at Wed Oct  7 14:29:52 2020.
