 Entering Gaussian System, Link 0=g16
 Input=MN_15_C2H6_BH76_PBE0DBJ_631Gs.in
 Output=MN_15_C2H6_BH76_PBE0DBJ_631Gs.log
 Initial command:
 /udrive/faculty/rpeverati/g16/g16/l1.exe "/udrive/scratch-directories/gaussian09/rpeverati/Gau-15679.inp" -scrdir="/udrive/scratch-directories/gaussian09/rpeverati/"
 Entering Link 1 = /udrive/faculty/rpeverati/g16/g16/l1.exe PID=     15680.
  
 Copyright (c) 1988,1990,1992,1993,1995,1998,2003,2009,2016,
            Gaussian, Inc.  All Rights Reserved.
  
 This is part of the Gaussian(R) 16 program.  It is based on
 the Gaussian(R) 09 system (copyright 2009, Gaussian, Inc.),
 the Gaussian(R) 03 system (copyright 2003, Gaussian, Inc.),
 the Gaussian(R) 98 system (copyright 1998, Gaussian, Inc.),
 the Gaussian(R) 94 system (copyright 1995, Gaussian, Inc.),
 the Gaussian 92(TM) system (copyright 1992, Gaussian, Inc.),
 the Gaussian 90(TM) system (copyright 1990, Gaussian, Inc.),
 the Gaussian 88(TM) system (copyright 1988, Gaussian, Inc.),
 the Gaussian 86(TM) system (copyright 1986, Carnegie Mellon
 University), and the Gaussian 82(TM) system (copyright 1983,
 Carnegie Mellon University). Gaussian is a federally registered
 trademark of Gaussian, Inc.
  
 This software contains proprietary and confidential information,
 including trade secrets, belonging to Gaussian, Inc.
  
 This software is provided under written license and may be
 used, copied, transmitted, or stored only in accord with that
 written license.
  
 The following legend is applicable only to US Government
 contracts under FAR:
  
                    RESTRICTED RIGHTS LEGEND
  
 Use, reproduction and disclosure by the US Government is
 subject to restrictions as set forth in subparagraphs (a)
 and (c) of the Commercial Computer Software - Restricted
 Rights clause in FAR 52.227-19.
  
 Gaussian, Inc.
 340 Quinnipiac St., Bldg. 40, Wallingford CT 06492
  
  
 ---------------------------------------------------------------
 Warning -- This program may not be used in any manner that
 competes with the business of Gaussian, Inc. or will provide
 assistance to any competitor of Gaussian, Inc.  The licensee
 of this program is prohibited from giving any competitor of
 Gaussian, Inc. access to this program.  By using this program,
 the user acknowledges that Gaussian, Inc. is engaged in the
 business of creating and licensing software in the field of
 computational chemistry and represents and warrants to the
 licensee that it is not a competitor of Gaussian, Inc. and that
 it will not use this program in any manner prohibited above.
 ---------------------------------------------------------------
  

 Cite this work as:
 Gaussian 16, Revision A.03,
 M. J. Frisch, G. W. Trucks, H. B. Schlegel, G. E. Scuseria, 
 M. A. Robb, J. R. Cheeseman, G. Scalmani, V. Barone, 
 G. A. Petersson, H. Nakatsuji, X. Li, M. Caricato, A. V. Marenich, 
 J. Bloino, B. G. Janesko, R. Gomperts, B. Mennucci, H. P. Hratchian, 
 J. V. Ortiz, A. F. Izmaylov, J. L. Sonnenberg, D. Williams-Young, 
 F. Ding, F. Lipparini, F. Egidi, J. Goings, B. Peng, A. Petrone, 
 T. Henderson, D. Ranasinghe, V. G. Zakrzewski, J. Gao, N. Rega, 
 G. Zheng, W. Liang, M. Hada, M. Ehara, K. Toyota, R. Fukuda, 
 J. Hasegawa, M. Ishida, T. Nakajima, Y. Honda, O. Kitao, H. Nakai, 
 T. Vreven, K. Throssell, J. A. Montgomery, Jr., J. E. Peralta, 
 F. Ogliaro, M. J. Bearpark, J. J. Heyd, E. N. Brothers, K. N. Kudin, 
 V. N. Staroverov, T. A. Keith, R. Kobayashi, J. Normand, 
 K. Raghavachari, A. P. Rendell, J. C. Burant, S. S. Iyengar, 
 J. Tomasi, M. Cossi, J. M. Millam, M. Klene, C. Adamo, R. Cammi, 
 J. W. Ochterski, R. L. Martin, K. Morokuma, O. Farkas, 
 J. B. Foresman, and D. J. Fox, Gaussian, Inc., Wallingford CT, 2016.
 
 ******************************************
 Gaussian 16:  ES64L-G16RevA.03 25-Dec-2016
                 7-Oct-2020 
 ******************************************
 %NoSave
 %nproc=12
 Will use up to   12 processors via shared memory.
 %mem=20GB
 %chk=MN_15_C2H6_BH76_PBE0DBJ_631Gs
 ----------------------------------------------------------------------
 #P Opt(MaxCyc=100) PBE1PBE/6-31G* 5D 7F Integral=UltraFineGrid SCF=(No
 Symm,XQC,MaxCyc=120) EmpiricalDispersion=GD3BJ IOp(1/33=1)
 ----------------------------------------------------------------------
 1/6=100,18=20,19=15,26=4,33=1,38=1/1,3;
 2/9=110,12=2,17=6,18=5,40=1/2;
 3/5=1,6=6,7=1,8=11,11=2,25=1,30=1,71=1,74=-13,75=-5,124=41/1,2,3;
 4/9=2/1;
 5/5=2,7=120,8=3,13=1,38=5/2,8;
 6/7=2,8=2,9=2,10=2,28=1/1;
 7//1,2,3,16;
 1/6=100,18=20,19=15,26=4,33=1/3(2);
 2/9=110/2;
 99//99;
 2/9=110/2;
 3/5=1,6=6,7=1,8=11,11=2,25=1,30=1,71=1,74=-13,75=-5,124=41/1,2,3;
 4/5=5,9=2,16=3,69=1/1;
 5/5=2,7=120,8=3,13=1,38=5/2,8;
 7//1,2,3,16;
 1/6=100,18=20,19=15,26=4,33=1/3(-5);
 2/9=110/2;
 6/7=2,8=2,9=2,10=2,19=2,28=1/1;
 99/9=1/99;
 Leave Link    1 at Wed Oct  7 14:29:05 2020, MaxMem=  2684354560 cpu:               7.1 elap:               0.7
 (Enter /udrive/faculty/rpeverati/g16/g16/l101.exe)
 ONIOM data not found on unit 2.
 ------------------
 TS search on BH76.
 ------------------
 TstMul:  ICh=     0
 TstMul:  Mul=     1
 TstMul:  ICh=     0
 TstMul:  Mul=     1
 Symbolic Z-matrix:
 Charge =  0 Multiplicity = 1
 C                    -0.76309   0.        0. 
 C                     0.76309   0.        0. 
 H                     1.15831  -0.44364  -0.9141 
 H                    -1.15831  -1.01333  -0.07464 
 H                     1.15831  -0.56981   0.84125 
 H                     1.15831   1.01345   0.07285 
 H                    -1.15831   0.44202   0.91488 
 H                    -1.15831   0.57131  -0.84024 
 
 RdStrC is calling ZToCFu for IStruc=1 NZ=     8.
 PrtBox:  NBox=     1 Levels=  1 BoxLen=    8.00 SMaxX=        4.38
          Shift=            2.188890            1.914910            1.727390
 Box      1 Number                   0 centers from      1 to      8:
 After GenITR:
 ITRead=  0  0  0  0  0  0  0  0
 MicOpt= -1 -1 -1 -1 -1 -1 -1 -1
 ITRead=  0  0  0  0  0  0  0  0
 MicOpt= -1 -1 -1 -1 -1 -1 -1 -1
 NAtoms=      8 NQM=        8 NQMF=       0 NMMI=      0 NMMIF=      0
                NMic=       0 NMicF=      0.
                    Isotopes and Nuclear Properties:
 (Nuclear quadrupole moments (NQMom) in fm**2, nuclear magnetic moments (NMagM)
  in nuclear magnetons)

  Atom         1           2           3           4           5           6           7           8
 IAtWgt=          12          12           1           1           1           1           1           1
 AtmWgt=  12.0000000  12.0000000   1.0078250   1.0078250   1.0078250   1.0078250   1.0078250   1.0078250
 NucSpn=           0           0           1           1           1           1           1           1
 AtZEff=   0.0000000   0.0000000   0.0000000   0.0000000   0.0000000   0.0000000   0.0000000   0.0000000
 NQMom=    0.0000000   0.0000000   0.0000000   0.0000000   0.0000000   0.0000000   0.0000000   0.0000000
 NMagM=    0.0000000   0.0000000   2.7928460   2.7928460   2.7928460   2.7928460   2.7928460   2.7928460
 AtZNuc=   6.0000000   6.0000000   1.0000000   1.0000000   1.0000000   1.0000000   1.0000000   1.0000000
 No MM parameters found.
 Leave Link  101 at Wed Oct  7 14:29:07 2020, MaxMem=  2684354560 cpu:              12.9 elap:               1.4
 (Enter /udrive/faculty/rpeverati/g16/g16/l103.exe)

 GradGradGradGradGradGradGradGradGradGradGradGradGradGradGradGradGradGrad
 Berny optimization.
 Optmz: redundant internal coordinate code flag= 1
 Initialization pass.
                           ----------------------------
                           !    Initial Parameters    !
                           ! (Angstroms and Degrees)  !
 --------------------------                            --------------------------
 ! Name  Definition              Value          Derivative Info.                !
 --------------------------------------------------------------------------------
 ! R1    R(1,2)                  1.5262         estimate D2E/DX2                !
 ! R2    R(1,4)                  1.0902         estimate D2E/DX2                !
 ! R3    R(1,7)                  1.0902         estimate D2E/DX2                !
 ! R4    R(1,8)                  1.0902         estimate D2E/DX2                !
 ! R5    R(2,3)                  1.0902         estimate D2E/DX2                !
 ! R6    R(2,5)                  1.0902         estimate D2E/DX2                !
 ! R7    R(2,6)                  1.0902         estimate D2E/DX2                !
 ! A1    A(2,1,4)              111.2543         estimate D2E/DX2                !
 ! A2    A(2,1,7)              111.2543         estimate D2E/DX2                !
 ! A3    A(2,1,8)              111.2543         estimate D2E/DX2                !
 ! A4    A(4,1,7)              107.6307         estimate D2E/DX2                !
 ! A5    A(4,1,8)              107.6309         estimate D2E/DX2                !
 ! A6    A(7,1,8)              107.6307         estimate D2E/DX2                !
 ! A7    A(1,2,3)              111.2544         estimate D2E/DX2                !
 ! A8    A(1,2,5)              111.2543         estimate D2E/DX2                !
 ! A9    A(1,2,6)              111.2543         estimate D2E/DX2                !
 ! A10   A(3,2,5)              107.6306         estimate D2E/DX2                !
 ! A11   A(3,2,6)              107.631          estimate D2E/DX2                !
 ! A12   A(5,2,6)              107.6306         estimate D2E/DX2                !
 ! D1    D(4,1,2,3)             59.8984         estimate D2E/DX2                !
 ! D2    D(4,1,2,5)            -60.1015         estimate D2E/DX2                !
 ! D3    D(4,1,2,6)            179.8987         estimate D2E/DX2                !
 ! D4    D(7,1,2,3)            179.8983         estimate D2E/DX2                !
 ! D5    D(7,1,2,5)             59.8985         estimate D2E/DX2                !
 ! D6    D(7,1,2,6)            -60.1014         estimate D2E/DX2                !
 ! D7    D(8,1,2,3)            -60.1018         estimate D2E/DX2                !
 ! D8    D(8,1,2,5)            179.8984         estimate D2E/DX2                !
 ! D9    D(8,1,2,6)             59.8985         estimate D2E/DX2                !
 --------------------------------------------------------------------------------
 Maximum allowed force set to 1.00D+20.
 Trust Radius=3.00D-01 FncErr=1.00D-07 GrdErr=1.00D-06 EigMax=2.50D+02 EigMin=1.00D-04
 Number of steps in this run=    100 maximum allowed number of steps=    100.
 GradGradGradGradGradGradGradGradGradGradGradGradGradGradGradGradGradGrad

 Leave Link  103 at Wed Oct  7 14:29:08 2020, MaxMem=  2684354560 cpu:               1.5 elap:               0.4
 (Enter /udrive/faculty/rpeverati/g16/g16/l202.exe)
                          Input orientation:                          
 ---------------------------------------------------------------------
 Center     Atomic      Atomic             Coordinates (Angstroms)
 Number     Number       Type             X           Y           Z
 ---------------------------------------------------------------------
      1          6           0       -0.763095    0.000000    0.000000
      2          6           0        0.763095    0.000000    0.000000
      3          1           0        1.158311   -0.443642   -0.914095
      4          1           0       -1.158311   -1.013327   -0.074640
      5          1           0        1.158311   -0.569813    0.841254
      6          1           0        1.158311    1.013454    0.072848
      7          1           0       -1.158311    0.442020    0.914884
      8          1           0       -1.158311    0.571305   -0.840243
 ---------------------------------------------------------------------
                    Distance matrix (angstroms):
                    1          2          3          4          5
     1  C    0.000000
     2  C    1.526189   0.000000
     3  H    2.173520   1.090222   0.000000
     4  H    1.090228   2.173523   2.529024   0.000000
     5  H    2.173521   1.090225   1.759878   2.530277   0.000000
     6  H    2.173521   1.090225   1.759882   3.081611   1.759881
     7  H    1.090225   2.173521   3.081606   1.759884   2.529024
     8  H    1.090227   2.173522   2.530278   1.759888   3.081610
                    6          7          8
     6  H    0.000000
     7  H    2.530276   0.000000
     8  H    2.529025   1.759883   0.000000
 This structure is nearly, but not quite of a higher symmetry.
 Consider Symm=Loose if the higher symmetry is desired.
 Stoichiometry    C2H6
 Framework group  C1[X(C2H6)]
 Deg. of freedom    18
 Full point group                 C1      NOp   1
 Largest Abelian subgroup         C1      NOp   1
 Largest concise Abelian subgroup C1      NOp   1
                         Standard orientation:                         
 ---------------------------------------------------------------------
 Center     Atomic      Atomic             Coordinates (Angstroms)
 Number     Number       Type             X           Y           Z
 ---------------------------------------------------------------------
      1          6           0       -0.006005   -0.067296    0.760098
      2          6           0        0.006004    0.067297   -0.760098
      3          1           0       -0.940642   -0.256750   -1.193040
      4          1           0       -0.173176   -1.100868    1.064042
      5          1           0        0.796589   -0.537953   -1.204214
      6          1           0        0.171402    1.101153   -1.064031
      7          1           0        0.941283    0.255071    1.192897
      8          1           0       -0.795451    0.539344    1.204346
 ---------------------------------------------------------------------
 Rotational constants (GHZ):          80.9533118          20.0467411          20.0467273
 Leave Link  202 at Wed Oct  7 14:29:08 2020, MaxMem=  2684354560 cpu:               1.7 elap:               0.5
 (Enter /udrive/faculty/rpeverati/g16/g16/l301.exe)
 Standard basis: 6-31G(d) (5D, 7F)
 Ernie: Thresh=  0.10000D-02 Tol=  0.10000D-05 Strict=F.
 There are    42 symmetry adapted cartesian basis functions of A   symmetry.
 There are    40 symmetry adapted basis functions of A   symmetry.
    40 basis functions,    80 primitive gaussians,    42 cartesian basis functions
     9 alpha electrons        9 beta electrons
       nuclear repulsion energy        42.2953063605 Hartrees.
 IExCor= 1009 DFT=T Ex+Corr=PBE1PBE ExCW=0 ScaHFX=  0.250000
 ScaDFX=  0.750000  0.750000  1.000000  1.000000 ScalE2=  1.000000  1.000000
 IRadAn=      5 IRanWt=     -1 IRanGd=            0 ICorTp=0 IEmpDi=141
 NAtoms=    8 NActive=    8 NUniq=    8 SFac= 1.00D+00 NAtFMM=   60 NAOKFM=F Big=F
 Integral buffers will be    131072 words long.
 Raffenetti 2 integral format.
 Two-electron integral symmetry is turned on.
 R6Disp:  Grimme-D3(BJ) Dispersion energy=       -0.0026547062 Hartrees.
 Nuclear repulsion after empirical dispersion term =       42.2926516544 Hartrees.
 Leave Link  301 at Wed Oct  7 14:29:09 2020, MaxMem=  2684354560 cpu:               2.3 elap:               0.7
 (Enter /udrive/faculty/rpeverati/g16/g16/l302.exe)
 NPDir=0 NMtPBC=     1 NCelOv=     1 NCel=       1 NClECP=     1 NCelD=      1
         NCelK=      1 NCelE2=     1 NClLst=     1 CellRange=     0.0.
 One-electron integrals computed using PRISM.
 One-electron integral symmetry used in STVInt
 NBasis=    40 RedAO= T EigKep=  9.35D-03  NBF=    40
 NBsUse=    40 1.00D-06 EigRej= -1.00D+00 NBFU=    40
 Precomputing XC quadrature grid using
 IXCGrd= 4 IRadAn=           5 IRanWt=          -1 IRanGd=           0 AccXCQ= 0.00D+00.
 Generated NRdTot=       0 NPtTot=           0 NUsed=           0 NTot=          32
 NSgBfM=    42    42    42    42    42 MxSgAt=     8 MxSgA2=     8.
 Leave Link  302 at Wed Oct  7 14:29:11 2020, MaxMem=  2684354560 cpu:               8.6 elap:               1.3
 (Enter /udrive/faculty/rpeverati/g16/g16/l303.exe)
 DipDrv:  MaxL=1.
 Leave Link  303 at Wed Oct  7 14:29:12 2020, MaxMem=  2684354560 cpu:               4.9 elap:               0.8
 (Enter /udrive/faculty/rpeverati/g16/g16/l401.exe)
 SCF N**3 symmetry information disabled.
 ExpMin= 1.61D-01 ExpMax= 3.05D+03 ExpMxC= 4.57D+02 IAcc=3 IRadAn=         5 AccDes= 0.00D+00
 Harris functional with IExCor= 1009 and IRadAn=       5 diagonalized for initial guess.
 HarFok:  IExCor= 1009 AccDes= 0.00D+00 IRadAn=         5 IDoV= 1 UseB2=F ITyADJ=14
 ICtDFT=  3500011 ScaDFX=  1.000000  1.000000  1.000000  1.000000
 FoFCou: FMM=F IPFlag=           0 FMFlag=      100000 FMFlg1=           0
         NFxFlg=           0 DoJE=T BraDBF=F KetDBF=T FulRan=T
         wScrn=  0.000000 ICntrl=       500 IOpCl=  0 I1Cent=   200000004 NGrid=           0
         NMat0=    1 NMatS0=      1 NMatT0=    0 NMatD0=    1 NMtDS0=    0 NMtDT0=    0
 Petite list used in FoFCou.
 Harris En= -79.8033600859023    
 JPrj=0 DoOrth=F DoCkMO=F.
 Leave Link  401 at Wed Oct  7 14:29:14 2020, MaxMem=  2684354560 cpu:               7.7 elap:               1.2
 (Enter /udrive/faculty/rpeverati/g16/g16/l502.exe)
 Keep R1 ints in memory in canonical form, NReq=10695154.
 FoFCou: FMM=F IPFlag=           0 FMFlag=           0 FMFlg1=           0
         NFxFlg=           0 DoJE=F BraDBF=F KetDBF=F FulRan=T
         wScrn=  0.000000 ICntrl=       600 IOpCl=  0 I1Cent=           0 NGrid=           0
         NMat0=    1 NMatS0=    820 NMatT0=    0 NMatD0=    1 NMtDS0=    0 NMtDT0=    0
 Symmetry not used in FoFCou.
 Two-electron integral symmetry not used.
 Closed shell SCF:
 Using DIIS extrapolation, IDIIS=  1040.
 NGot=  2684354560 LenX=  2684013186 LenY=  2684010981
 Requested convergence on RMS density matrix=1.00D-08 within 120 cycles.
 Requested convergence on MAX density matrix=1.00D-06.
 Requested convergence on             energy=1.00D-06.
 No special actions if energy rises.
 Integral accuracy reduced to 1.0D-05 until final iterations.

 Cycle   1  Pass 0  IDiag  1:
 E= -79.6042051475553    
 DIIS: error= 5.73D-02 at cycle   1 NSaved=   1.
 NSaved= 1 IEnMin= 1 EnMin= -79.6042051475553     IErMin= 1 ErrMin= 5.73D-02
 ErrMax= 5.73D-02  0.00D+00 EMaxC= 1.00D-01 BMatC= 1.03D-01 BMatP= 1.03D-01
 IDIUse=3 WtCom= 4.27D-01 WtEn= 5.73D-01
 Coeff-Com:  0.100D+01
 Coeff-En:   0.100D+01
 Coeff:      0.100D+01
 Gap=     0.410 Goal=   None    Shift=    0.000
 GapD=    0.410 DampG=2.000 DampE=0.500 DampFc=1.0000 IDamp=-1.
 RMSDP=1.52D-02 MaxDP=1.32D-01              OVMax= 1.71D-01

 Cycle   2  Pass 0  IDiag  1:
 E= -79.5918942139899     Delta-E=        0.012310933565 Rises=F Damp=F
 DIIS: error= 5.77D-02 at cycle   2 NSaved=   2.
 NSaved= 2 IEnMin= 1 EnMin= -79.6042051475553     IErMin= 1 ErrMin= 5.73D-02
 ErrMax= 5.77D-02  0.00D+00 EMaxC= 1.00D-01 BMatC= 1.19D-01 BMatP= 1.03D-01
 IDIUse=2 WtCom= 0.00D+00 WtEn= 1.00D+00
 Coeff-En:   0.525D+00 0.475D+00
 Coeff:      0.525D+00 0.475D+00
 Gap=     0.495 Goal=   None    Shift=    0.000
 RMSDP=7.74D-03 MaxDP=6.08D-02 DE= 1.23D-02 OVMax= 8.38D-02

 Cycle   3  Pass 0  IDiag  1:
 E= -79.7212494862836     Delta-E=       -0.129355272294 Rises=F Damp=F
 DIIS: error= 2.11D-03 at cycle   3 NSaved=   3.
 NSaved= 3 IEnMin= 3 EnMin= -79.7212494862836     IErMin= 3 ErrMin= 2.11D-03
 ErrMax= 2.11D-03  0.00D+00 EMaxC= 1.00D-01 BMatC= 1.04D-04 BMatP= 1.03D-01
 IDIUse=3 WtCom= 9.79D-01 WtEn= 2.11D-02
 Coeff-Com:  0.619D-01 0.509D-01 0.887D+00
 Coeff-En:   0.000D+00 0.000D+00 0.100D+01
 Coeff:      0.606D-01 0.498D-01 0.890D+00
 Gap=     0.469 Goal=   None    Shift=    0.000
 RMSDP=2.53D-04 MaxDP=1.53D-03 DE=-1.29D-01 OVMax= 3.11D-03

 Cycle   4  Pass 0  IDiag  1:
 E= -79.7213363551589     Delta-E=       -0.000086868875 Rises=F Damp=F
 DIIS: error= 5.92D-04 at cycle   4 NSaved=   4.
 NSaved= 4 IEnMin= 4 EnMin= -79.7213363551589     IErMin= 4 ErrMin= 5.92D-04
 ErrMax= 5.92D-04  0.00D+00 EMaxC= 1.00D-01 BMatC= 4.90D-06 BMatP= 1.04D-04
 IDIUse=3 WtCom= 9.94D-01 WtEn= 5.92D-03
 Coeff-Com: -0.212D-02-0.502D-02 0.161D+00 0.846D+00
 Coeff-En:   0.000D+00 0.000D+00 0.000D+00 0.100D+01
 Coeff:     -0.210D-02-0.499D-02 0.160D+00 0.847D+00
 Gap=     0.469 Goal=   None    Shift=    0.000
 RMSDP=4.87D-05 MaxDP=3.04D-04 DE=-8.69D-05 OVMax= 7.07D-04

 Cycle   5  Pass 0  IDiag  1:
 E= -79.7213408198372     Delta-E=       -0.000004464678 Rises=F Damp=F
 DIIS: error= 2.37D-05 at cycle   5 NSaved=   5.
 NSaved= 5 IEnMin= 5 EnMin= -79.7213408198372     IErMin= 5 ErrMin= 2.37D-05
 ErrMax= 2.37D-05  0.00D+00 EMaxC= 1.00D-01 BMatC= 1.30D-08 BMatP= 4.90D-06
 IDIUse=1 WtCom= 1.00D+00 WtEn= 0.00D+00
 Coeff-Com:  0.203D-03 0.449D-04-0.115D-01-0.498D-01 0.106D+01
 Coeff:      0.203D-03 0.449D-04-0.115D-01-0.498D-01 0.106D+01
 Gap=     0.469 Goal=   None    Shift=    0.000
 RMSDP=2.75D-06 MaxDP=2.28D-05 DE=-4.46D-06 OVMax= 3.62D-05

 Initial convergence to 1.0D-05 achieved.  Increase integral accuracy.
 Cycle   6  Pass 1  IDiag  1:
 E= -79.7213369421389     Delta-E=        0.000003877698 Rises=F Damp=F
 DIIS: error= 9.85D-07 at cycle   1 NSaved=   1.
 NSaved= 1 IEnMin= 1 EnMin= -79.7213369421389     IErMin= 1 ErrMin= 9.85D-07
 ErrMax= 9.85D-07  0.00D+00 EMaxC= 1.00D-01 BMatC= 3.52D-11 BMatP= 3.52D-11
 IDIUse=1 WtCom= 1.00D+00 WtEn= 0.00D+00
 Coeff-Com:  0.100D+01
 Coeff:      0.100D+01
 Gap=     0.469 Goal=   None    Shift=    0.000
 RMSDP=2.75D-06 MaxDP=2.28D-05 DE= 3.88D-06 OVMax= 4.32D-06

 Cycle   7  Pass 1  IDiag  1:
 E= -79.7213369422081     Delta-E=       -0.000000000069 Rises=F Damp=F
 DIIS: error= 1.79D-07 at cycle   2 NSaved=   2.
 NSaved= 2 IEnMin= 2 EnMin= -79.7213369422081     IErMin= 2 ErrMin= 1.79D-07
 ErrMax= 1.79D-07  0.00D+00 EMaxC= 1.00D-01 BMatC= 9.50D-13 BMatP= 3.52D-11
 IDIUse=1 WtCom= 1.00D+00 WtEn= 0.00D+00
 Coeff-Com:  0.419D-02 0.996D+00
 Coeff:      0.419D-02 0.996D+00
 Gap=     0.469 Goal=   None    Shift=    0.000
 RMSDP=5.87D-08 MaxDP=4.46D-07 DE=-6.92D-11 OVMax= 5.44D-07

 Cycle   8  Pass 1  IDiag  1:
 E= -79.7213369422091     Delta-E=       -0.000000000001 Rises=F Damp=F
 DIIS: error= 1.31D-07 at cycle   3 NSaved=   3.
 NSaved= 3 IEnMin= 3 EnMin= -79.7213369422091     IErMin= 3 ErrMin= 1.31D-07
 ErrMax= 1.31D-07  0.00D+00 EMaxC= 1.00D-01 BMatC= 5.96D-13 BMatP= 9.50D-13
 IDIUse=1 WtCom= 1.00D+00 WtEn= 0.00D+00
 Coeff-Com: -0.337D-01 0.438D+00 0.596D+00
 Coeff:     -0.337D-01 0.438D+00 0.596D+00
 Gap=     0.469 Goal=   None    Shift=    0.000
 RMSDP=1.80D-08 MaxDP=2.02D-07 DE=-1.05D-12 OVMax= 2.10D-07

 Cycle   9  Pass 1  IDiag  1:
 E= -79.7213369422096     Delta-E=       -0.000000000001 Rises=F Damp=F
 DIIS: error= 2.62D-08 at cycle   4 NSaved=   4.
 NSaved= 4 IEnMin= 4 EnMin= -79.7213369422096     IErMin= 4 ErrMin= 2.62D-08
 ErrMax= 2.62D-08  0.00D+00 EMaxC= 1.00D-01 BMatC= 2.41D-14 BMatP= 5.96D-13
 IDIUse=1 WtCom= 1.00D+00 WtEn= 0.00D+00
 Coeff-Com: -0.113D-01 0.107D+00 0.227D+00 0.677D+00
 Coeff:     -0.113D-01 0.107D+00 0.227D+00 0.677D+00
 Gap=     0.469 Goal=   None    Shift=    0.000
 RMSDP=3.28D-09 MaxDP=3.13D-08 DE=-5.12D-13 OVMax= 4.77D-08

 SCF Done:  E(RPBE1PBE) =  -79.7213369422     A.U. after    9 cycles
            NFock=  9  Conv=0.33D-08     -V/T= 2.0055
 KE= 7.928661584074D+01 PE=-2.687069695177D+02 EE= 6.740636508034D+01
 Leave Link  502 at Wed Oct  7 14:29:18 2020, MaxMem=  2684354560 cpu:              40.9 elap:               4.5
 (Enter /udrive/faculty/rpeverati/g16/g16/l508.exe)
 QCSCF skips out because SCF is already converged.
 Leave Link  508 at Wed Oct  7 14:29:19 2020, MaxMem=  2684354560 cpu:               0.8 elap:               0.4
 (Enter /udrive/faculty/rpeverati/g16/g16/l601.exe)
 Copying SCF densities to generalized density rwf, IOpCl= 0 IROHF=0.

 **********************************************************************

            Population analysis using the SCF density.

 **********************************************************************

 Orbital symmetries:
       Occupied  (A) (A) (A) (A) (A) (A) (A) (A) (A)
       Virtual   (A) (A) (A) (A) (A) (A) (A) (A) (A) (A) (A) (A)
                 (A) (A) (A) (A) (A) (A) (A) (A) (A) (A) (A) (A)
                 (A) (A) (A) (A) (A) (A) (A)
 The electronic state is 1-A.
 Alpha  occ. eigenvalues --  -10.20777 -10.20759  -0.77128  -0.63063  -0.44365
 Alpha  occ. eigenvalues --   -0.44364  -0.37429  -0.34934  -0.34934
 Alpha virt. eigenvalues --    0.11983   0.17327   0.17841   0.17841   0.20444
 Alpha virt. eigenvalues --    0.20444   0.25349   0.52938   0.56147   0.56148
 Alpha virt. eigenvalues --    0.65480   0.65480   0.69745   0.91297   0.91297
 Alpha virt. eigenvalues --    0.94032   0.95050   0.95050   1.01413   1.09537
 Alpha virt. eigenvalues --    1.46575   1.53135   1.53136   1.95417   1.99624
 Alpha virt. eigenvalues --    1.99624   2.29811   2.29811   2.35416   2.35417
 Alpha virt. eigenvalues --    2.61285
          Condensed to atoms (all electrons):
               1          2          3          4          5          6
     1  C    5.116222   0.356192  -0.035385   0.385982  -0.035385  -0.035385
     2  C    0.356192   5.116221   0.385983  -0.035385   0.385982   0.385982
     3  H   -0.035385   0.385983   0.538789  -0.003687  -0.030627  -0.030626
     4  H    0.385982  -0.035385  -0.003687   0.538791  -0.003655   0.004472
     5  H   -0.035385   0.385982  -0.030627  -0.003655   0.538791  -0.030626
     6  H   -0.035385   0.385982  -0.030626   0.004472  -0.030626   0.538790
     7  H    0.385982  -0.035385   0.004472  -0.030626  -0.003687  -0.003655
     8  H    0.385982  -0.035386  -0.003655  -0.030626   0.004472  -0.003687
               7          8
     1  C    0.385982   0.385982
     2  C   -0.035385  -0.035386
     3  H    0.004472  -0.003655
     4  H   -0.030626  -0.030626
     5  H   -0.003687   0.004472
     6  H   -0.003655  -0.003687
     7  H    0.538790  -0.030627
     8  H   -0.030627   0.538791
 Mulliken charges:
               1
     1  C   -0.524204
     2  C   -0.524204
     3  H    0.174736
     4  H    0.174734
     5  H    0.174735
     6  H    0.174735
     7  H    0.174735
     8  H    0.174734
 Sum of Mulliken charges =  -0.00000
 Mulliken charges with hydrogens summed into heavy atoms:
               1
     1  C   -0.000000
     2  C    0.000000
 Electronic spatial extent (au):  <R**2>=            108.8108
 Charge=              0.0000 electrons
 Dipole moment (field-independent basis, Debye):
    X=              0.0000    Y=              0.0000    Z=             -0.0000  Tot=              0.0000
 Quadrupole moment (field-independent basis, Debye-Ang):
   XX=            -14.6137   YY=            -14.6178   ZZ=            -15.1400
   XY=             -0.0004   XZ=              0.0042   YZ=              0.0466
 Traceless Quadrupole moment (field-independent basis, Debye-Ang):
   XX=              0.1768   YY=              0.1727   ZZ=             -0.3495
   XY=             -0.0004   XZ=              0.0042   YZ=              0.0466
 Octapole moment (field-independent basis, Debye-Ang**2):
  XXX=              0.0026  YYY=              0.0014  ZZZ=             -0.0000  XYY=             -0.0026
  XXY=             -0.0014  XXZ=             -0.0001  XZZ=             -0.0000  YZZ=              0.0000
  YYZ=              0.0001  XYZ=             -0.0003
 Hexadecapole moment (field-independent basis, Debye-Ang**3):
 XXXX=            -28.0875 YYYY=            -28.0753 ZZZZ=            -91.2643 XXXY=             -0.1049
 XXXZ=              0.8573 YYYX=              0.1591 YYYZ=              1.2991 ZZZX=              0.2695
 ZZZY=              3.0983 XXYY=             -9.6326 XXZZ=            -18.4164 YYZZ=            -18.9928
 XXYZ=              2.0253 YYXZ=             -0.5536 ZZXY=             -0.1049
 N-N= 4.229265165437D+01 E-N=-2.687069684061D+02  KE= 7.928661584074D+01
 No NMR shielding tensors so no spin-rotation constants.
 Leave Link  601 at Wed Oct  7 14:29:20 2020, MaxMem=  2684354560 cpu:               6.8 elap:               0.9
 (Enter /udrive/faculty/rpeverati/g16/g16/l701.exe)
 ... and contract with generalized density number  0.
 Compute integral first derivatives.
 R6Disp: Adding Grimme-D3(BJ) dispersion energy 1st derivatives to the gradient.
 Leave Link  701 at Wed Oct  7 14:29:22 2020, MaxMem=  2684354560 cpu:               7.2 elap:               1.2
 (Enter /udrive/faculty/rpeverati/g16/g16/l702.exe)
 L702 exits ... SP integral derivatives will be done elsewhere.
 Leave Link  702 at Wed Oct  7 14:29:23 2020, MaxMem=  2684354560 cpu:               1.9 elap:               0.5
 (Enter /udrive/faculty/rpeverati/g16/g16/l703.exe)
 Integral derivatives from FoFJK, PRISM(SPDF).
 Compute integral first derivatives, UseDBF=F ICtDFT=           0.
 Calling FoFJK, ICntrl=      2127 FMM=F ISym2X=0 I1Cent= 0 IOpClX= 0 NMat=1 NMatS=1 NMatT=0.
 FoFJK:  IHMeth= 1 ICntrl=    2127 DoSepK=F KAlg= 0 I1Cent=           0 FoldK=F
 IRaf=         0 NMat=       1 IRICut=       1 DoRegI=T DoRafI=F ISym2E= 0 IDoP0=0 IntGTp=1.
 FoFCou: FMM=F IPFlag=           0 FMFlag=      100000 FMFlg1=         800
         NFxFlg=           0 DoJE=F BraDBF=F KetDBF=F FulRan=T
         wScrn=  0.000000 ICntrl=      2127 IOpCl=  0 I1Cent=           0 NGrid=           0
         NMat0=    1 NMatS0=      1 NMatT0=    0 NMatD0=    1 NMtDS0=    0 NMtDT0=    0
 Symmetry not used in FoFCou.
 Leave Link  703 at Wed Oct  7 14:29:24 2020, MaxMem=  2684354560 cpu:              11.0 elap:               1.5
 (Enter /udrive/faculty/rpeverati/g16/g16/l716.exe)
 Dipole        = 7.13576929D-07 1.57596052D-07-1.39465113D-06
 ***** Axes restored to original set *****
 -------------------------------------------------------------------
 Center     Atomic                   Forces (Hartrees/Bohr)
 Number     Number              X              Y              Z
 -------------------------------------------------------------------
      1        6           0.005576497   -0.000001557   -0.000001215
      2        6          -0.005577853    0.000000734    0.000002287
      3        1           0.001378523   -0.001432891   -0.002967934
      4        1          -0.001377608   -0.003283371   -0.000235567
      5        1           0.001378040   -0.001852783    0.002723503
      6        1           0.001378240    0.003284957    0.000242214
      7        1          -0.001377907    0.001438832    0.002963300
      8        1          -0.001377932    0.001846079   -0.002726588
 -------------------------------------------------------------------
 Cartesian Forces:  Max     0.005577853 RMS     0.002403948
 Leave Link  716 at Wed Oct  7 14:29:25 2020, MaxMem=  2684354560 cpu:               2.1 elap:               0.5
 (Enter /udrive/faculty/rpeverati/g16/g16/l103.exe)

 GradGradGradGradGradGradGradGradGradGradGradGradGradGradGradGradGradGrad
 Berny optimization.
 Optmz: redundant internal coordinate code flag= 1
 FormGI is forming the generalized inverse of G from B-inverse, IUseBI=4.
 Internal  Forces:  Max     0.003571217 RMS     0.001675626
 Search for a local minimum.
 Step number   1 out of a maximum of  100
 All quantities printed in internal units (Hartrees-Bohrs-Radians)
 RMS Force = .16756D-02 SwitMx=.10000D-02 MixMth= 1
 Mixed Optimization -- RFO/linear search
 Second derivative matrix not updated -- first step.
 The second derivative matrix:
                          R1        R2        R3        R4        R5
           R1           0.29778
           R2           0.00000   0.34786
           R3           0.00000   0.00000   0.34787
           R4           0.00000   0.00000   0.00000   0.34786
           R5           0.00000   0.00000   0.00000   0.00000   0.34787
           R6           0.00000   0.00000   0.00000   0.00000   0.00000
           R7           0.00000   0.00000   0.00000   0.00000   0.00000
           A1           0.00000   0.00000   0.00000   0.00000   0.00000
           A2           0.00000   0.00000   0.00000   0.00000   0.00000
           A3           0.00000   0.00000   0.00000   0.00000   0.00000
           A4           0.00000   0.00000   0.00000   0.00000   0.00000
           A5           0.00000   0.00000   0.00000   0.00000   0.00000
           A6           0.00000   0.00000   0.00000   0.00000   0.00000
           A7           0.00000   0.00000   0.00000   0.00000   0.00000
           A8           0.00000   0.00000   0.00000   0.00000   0.00000
           A9           0.00000   0.00000   0.00000   0.00000   0.00000
           A10          0.00000   0.00000   0.00000   0.00000   0.00000
           A11          0.00000   0.00000   0.00000   0.00000   0.00000
           A12          0.00000   0.00000   0.00000   0.00000   0.00000
           D1           0.00000   0.00000   0.00000   0.00000   0.00000
           D2           0.00000   0.00000   0.00000   0.00000   0.00000
           D3           0.00000   0.00000   0.00000   0.00000   0.00000
           D4           0.00000   0.00000   0.00000   0.00000   0.00000
           D5           0.00000   0.00000   0.00000   0.00000   0.00000
           D6           0.00000   0.00000   0.00000   0.00000   0.00000
           D7           0.00000   0.00000   0.00000   0.00000   0.00000
           D8           0.00000   0.00000   0.00000   0.00000   0.00000
           D9           0.00000   0.00000   0.00000   0.00000   0.00000
                          R6        R7        A1        A2        A3
           R6           0.34787
           R7           0.00000   0.34787
           A1           0.00000   0.00000   0.16000
           A2           0.00000   0.00000   0.00000   0.16000
           A3           0.00000   0.00000   0.00000   0.00000   0.16000
           A4           0.00000   0.00000   0.00000   0.00000   0.00000
           A5           0.00000   0.00000   0.00000   0.00000   0.00000
           A6           0.00000   0.00000   0.00000   0.00000   0.00000
           A7           0.00000   0.00000   0.00000   0.00000   0.00000
           A8           0.00000   0.00000   0.00000   0.00000   0.00000
           A9           0.00000   0.00000   0.00000   0.00000   0.00000
           A10          0.00000   0.00000   0.00000   0.00000   0.00000
           A11          0.00000   0.00000   0.00000   0.00000   0.00000
           A12          0.00000   0.00000   0.00000   0.00000   0.00000
           D1           0.00000   0.00000   0.00000   0.00000   0.00000
           D2           0.00000   0.00000   0.00000   0.00000   0.00000
           D3           0.00000   0.00000   0.00000   0.00000   0.00000
           D4           0.00000   0.00000   0.00000   0.00000   0.00000
           D5           0.00000   0.00000   0.00000   0.00000   0.00000
           D6           0.00000   0.00000   0.00000   0.00000   0.00000
           D7           0.00000   0.00000   0.00000   0.00000   0.00000
           D8           0.00000   0.00000   0.00000   0.00000   0.00000
           D9           0.00000   0.00000   0.00000   0.00000   0.00000
                          A4        A5        A6        A7        A8
           A4           0.16000
           A5           0.00000   0.16000
           A6           0.00000   0.00000   0.16000
           A7           0.00000   0.00000   0.00000   0.16000
           A8           0.00000   0.00000   0.00000   0.00000   0.16000
           A9           0.00000   0.00000   0.00000   0.00000   0.00000
           A10          0.00000   0.00000   0.00000   0.00000   0.00000
           A11          0.00000   0.00000   0.00000   0.00000   0.00000
           A12          0.00000   0.00000   0.00000   0.00000   0.00000
           D1           0.00000   0.00000   0.00000   0.00000   0.00000
           D2           0.00000   0.00000   0.00000   0.00000   0.00000
           D3           0.00000   0.00000   0.00000   0.00000   0.00000
           D4           0.00000   0.00000   0.00000   0.00000   0.00000
           D5           0.00000   0.00000   0.00000   0.00000   0.00000
           D6           0.00000   0.00000   0.00000   0.00000   0.00000
           D7           0.00000   0.00000   0.00000   0.00000   0.00000
           D8           0.00000   0.00000   0.00000   0.00000   0.00000
           D9           0.00000   0.00000   0.00000   0.00000   0.00000
                          A9        A10       A11       A12       D1
           A9           0.16000
           A10          0.00000   0.16000
           A11          0.00000   0.00000   0.16000
           A12          0.00000   0.00000   0.00000   0.16000
           D1           0.00000   0.00000   0.00000   0.00000   0.00420
           D2           0.00000   0.00000   0.00000   0.00000   0.00000
           D3           0.00000   0.00000   0.00000   0.00000   0.00000
           D4           0.00000   0.00000   0.00000   0.00000   0.00000
           D5           0.00000   0.00000   0.00000   0.00000   0.00000
           D6           0.00000   0.00000   0.00000   0.00000   0.00000
           D7           0.00000   0.00000   0.00000   0.00000   0.00000
           D8           0.00000   0.00000   0.00000   0.00000   0.00000
           D9           0.00000   0.00000   0.00000   0.00000   0.00000
                          D2        D3        D4        D5        D6
           D2           0.00420
           D3           0.00000   0.00420
           D4           0.00000   0.00000   0.00420
           D5           0.00000   0.00000   0.00000   0.00420
           D6           0.00000   0.00000   0.00000   0.00000   0.00420
           D7           0.00000   0.00000   0.00000   0.00000   0.00000
           D8           0.00000   0.00000   0.00000   0.00000   0.00000
           D9           0.00000   0.00000   0.00000   0.00000   0.00000
                          D7        D8        D9
           D7           0.00420
           D8           0.00000   0.00420
           D9           0.00000   0.00000   0.00420
 ITU=  0
 Eigenvectors of the second derivative matrix:
                           1         2         3         4         5
     Eigenvalues --     0.00420   0.05513   0.05513   0.05513   0.05513
   1         R1        -0.00000  -0.00000  -0.00000   0.00000   0.00000
   2         R2        -0.00000   0.00000  -0.00000   0.00000  -0.00000
   3         R3        -0.00000  -0.00000  -0.00000  -0.00000  -0.00000
   4         R4         0.00000  -0.00000   0.00000   0.00000   0.00000
   5         R5        -0.00000  -0.00000  -0.00000   0.00000  -0.00000
   6         R6         0.00000   0.00000   0.00000   0.00000   0.00000
   7         R7         0.00000   0.00000  -0.00000   0.00000   0.00000
   8         A1        -0.00000  -0.00000   0.14961   0.00000  -0.16018
   9         A2         0.00000   0.00000  -0.21352   0.00000  -0.04947
  10         A3        -0.00000   0.00000   0.06392  -0.00000   0.20965
  11         A4         0.00000  -0.00000  -0.12020   0.00000  -0.39427
  12         A5        -0.00000  -0.00000   0.40154  -0.00000   0.09304
  13         A6        -0.00000   0.00000  -0.28135  -0.00000   0.30123
  14         A7        -0.00000  -0.08571   0.00000  -0.20172  -0.00000
  15         A8        -0.00000   0.21755   0.00000   0.02663   0.00000
  16         A9         0.00000  -0.13184  -0.00000   0.17509   0.00000
  17         A10        0.00000   0.24794   0.00000  -0.32927  -0.00000
  18         A11        0.00000  -0.40912  -0.00000  -0.05009  -0.00000
  19         A12        0.00000   0.16119  -0.00000   0.37936   0.00000
  20         D1        -0.33333   0.35596   0.28264  -0.15124   0.26399
  21         D2        -0.33333  -0.04700   0.28264   0.38389   0.26399
  22         D3        -0.33333  -0.30896   0.28264  -0.23265   0.26399
  23         D4        -0.33333   0.35596   0.08730  -0.15124  -0.37677
  24         D5        -0.33333  -0.04700   0.08730   0.38389  -0.37677
  25         D6        -0.33333  -0.30896   0.08730  -0.23265  -0.37677
  26         D7        -0.33333   0.35596  -0.36994  -0.15124   0.11278
  27         D8        -0.33333  -0.04700  -0.36994   0.38389   0.11278
  28         D9        -0.33333  -0.30896  -0.36994  -0.23265   0.11278
                           6         7         8         9        10
     Eigenvalues --     0.16000   0.16000   0.16000   0.16000   0.16000
   1         R1         0.00000  -0.00000   0.00000   0.00000   0.00000
   2         R2         0.00000   0.00000  -0.00000  -0.00000   0.00000
   3         R3         0.00000   0.00000  -0.00000   0.00000  -0.00000
   4         R4         0.00000   0.00000   0.00000   0.00000  -0.00000
   5         R5         0.00000  -0.00000  -0.00000  -0.00000   0.00000
   6         R6         0.00000   0.00000  -0.00000  -0.00000  -0.00000
   7         R7         0.00000  -0.00000  -0.00000  -0.00000   0.00000
   8         A1        -0.40597  -0.05935  -0.19616   0.27778  -0.59029
   9         A2        -0.06820  -0.31574  -0.41383  -0.25849   0.41287
  10         A3        -0.18034  -0.01153  -0.00429   0.55952   0.43006
  11         A4         0.25214   0.19946   0.32436  -0.01026   0.09434
  12         A5         0.31177   0.03769   0.10659  -0.44524   0.08520
  13         A6         0.13216   0.17403   0.22234  -0.16007  -0.44823
  14         A7        -0.43010  -0.41517   0.22036  -0.36632  -0.03801
  15         A8        -0.40475   0.55404   0.22306  -0.07522   0.22480
  16         A9         0.06748   0.33751  -0.61776  -0.16584  -0.08616
  17         A10        0.44393  -0.07385  -0.23579   0.23479  -0.09933
  18         A11        0.19282   0.04129   0.21132   0.28298   0.06603
  19         A12        0.17934  -0.47409   0.20988   0.12819  -0.07372
  20         D1        -0.00000  -0.00000   0.00000   0.00000  -0.00000
  21         D2        -0.00000   0.00000   0.00000  -0.00000   0.00000
  22         D3         0.00000  -0.00000  -0.00000  -0.00000  -0.00000
  23         D4         0.00000   0.00000   0.00000   0.00000   0.00000
  24         D5         0.00000   0.00000  -0.00000  -0.00000   0.00000
  25         D6         0.00000   0.00000  -0.00000   0.00000  -0.00000
  26         D7        -0.00000  -0.00000   0.00000   0.00000   0.00000
  27         D8        -0.00000   0.00000   0.00000  -0.00000   0.00000
  28         D9         0.00000  -0.00000  -0.00000   0.00000  -0.00000
                          11        12        13        14        15
     Eigenvalues --     0.16000   0.29778   0.34786   0.34786   0.34787
   1         R1         0.00000  -1.00000  -0.00000  -0.00000   0.00000
   2         R2        -0.00000  -0.00000   1.00000  -0.00000   0.00000
   3         R3        -0.00000   0.00000  -0.00000   0.00000   0.00000
   4         R4         0.00000  -0.00000   0.00000   1.00000  -0.00000
   5         R5         0.00000   0.00000  -0.00000  -0.00000  -0.00000
   6         R6        -0.00000   0.00000   0.00000   0.00000  -0.00000
   7         R7         0.00000   0.00000  -0.00000   0.00000   1.00000
   8         A1        -0.20908  -0.00000   0.00000  -0.00000   0.00000
   9         A2        -0.40404  -0.00000  -0.00000   0.00000  -0.00000
  10         A3         0.38136   0.00000   0.00000  -0.00000   0.00000
  11         A4         0.32603   0.00000  -0.00000  -0.00000  -0.00000
  12         A5        -0.09161   0.00000   0.00000   0.00000  -0.00000
  13         A6         0.01206   0.00000  -0.00000  -0.00000   0.00000
  14         A7         0.36686  -0.00000   0.00000   0.00000  -0.00000
  15         A8        -0.31527  -0.00000  -0.00000   0.00000   0.00000
  16         A9         0.37565   0.00000  -0.00000  -0.00000  -0.00000
  17         A10       -0.02743   0.00000  -0.00000  -0.00000   0.00000
  18         A11       -0.39483   0.00000  -0.00000  -0.00000   0.00000
  19         A12       -0.03211   0.00000   0.00000   0.00000  -0.00000
  20         D1        -0.00000   0.00000   0.00000   0.00000  -0.00000
  21         D2        -0.00000   0.00000  -0.00000  -0.00000  -0.00000
  22         D3        -0.00000   0.00000   0.00000  -0.00000   0.00000
  23         D4        -0.00000  -0.00000  -0.00000   0.00000   0.00000
  24         D5        -0.00000   0.00000  -0.00000   0.00000   0.00000
  25         D6        -0.00000   0.00000   0.00000  -0.00000   0.00000
  26         D7         0.00000  -0.00000  -0.00000   0.00000   0.00000
  27         D8         0.00000   0.00000  -0.00000   0.00000  -0.00000
  28         D9         0.00000   0.00000  -0.00000  -0.00000   0.00000
                          16        17        18
     Eigenvalues --     0.34787   0.34787   0.34787
   1         R1         0.00000  -0.00000  -0.00000
   2         R2        -0.00000  -0.00000  -0.00000
   3         R3         0.00000  -1.00000   0.00000
   4         R4        -0.00000   0.00000  -0.00000
   5         R5        -0.00000  -0.00000  -1.00000
   6         R6         1.00000   0.00000  -0.00000
   7         R7         0.00000   0.00000  -0.00000
   8         A1         0.00000   0.00000  -0.00000
   9         A2         0.00000   0.00000   0.00000
  10         A3         0.00000  -0.00000  -0.00000
  11         A4         0.00000  -0.00000   0.00000
  12         A5        -0.00000  -0.00000   0.00000
  13         A6        -0.00000   0.00000  -0.00000
  14         A7         0.00000  -0.00000   0.00000
  15         A8        -0.00000   0.00000  -0.00000
  16         A9        -0.00000  -0.00000   0.00000
  17         A10        0.00000   0.00000  -0.00000
  18         A11        0.00000   0.00000  -0.00000
  19         A12        0.00000  -0.00000  -0.00000
  20         D1        -0.00000   0.00000  -0.00000
  21         D2        -0.00000  -0.00000  -0.00000
  22         D3         0.00000   0.00000  -0.00000
  23         D4         0.00000   0.00000  -0.00000
  24         D5        -0.00000  -0.00000   0.00000
  25         D6         0.00000   0.00000   0.00000
  26         D7         0.00000   0.00000   0.00000
  27         D8         0.00000  -0.00000   0.00000
  28         D9         0.00000   0.00000   0.00000
 Iter=   1 RLamda= 0.00000000D+00 Sum=-2.27367525D-04.
 Iter=   2 RLamda=-2.27367525D-04 Sum=-2.27215926D-04.
 Iter=   3 RLamda=-2.27215926D-04 Sum=-2.27216027D-04.
 RFO step:  Lambda=-2.27215926D-04 EMin= 4.19511837D-03
 Linear search not attempted -- first point.
 Iteration  1 RMS(Cart)=  0.00443887 RMS(Int)=  0.00000307
 Iteration  2 RMS(Cart)=  0.00000318 RMS(Int)=  0.00000009
 Iteration  3 RMS(Cart)=  0.00000000 RMS(Int)=  0.00000009
 ITry= 1 IFail=0 DXMaxC= 9.18D-03 DCOld= 1.00D+10 DXMaxT= 3.00D-01 DXLimC= 3.00D+00 Rises=F
 Variable       Old X    -DE/DX   Delta X   Delta X   Delta X     New X
                                 (Linear)    (Quad)   (Total)
    R1        2.88408  -0.00144   0.00000  -0.00484  -0.00484   2.87924
    R2        2.06023   0.00357   0.00000   0.01025   0.01025   2.07048
    R3        2.06023   0.00357   0.00000   0.01025   0.01025   2.07048
    R4        2.06023   0.00357   0.00000   0.01025   0.01025   2.07048
    R5        2.06022   0.00357   0.00000   0.01026   0.01026   2.07048
    R6        2.06023   0.00357   0.00000   0.01025   0.01025   2.07048
    R7        2.06023   0.00357   0.00000   0.01025   0.01025   2.07048
    A1        1.94175   0.00009   0.00000   0.00055   0.00055   1.94230
    A2        1.94175   0.00009   0.00000   0.00054   0.00054   1.94230
    A3        1.94175   0.00009   0.00000   0.00055   0.00055   1.94230
    A4        1.87851  -0.00009   0.00000  -0.00058  -0.00058   1.87793
    A5        1.87851  -0.00009   0.00000  -0.00058  -0.00058   1.87793
    A6        1.87851  -0.00009   0.00000  -0.00058  -0.00058   1.87793
    A7        1.94176   0.00009   0.00000   0.00054   0.00054   1.94230
    A8        1.94175   0.00009   0.00000   0.00055   0.00055   1.94230
    A9        1.94175   0.00009   0.00000   0.00055   0.00055   1.94230
   A10        1.87851  -0.00009   0.00000  -0.00058  -0.00058   1.87793
   A11        1.87851  -0.00009   0.00000  -0.00058  -0.00058   1.87793
   A12        1.87851  -0.00009   0.00000  -0.00058  -0.00058   1.87793
    D1        1.04542   0.00000   0.00000   0.00093   0.00093   1.04636
    D2       -1.04897   0.00000   0.00000   0.00093   0.00093  -1.04803
    D3        3.13982   0.00000   0.00000   0.00093   0.00093   3.14075
    D4        3.13982   0.00000   0.00000   0.00093   0.00093   3.14075
    D5        1.04543   0.00000   0.00000   0.00093   0.00093   1.04636
    D6       -1.04897   0.00000   0.00000   0.00093   0.00093  -1.04804
    D7       -1.04897   0.00000   0.00000   0.00093   0.00093  -1.04804
    D8        3.13982   0.00000   0.00000   0.00093   0.00093   3.14075
    D9        1.04543   0.00000   0.00000   0.00093   0.00093   1.04636
         Item               Value     Threshold  Converged?
 Maximum Force            0.003571     0.000450     NO 
 RMS     Force            0.001676     0.000300     NO 
 Maximum Displacement     0.009183     0.001800     NO 
 RMS     Displacement     0.004439     0.001200     NO 
 Predicted change in Energy=-1.136837D-04
 Lowest energy point so far.  Saving SCF results.
 Largest change from initial coordinates is atom    5       0.005 Angstoms.
 GradGradGradGradGradGradGradGradGradGradGradGradGradGradGradGradGradGrad

 Leave Link  103 at Wed Oct  7 14:29:26 2020, MaxMem=  2684354560 cpu:               5.3 elap:               1.0
 (Enter /udrive/faculty/rpeverati/g16/g16/l202.exe)
                          Input orientation:                          
 ---------------------------------------------------------------------
 Center     Atomic      Atomic             Coordinates (Angstroms)
 Number     Number       Type             X           Y           Z
 ---------------------------------------------------------------------
      1          6           0       -0.761813   -0.000001   -0.000000
      2          6           0        0.761814    0.000000    0.000002
      3          1           0        1.159552   -0.445327   -0.918660
      4          1           0       -1.159553   -1.018186   -0.074522
      5          1           0        1.159553   -0.572922    0.844996
      6          1           0        1.159553    1.018248    0.073669
      7          1           0       -1.159552    0.444554    0.919035
      8          1           0       -1.159553    0.573631   -0.844513
 ---------------------------------------------------------------------
                    Distance matrix (angstroms):
                    1          2          3          4          5
     1  C    0.000000
     2  C    1.523627   0.000000
     3  H    2.175752   1.095651   0.000000
     4  H    1.095652   2.175754   2.533572   0.000000
     5  H    2.175754   1.095652   1.768266   2.534171   0.000000
     6  H    2.175754   1.095652   1.768267   3.089867   1.768267
     7  H    1.095651   2.175752   3.089864   1.768266   2.533572
     8  H    1.095651   2.175754   2.534171   1.768267   3.089867
                    6          7          8
     6  H    0.000000
     7  H    2.534170   0.000000
     8  H    2.533574   1.768266   0.000000
 Stoichiometry    C2H6
 Framework group  C1[X(C2H6)]
 Deg. of freedom    18
 Full point group                 C1      NOp   1
 RotChk:  IX=0 Diff= 2.00D+00
 Largest Abelian subgroup         C1      NOp   1
 Largest concise Abelian subgroup C1      NOp   1
                         Standard orientation:                         
 ---------------------------------------------------------------------
 Center     Atomic      Atomic             Coordinates (Angstroms)
 Number     Number       Type             X           Y           Z
 ---------------------------------------------------------------------
      1          6           0       -0.761813   -0.000000   -0.000000
      2          6           0        0.761814    0.000000   -0.000000
      3          1           0        1.159551   -0.386661   -0.944854
      4          1           0       -1.159553   -1.011482   -0.138417
      5          1           0        1.159553   -0.624938    0.807284
      6          1           0        1.159553    1.011598    0.137569
      7          1           0       -1.159551    0.385867    0.945179
      8          1           0       -1.159554    0.625616   -0.806759
 ---------------------------------------------------------------------
 Rotational constants (GHZ):          80.1874895          20.0464754          20.0464709
 Leave Link  202 at Wed Oct  7 14:29:27 2020, MaxMem=  2684354560 cpu:               2.3 elap:               0.6
 (Enter /udrive/faculty/rpeverati/g16/g16/l301.exe)
 Standard basis: 6-31G(d) (5D, 7F)
 Ernie: Thresh=  0.10000D-02 Tol=  0.10000D-05 Strict=F.
 There are    42 symmetry adapted cartesian basis functions of A   symmetry.
 There are    40 symmetry adapted basis functions of A   symmetry.
    40 basis functions,    80 primitive gaussians,    42 cartesian basis functions
     9 alpha electrons        9 beta electrons
       nuclear repulsion energy        42.2087496066 Hartrees.
 IExCor= 1009 DFT=T Ex+Corr=PBE1PBE ExCW=0 ScaHFX=  0.250000
 ScaDFX=  0.750000  0.750000  1.000000  1.000000 ScalE2=  1.000000  1.000000
 IRadAn=      5 IRanWt=     -1 IRanGd=            0 ICorTp=0 IEmpDi=141
 NAtoms=    8 NActive=    8 NUniq=    8 SFac= 1.00D+00 NAtFMM=   60 NAOKFM=F Big=F
 Integral buffers will be    131072 words long.
 Raffenetti 2 integral format.
 Two-electron integral symmetry is turned on.
 R6Disp:  Grimme-D3(BJ) Dispersion energy=       -0.0026532679 Hartrees.
 Nuclear repulsion after empirical dispersion term =       42.2060963387 Hartrees.
 Leave Link  301 at Wed Oct  7 14:29:28 2020, MaxMem=  2684354560 cpu:               2.0 elap:               0.6
 (Enter /udrive/faculty/rpeverati/g16/g16/l302.exe)
 NPDir=0 NMtPBC=     1 NCelOv=     1 NCel=       1 NClECP=     1 NCelD=      1
         NCelK=      1 NCelE2=     1 NClLst=     1 CellRange=     0.0.
 One-electron integrals computed using PRISM.
 One-electron integral symmetry used in STVInt
 NBasis=    40 RedAO= T EigKep=  9.37D-03  NBF=    40
 NBsUse=    40 1.00D-06 EigRej= -1.00D+00 NBFU=    40
 Precomputing XC quadrature grid using
 IXCGrd= 4 IRadAn=           5 IRanWt=          -1 IRanGd=           0 AccXCQ= 0.00D+00.
 Generated NRdTot=       0 NPtTot=           0 NUsed=           0 NTot=          32
 NSgBfM=    42    42    42    42    42 MxSgAt=     8 MxSgA2=     8.
 Leave Link  302 at Wed Oct  7 14:29:30 2020, MaxMem=  2684354560 cpu:               7.8 elap:               1.3
 (Enter /udrive/faculty/rpeverati/g16/g16/l303.exe)
 DipDrv:  MaxL=1.
 Leave Link  303 at Wed Oct  7 14:29:30 2020, MaxMem=  2684354560 cpu:               1.3 elap:               0.3
 (Enter /udrive/faculty/rpeverati/g16/g16/l401.exe)
 Initial guess from the checkpoint file:  "MN_15_C2H6_BH76_PBE0DBJ_631Gs.chk"
 SCF N**3 symmetry information disabled.
 B after Tr=    -0.000000   -0.000000    0.000000
         Rot=    0.708730    0.040449    0.703974    0.022039 Ang=  89.74 deg.
 Guess basis will be translated and rotated to current coordinates.
 JPrj=2 DoOrth=T DoCkMO=T.
 Leave Link  401 at Wed Oct  7 14:29:32 2020, MaxMem=  2684354560 cpu:              10.0 elap:               1.2
 (Enter /udrive/faculty/rpeverati/g16/g16/l502.exe)
 Keep R1 ints in memory in canonical form, NReq=10695154.
 FoFCou: FMM=F IPFlag=           0 FMFlag=           0 FMFlg1=           0
         NFxFlg=           0 DoJE=F BraDBF=F KetDBF=F FulRan=T
         wScrn=  0.000000 ICntrl=       600 IOpCl=  0 I1Cent=           0 NGrid=           0
         NMat0=    1 NMatS0=    820 NMatT0=    0 NMatD0=    1 NMtDS0=    0 NMtDT0=    0
 Symmetry not used in FoFCou.
 Two-electron integral symmetry not used.
 Closed shell SCF:
 Using DIIS extrapolation, IDIIS=  1040.
 NGot=  2684354560 LenX=  2684013186 LenY=  2684010981
 Requested convergence on RMS density matrix=1.00D-08 within 120 cycles.
 Requested convergence on MAX density matrix=1.00D-06.
 Requested convergence on             energy=1.00D-06.
 No special actions if energy rises.

 Cycle   1  Pass 1  IDiag  1:
 E= -79.7214209546237    
 DIIS: error= 8.28D-04 at cycle   1 NSaved=   1.
 NSaved= 1 IEnMin= 1 EnMin= -79.7214209546237     IErMin= 1 ErrMin= 8.28D-04
 ErrMax= 8.28D-04  0.00D+00 EMaxC= 1.00D-01 BMatC= 2.09D-05 BMatP= 2.09D-05
 IDIUse=3 WtCom= 9.92D-01 WtEn= 8.28D-03
 Coeff-Com:  0.100D+01
 Coeff-En:   0.100D+01
 Coeff:      0.100D+01
 Gap=     0.661 Goal=   None    Shift=    0.000
 RMSDP=1.84D-04 MaxDP=1.59D-03              OVMax= 2.26D-03

 Cycle   2  Pass 1  IDiag  1:
 E= -79.7214387238506     Delta-E=       -0.000017769227 Rises=F Damp=F
 DIIS: error= 5.91D-04 at cycle   2 NSaved=   2.
 NSaved= 2 IEnMin= 2 EnMin= -79.7214387238506     IErMin= 2 ErrMin= 5.91D-04
 ErrMax= 5.91D-04  0.00D+00 EMaxC= 1.00D-01 BMatC= 1.08D-05 BMatP= 2.09D-05
 IDIUse=3 WtCom= 9.94D-01 WtEn= 5.91D-03
 Coeff-Com:  0.401D+00 0.599D+00
 Coeff-En:   0.108D+00 0.892D+00
 Coeff:      0.399D+00 0.601D+00
 Gap=     0.467 Goal=   None    Shift=    0.000
 RMSDP=8.81D-05 MaxDP=7.88D-04 DE=-1.78D-05 OVMax= 9.92D-04

 Cycle   3  Pass 1  IDiag  1:
 E= -79.7214494041884     Delta-E=       -0.000010680338 Rises=F Damp=F
 DIIS: error= 1.45D-04 at cycle   3 NSaved=   3.
 NSaved= 3 IEnMin= 3 EnMin= -79.7214494041884     IErMin= 3 ErrMin= 1.45D-04
 ErrMax= 1.45D-04  0.00D+00 EMaxC= 1.00D-01 BMatC= 8.05D-07 BMatP= 1.08D-05
 IDIUse=3 WtCom= 9.99D-01 WtEn= 1.45D-03
 Coeff-Com:  0.324D-01 0.218D+00 0.750D+00
 Coeff-En:   0.000D+00 0.000D+00 0.100D+01
 Coeff:      0.323D-01 0.218D+00 0.750D+00
 Gap=     0.467 Goal=   None    Shift=    0.000
 RMSDP=1.72D-05 MaxDP=1.81D-04 DE=-1.07D-05 OVMax= 2.32D-04

 Cycle   4  Pass 1  IDiag  1:
 E= -79.7214502094812     Delta-E=       -0.000000805293 Rises=F Damp=F
 DIIS: error= 2.46D-05 at cycle   4 NSaved=   4.
 NSaved= 4 IEnMin= 4 EnMin= -79.7214502094812     IErMin= 4 ErrMin= 2.46D-05
 ErrMax= 2.46D-05  0.00D+00 EMaxC= 1.00D-01 BMatC= 8.66D-09 BMatP= 8.05D-07
 IDIUse=1 WtCom= 1.00D+00 WtEn= 0.00D+00
 Coeff-Com: -0.441D-02 0.265D-01 0.155D+00 0.823D+00
 Coeff:     -0.441D-02 0.265D-01 0.155D+00 0.823D+00
 Gap=     0.467 Goal=   None    Shift=    0.000
 RMSDP=2.56D-06 MaxDP=1.62D-05 DE=-8.05D-07 OVMax= 3.60D-05

 Cycle   5  Pass 1  IDiag  1:
 E= -79.7214502179788     Delta-E=       -0.000000008498 Rises=F Damp=F
 DIIS: error= 1.11D-06 at cycle   5 NSaved=   5.
 NSaved= 5 IEnMin= 5 EnMin= -79.7214502179788     IErMin= 5 ErrMin= 1.11D-06
 ErrMax= 1.11D-06  0.00D+00 EMaxC= 1.00D-01 BMatC= 3.11D-11 BMatP= 8.66D-09
 IDIUse=1 WtCom= 1.00D+00 WtEn= 0.00D+00
 Coeff-Com: -0.412D-03-0.177D-02-0.739D-02 0.256D-01 0.984D+00
 Coeff:     -0.412D-03-0.177D-02-0.739D-02 0.256D-01 0.984D+00
 Gap=     0.467 Goal=   None    Shift=    0.000
 RMSDP=1.27D-07 MaxDP=8.55D-07 DE=-8.50D-09 OVMax= 1.29D-06

 Cycle   6  Pass 1  IDiag  1:
 E= -79.7214502180098     Delta-E=       -0.000000000031 Rises=F Damp=F
 DIIS: error= 4.30D-08 at cycle   6 NSaved=   6.
 NSaved= 6 IEnMin= 6 EnMin= -79.7214502180098     IErMin= 6 ErrMin= 4.30D-08
 ErrMax= 4.30D-08  0.00D+00 EMaxC= 1.00D-01 BMatC= 4.93D-14 BMatP= 3.11D-11
 IDIUse=1 WtCom= 1.00D+00 WtEn= 0.00D+00
 Coeff-Com:  0.387D-04 0.935D-05 0.232D-03-0.245D-02-0.755D-01 0.108D+01
 Coeff:      0.387D-04 0.935D-05 0.232D-03-0.245D-02-0.755D-01 0.108D+01
 Gap=     0.467 Goal=   None    Shift=    0.000
 RMSDP=1.14D-08 MaxDP=8.73D-08 DE=-3.10D-11 OVMax= 1.17D-07

 Cycle   7  Pass 1  IDiag  1:
 E= -79.7214502180097     Delta-E=        0.000000000000 Rises=F Damp=F
 DIIS: error= 1.04D-09 at cycle   7 NSaved=   7.
 NSaved= 7 IEnMin= 6 EnMin= -79.7214502180098     IErMin= 7 ErrMin= 1.04D-09
 ErrMax= 1.04D-09  0.00D+00 EMaxC= 1.00D-01 BMatC= 6.95D-17 BMatP= 4.93D-14
 IDIUse=1 WtCom= 1.00D+00 WtEn= 0.00D+00
 Coeff-Com: -0.187D-06 0.139D-05 0.781D-05 0.655D-05-0.151D-03-0.158D-01
 Coeff-Com:  0.102D+01
 Coeff:     -0.187D-06 0.139D-05 0.781D-05 0.655D-05-0.151D-03-0.158D-01
 Coeff:      0.102D+01
 Gap=     0.467 Goal=   None    Shift=    0.000
 RMSDP=4.62D-10 MaxDP=3.62D-09 DE= 4.26D-14 OVMax= 6.06D-09

 SCF Done:  E(RPBE1PBE) =  -79.7214502180     A.U. after    7 cycles
            NFock=  7  Conv=0.46D-09     -V/T= 2.0060
 KE= 7.924702636757D+01 PE=-2.685034017784D+02 EE= 6.732882885409D+01
 Leave Link  502 at Wed Oct  7 14:29:36 2020, MaxMem=  2684354560 cpu:              38.6 elap:               3.8
 (Enter /udrive/faculty/rpeverati/g16/g16/l508.exe)
 QCSCF skips out because SCF is already converged.
 Leave Link  508 at Wed Oct  7 14:29:37 2020, MaxMem=  2684354560 cpu:               1.3 elap:               0.6
 (Enter /udrive/faculty/rpeverati/g16/g16/l701.exe)
 ... and contract with generalized density number  0.
 Compute integral first derivatives.
 R6Disp: Adding Grimme-D3(BJ) dispersion energy 1st derivatives to the gradient.
 Leave Link  701 at Wed Oct  7 14:29:38 2020, MaxMem=  2684354560 cpu:               6.9 elap:               1.3
 (Enter /udrive/faculty/rpeverati/g16/g16/l702.exe)
 L702 exits ... SP integral derivatives will be done elsewhere.
 Leave Link  702 at Wed Oct  7 14:29:39 2020, MaxMem=  2684354560 cpu:               1.9 elap:               0.8
 (Enter /udrive/faculty/rpeverati/g16/g16/l703.exe)
 Integral derivatives from FoFJK, PRISM(SPDF).
 Compute integral first derivatives, UseDBF=F ICtDFT=           0.
 Calling FoFJK, ICntrl=      2127 FMM=F ISym2X=0 I1Cent= 0 IOpClX= 0 NMat=1 NMatS=1 NMatT=0.
 FoFJK:  IHMeth= 1 ICntrl=    2127 DoSepK=F KAlg= 0 I1Cent=           0 FoldK=F
 IRaf=         0 NMat=       1 IRICut=       1 DoRegI=T DoRafI=F ISym2E= 0 IDoP0=0 IntGTp=1.
 FoFCou: FMM=F IPFlag=           0 FMFlag=      100000 FMFlg1=         800
         NFxFlg=           0 DoJE=F BraDBF=F KetDBF=F FulRan=T
         wScrn=  0.000000 ICntrl=      2127 IOpCl=  0 I1Cent=           0 NGrid=           0
         NMat0=    1 NMatS0=      1 NMatT0=    0 NMatD0=    1 NMtDS0=    0 NMtDT0=    0
 Symmetry not used in FoFCou.
 Leave Link  703 at Wed Oct  7 14:29:41 2020, MaxMem=  2684354560 cpu:              10.3 elap:               1.5
 (Enter /udrive/faculty/rpeverati/g16/g16/l716.exe)
 Dipole        =-6.96585656D-08-6.55477581D-08 1.41191968D-07
 ***** Axes restored to original set *****
 -------------------------------------------------------------------
 Center     Atomic                   Forces (Hartrees/Bohr)
 Number     Number              X              Y              Z
 -------------------------------------------------------------------
      1        6           0.000859512   -0.000000226    0.000000309
      2        6          -0.000859513    0.000000177   -0.000000062
      3        1           0.000154226    0.000045179    0.000086382
      4        1          -0.000153516    0.000097169    0.000010347
      5        1           0.000153856    0.000051898   -0.000082164
      6        1           0.000153524   -0.000097687   -0.000004217
      7        1          -0.000154188   -0.000039467   -0.000089134
      8        1          -0.000153900   -0.000057043    0.000078539
 -------------------------------------------------------------------
 Cartesian Forces:  Max     0.000859513 RMS     0.000264304
 Leave Link  716 at Wed Oct  7 14:29:42 2020, MaxMem=  2684354560 cpu:               2.2 elap:               0.7
 (Enter /udrive/faculty/rpeverati/g16/g16/l103.exe)

 GradGradGradGradGradGradGradGradGradGradGradGradGradGradGradGradGradGrad
 Berny optimization.
 Optmz: redundant internal coordinate code flag= 1
 Using GEDIIS/GDIIS optimizer.
 Red2BG:  D1=  2.73D-01 OD1=  1.26D-02 B2RMS=  0.00D+00 IAprox=0
 FormGI is forming the generalized inverse of G from B-inverse, IUseBI=4.
 Internal  Forces:  Max     0.000397908 RMS     0.000140259
 Search for a local minimum.
 Step number   2 out of a maximum of  100
 All quantities printed in internal units (Hartrees-Bohrs-Radians)
 RMS Force = .14026D-03 SwitMx=.10000D-02 MixMth= 2
 Mixed Optimization -- En-DIIS/RFO-DIIS
 Update second derivatives using D2CorX and points    1    2
 DE= -1.13D-04 DEPred=-1.14D-04 R= 9.96D-01
 TightC=F SS=  1.41D+00  RLast= 2.58D-02 DXNew= 5.0454D-01 7.7415D-02
 Trust test= 9.96D-01 RLast= 2.58D-02 DXMaxT set to 3.00D-01
 The second derivative matrix:
                          R1        R2        R3        R4        R5
           R1           0.29345
           R2           0.00599   0.34927
           R3           0.00600   0.00140   0.34925
           R4           0.00600   0.00139   0.00138   0.34925
           R5           0.00600   0.00140   0.00139   0.00138   0.34926
           R6           0.00600   0.00139   0.00139   0.00138   0.00139
           R7           0.00600   0.00140   0.00140   0.00139   0.00140
           A1           0.00095  -0.00273  -0.00274  -0.00273  -0.00274
           A2           0.00095  -0.00275  -0.00275  -0.00275  -0.00275
           A3           0.00095  -0.00274  -0.00274  -0.00274  -0.00274
           A4          -0.00101   0.00292   0.00292   0.00292   0.00292
           A5          -0.00101   0.00292   0.00292   0.00292   0.00292
           A6          -0.00101   0.00292   0.00292   0.00292   0.00292
           A7           0.00095  -0.00275  -0.00275  -0.00275  -0.00275
           A8           0.00095  -0.00274  -0.00274  -0.00274  -0.00275
           A9           0.00095  -0.00273  -0.00274  -0.00274  -0.00274
           A10         -0.00101   0.00292   0.00292   0.00292   0.00292
           A11         -0.00102   0.00292   0.00293   0.00293   0.00293
           A12         -0.00101   0.00291   0.00291   0.00291   0.00291
           D1           0.00001  -0.00003  -0.00003  -0.00003  -0.00003
           D2           0.00001  -0.00003  -0.00003  -0.00003  -0.00003
           D3           0.00002  -0.00003  -0.00003  -0.00003  -0.00003
           D4           0.00001  -0.00003  -0.00003  -0.00003  -0.00003
           D5           0.00001  -0.00003  -0.00003  -0.00003  -0.00003
           D6           0.00002  -0.00003  -0.00003  -0.00003  -0.00003
           D7           0.00001  -0.00003  -0.00003  -0.00003  -0.00003
           D8           0.00001  -0.00003  -0.00003  -0.00003  -0.00003
           D9           0.00002  -0.00003  -0.00003  -0.00003  -0.00003
                          R6        R7        A1        A2        A3
           R6           0.34925
           R7           0.00140   0.34927
           A1          -0.00274  -0.00274   0.16000
           A2          -0.00275  -0.00275  -0.00000   0.16000
           A3          -0.00274  -0.00274  -0.00000  -0.00000   0.16000
           A4           0.00292   0.00292   0.00000   0.00000   0.00000
           A5           0.00292   0.00292   0.00000   0.00000   0.00000
           A6           0.00292   0.00292   0.00000   0.00000   0.00000
           A7          -0.00275  -0.00275  -0.00000   0.00000  -0.00000
           A8          -0.00274  -0.00274  -0.00000  -0.00000  -0.00000
           A9          -0.00274  -0.00274  -0.00000  -0.00000  -0.00000
           A10          0.00292   0.00292   0.00000  -0.00000   0.00000
           A11          0.00293   0.00293   0.00000   0.00000   0.00000
           A12          0.00291   0.00291   0.00000   0.00000   0.00000
           D1          -0.00003  -0.00003  -0.00000  -0.00000  -0.00000
           D2          -0.00003  -0.00003  -0.00000  -0.00000  -0.00000
           D3          -0.00003  -0.00003  -0.00000  -0.00000  -0.00000
           D4          -0.00003  -0.00003  -0.00000  -0.00000  -0.00000
           D5          -0.00003  -0.00003  -0.00000  -0.00000  -0.00000
           D6          -0.00003  -0.00003  -0.00000  -0.00000  -0.00000
           D7          -0.00003  -0.00003  -0.00000  -0.00000  -0.00000
           D8          -0.00003  -0.00003  -0.00000  -0.00000  -0.00000
           D9          -0.00003  -0.00003  -0.00000  -0.00000  -0.00000
                          A4        A5        A6        A7        A8
           A4           0.16000
           A5          -0.00000   0.16000
           A6          -0.00000  -0.00000   0.16000
           A7           0.00000   0.00000   0.00000   0.16000
           A8           0.00000   0.00000   0.00000  -0.00000   0.16000
           A9           0.00000   0.00000   0.00000  -0.00000  -0.00000
           A10         -0.00000  -0.00000  -0.00000  -0.00000   0.00000
           A11         -0.00000  -0.00000  -0.00000   0.00000   0.00000
           A12         -0.00000  -0.00000  -0.00000   0.00000   0.00000
           D1           0.00000   0.00000   0.00000  -0.00000  -0.00000
           D2           0.00000   0.00000   0.00000  -0.00000  -0.00000
           D3           0.00000   0.00000   0.00000  -0.00000  -0.00000
           D4           0.00000   0.00000   0.00000  -0.00000  -0.00000
           D5           0.00000   0.00000   0.00000  -0.00000  -0.00000
           D6           0.00000   0.00000   0.00000  -0.00000  -0.00000
           D7           0.00000   0.00000   0.00000  -0.00000  -0.00000
           D8           0.00000   0.00000   0.00000  -0.00000  -0.00000
           D9           0.00000   0.00000   0.00000  -0.00000  -0.00000
                          A9        A10       A11       A12       D1
           A9           0.16000
           A10          0.00000   0.16000
           A11          0.00000  -0.00000   0.16000
           A12          0.00000  -0.00000  -0.00000   0.16000
           D1          -0.00000   0.00000   0.00000   0.00000   0.00420
           D2          -0.00000   0.00000   0.00000   0.00000  -0.00000
           D3          -0.00000   0.00000   0.00000   0.00000  -0.00000
           D4          -0.00000   0.00000   0.00000   0.00000  -0.00000
           D5          -0.00000   0.00000   0.00000   0.00000  -0.00000
           D6          -0.00000   0.00000   0.00000   0.00000  -0.00000
           D7          -0.00000   0.00000   0.00000   0.00000  -0.00000
           D8          -0.00000   0.00000   0.00000   0.00000  -0.00000
           D9          -0.00000   0.00000   0.00000   0.00000  -0.00000
                          D2        D3        D4        D5        D6
           D2           0.00420
           D3          -0.00000   0.00420
           D4          -0.00000  -0.00000   0.00420
           D5          -0.00000  -0.00000  -0.00000   0.00420
           D6          -0.00000  -0.00000  -0.00000  -0.00000   0.00420
           D7          -0.00000  -0.00000  -0.00000  -0.00000  -0.00000
           D8          -0.00000  -0.00000  -0.00000  -0.00000  -0.00000
           D9          -0.00000  -0.00000  -0.00000  -0.00000  -0.00000
                          D7        D8        D9
           D7           0.00420
           D8          -0.00000   0.00420
           D9          -0.00000  -0.00000   0.00420
 ITU=  1  0
 Use linear search instead of GDIIS.
 Eigenvectors of the second derivative matrix:
                           1         2         3         4         5
     Eigenvalues --     0.00419   0.05507   0.05507   0.05507   0.05507
   1         R1         0.00019   0.00000  -0.00001   0.00000   0.00000
   2         R2        -0.00024  -0.00000   0.00000  -0.00000  -0.00000
   3         R3        -0.00024  -0.00000   0.00000  -0.00000  -0.00000
   4         R4        -0.00024  -0.00000   0.00000  -0.00000  -0.00000
   5         R5        -0.00024  -0.00000   0.00000  -0.00000  -0.00000
   6         R6        -0.00024  -0.00000   0.00000  -0.00000  -0.00000
   7         R7        -0.00024  -0.00000   0.00000  -0.00000  -0.00000
   8         A1        -0.00007   0.10579   0.00009   0.00002   0.19201
   9         A2        -0.00007  -0.21918  -0.00020   0.00002  -0.00439
  10         A3        -0.00007   0.11339   0.00012  -0.00005  -0.18762
  11         A4         0.00008  -0.21303  -0.00023   0.00008   0.35249
  12         A5         0.00008   0.41178   0.00038  -0.00004   0.00825
  13         A6         0.00008  -0.19875  -0.00016  -0.00003  -0.36073
  14         A7        -0.00007   0.00019  -0.21547  -0.04040  -0.00001
  15         A8        -0.00007  -0.00015   0.14273  -0.16640   0.00004
  16         A9        -0.00007  -0.00004   0.07275   0.20680  -0.00003
  17         A10        0.00008   0.00008  -0.13667  -0.38852   0.00005
  18         A11        0.00008   0.00028  -0.26814   0.31262  -0.00007
  19         A12        0.00008  -0.00036   0.40480   0.07590   0.00002
  20         D1        -0.33333   0.33873   0.07162  -0.38030  -0.18661
  21         D2        -0.33333   0.33859   0.29397   0.25179  -0.18670
  22         D3        -0.33333   0.33919  -0.36461   0.12830  -0.18673
  23         D4        -0.33333  -0.00786   0.07126  -0.38017   0.38685
  24         D5        -0.33333  -0.00799   0.29360   0.25192   0.38676
  25         D6        -0.33333  -0.00740  -0.36498   0.12844   0.38673
  26         D7        -0.33333  -0.33120   0.07101  -0.38023  -0.20003
  27         D8        -0.33333  -0.33133   0.29335   0.25187  -0.20012
  28         D9        -0.33333  -0.33074  -0.36523   0.12838  -0.20015
                           6         7         8         9        10
     Eigenvalues --     0.15690   0.16000   0.16000   0.16000   0.16000
   1         R1        -0.03790   0.00000   0.00000  -0.00000   0.00000
   2         R2         0.04992  -0.00000  -0.00000   0.00000  -0.00000
   3         R3         0.04996  -0.00000  -0.00000   0.00000  -0.00000
   4         R4         0.04995  -0.00000  -0.00000   0.00000  -0.00000
   5         R5         0.04999  -0.00000  -0.00000   0.00000  -0.00000
   6         R6         0.04997  -0.00000  -0.00000   0.00000  -0.00000
   7         R7         0.04995  -0.00000  -0.00000   0.00000  -0.00000
   8         A1         0.27703   0.15656   0.50898   0.18531   0.29068
   9         A2         0.27738   0.23226   0.28354  -0.40993  -0.25904
  10         A3         0.27738   0.26046  -0.50425   0.18911  -0.40980
  11         A4        -0.29511  -0.20696  -0.42185   0.11956  -0.01684
  12         A5        -0.29510  -0.22197  -0.00252  -0.19930   0.06341
  13         A6        -0.29529  -0.26227   0.11748   0.11754   0.35601
  14         A7         0.27753  -0.24070   0.07584   0.60594  -0.04103
  15         A8         0.27697   0.18617  -0.37797  -0.21363   0.60147
  16         A9         0.27694  -0.59506   0.01386  -0.35738  -0.18163
  17         A10       -0.29516   0.02903   0.16082  -0.20882  -0.29832
  18         A11       -0.29513   0.44487  -0.04775  -0.13231   0.11852
  19         A12       -0.29485   0.21765   0.19381   0.30395  -0.22348
  20         D1        -0.00011   0.00000   0.00000  -0.00000   0.00000
  21         D2        -0.00011   0.00000   0.00000  -0.00000   0.00000
  22         D3        -0.00010   0.00000   0.00000  -0.00000   0.00000
  23         D4        -0.00012   0.00000   0.00000  -0.00000   0.00000
  24         D5        -0.00011   0.00000   0.00000  -0.00000   0.00000
  25         D6        -0.00011   0.00000   0.00000  -0.00000   0.00000
  26         D7        -0.00012   0.00000   0.00000  -0.00000   0.00000
  27         D8        -0.00011   0.00000   0.00000  -0.00000   0.00000
  28         D9        -0.00011   0.00000   0.00000  -0.00000   0.00000
                          11        12        13        14        15
     Eigenvalues --     0.16000   0.29071   0.34786   0.34787   0.34787
   1         R1        -0.00002  -0.97849   0.00032   0.00020  -0.00034
   2         R2         0.00005   0.08025  -0.89143   0.17016   0.00593
   3         R3         0.00005   0.08041   0.14010  -0.23827  -0.08803
   4         R4         0.00005   0.08043   0.36023   0.82590   0.03028
   5         R5         0.00005   0.08045   0.07689  -0.08653  -0.01269
   6         R6         0.00005   0.08043   0.15965  -0.31508  -0.67245
   7         R7         0.00005   0.08029   0.15670  -0.35412   0.73413
   8         A1        -0.44194  -0.01721  -0.00004  -0.00002   0.00004
   9         A2         0.47752  -0.01728  -0.00004  -0.00002   0.00004
  10         A3        -0.26778  -0.01724  -0.00004  -0.00002   0.00004
  11         A4        -0.01894   0.01835   0.00004   0.00002  -0.00004
  12         A5         0.37777   0.01834   0.00004   0.00002  -0.00004
  13         A6        -0.11164   0.01837   0.00004   0.00002  -0.00004
  14         A7         0.40605  -0.01728  -0.00004  -0.00002   0.00004
  15         A8         0.11318  -0.01723  -0.00004  -0.00002   0.00004
  16         A9        -0.28768  -0.01721  -0.00004  -0.00002   0.00004
  17         A10       -0.27638   0.01837   0.00004   0.00002  -0.00004
  18         A11       -0.06301   0.01836   0.00004   0.00002  -0.00004
  19         A12        0.09288   0.01833   0.00004   0.00002  -0.00004
  20         D1        -0.00000  -0.00010  -0.00000  -0.00000   0.00000
  21         D2        -0.00000  -0.00010  -0.00000  -0.00000   0.00000
  22         D3        -0.00000  -0.00009  -0.00000  -0.00000   0.00000
  23         D4        -0.00000  -0.00010  -0.00000  -0.00000   0.00000
  24         D5        -0.00000  -0.00010  -0.00000  -0.00000   0.00000
  25         D6        -0.00000  -0.00009  -0.00000  -0.00000   0.00000
  26         D7        -0.00000  -0.00010  -0.00000  -0.00000   0.00000
  27         D8        -0.00000  -0.00010  -0.00000  -0.00000   0.00000
  28         D9        -0.00000  -0.00009  -0.00000  -0.00000   0.00000
                          16        17        18
     Eigenvalues --     0.34787   0.34787   0.36205
   1         R1         0.00010   0.00008  -0.20280
   2         R2        -0.02928  -0.09111  -0.39783
   3         R3         0.82690  -0.25621  -0.39684
   4         R4        -0.06177  -0.13229  -0.39614
   5         R5         0.03956   0.90457  -0.39707
   6         R6        -0.45788  -0.21712  -0.39660
   7         R7        -0.31678  -0.20777  -0.39828
   8         A1        -0.00001  -0.00001   0.03131
   9         A2        -0.00001  -0.00001   0.03146
  10         A3        -0.00001  -0.00001   0.03137
  11         A4         0.00001   0.00001  -0.03341
  12         A5         0.00001   0.00001  -0.03336
  13         A6         0.00001   0.00001  -0.03344
  14         A7        -0.00001  -0.00001   0.03147
  15         A8        -0.00001  -0.00001   0.03137
  16         A9        -0.00001  -0.00001   0.03132
  17         A10        0.00001   0.00001  -0.03345
  18         A11        0.00001   0.00001  -0.03342
  19         A12        0.00001   0.00001  -0.03337
  20         D1        -0.00000  -0.00000   0.00018
  21         D2        -0.00000  -0.00000   0.00017
  22         D3        -0.00000  -0.00000   0.00017
  23         D4        -0.00000  -0.00000   0.00017
  24         D5        -0.00000  -0.00000   0.00017
  25         D6        -0.00000  -0.00000   0.00017
  26         D7        -0.00000  -0.00000   0.00018
  27         D8        -0.00000  -0.00000   0.00017
  28         D9        -0.00000  -0.00000   0.00017
 Iter=   1 RLamda= 0.00000000D+00 Sum=-2.99155719D-06.
 Iter=   2 RLamda=-2.99155719D-06 Sum=-2.99149914D-06.
 RFO step:  Lambda=-2.99155719D-06 EMin= 4.19455814D-03
 Quartic linear search produced a step of  0.00455.
 Iteration  1 RMS(Cart)=  0.00080788 RMS(Int)=  0.00000071
 Iteration  2 RMS(Cart)=  0.00000068 RMS(Int)=  0.00000037
 ITry= 1 IFail=0 DXMaxC= 1.43D-03 DCOld= 1.00D+10 DXMaxT= 3.00D-01 DXLimC= 3.00D+00 Rises=F
 Variable       Old X    -DE/DX   Delta X   Delta X   Delta X     New X
                                 (Linear)    (Quad)   (Total)
    R1        2.87924  -0.00040  -0.00002  -0.00138  -0.00141   2.87783
    R2        2.07048  -0.00004   0.00005  -0.00001   0.00003   2.07052
    R3        2.07048  -0.00003   0.00005  -0.00001   0.00004   2.07052
    R4        2.07048  -0.00003   0.00005  -0.00001   0.00004   2.07052
    R5        2.07048  -0.00003   0.00005  -0.00001   0.00004   2.07052
    R6        2.07048  -0.00003   0.00005  -0.00001   0.00004   2.07052
    R7        2.07048  -0.00004   0.00005  -0.00001   0.00003   2.07052
    A1        1.94230   0.00017   0.00000   0.00109   0.00109   1.94339
    A2        1.94230   0.00017   0.00000   0.00110   0.00110   1.94340
    A3        1.94230   0.00017   0.00000   0.00109   0.00110   1.94340
    A4        1.87793  -0.00018  -0.00000  -0.00116  -0.00117   1.87676
    A5        1.87793  -0.00018  -0.00000  -0.00116  -0.00117   1.87677
    A6        1.87793  -0.00018  -0.00000  -0.00117  -0.00117   1.87676
    A7        1.94230   0.00017   0.00000   0.00110   0.00110   1.94340
    A8        1.94230   0.00017   0.00000   0.00109   0.00110   1.94340
    A9        1.94230   0.00017   0.00000   0.00109   0.00109   1.94339
   A10        1.87793  -0.00018  -0.00000  -0.00117  -0.00117   1.87676
   A11        1.87793  -0.00018  -0.00000  -0.00117  -0.00117   1.87676
   A12        1.87793  -0.00018  -0.00000  -0.00116  -0.00117   1.87677
    D1        1.04636   0.00000   0.00000   0.00049   0.00050   1.04685
    D2       -1.04803   0.00000   0.00000   0.00049   0.00050  -1.04754
    D3        3.14075   0.00000   0.00000   0.00049   0.00049   3.14125
    D4        3.14075   0.00000   0.00000   0.00049   0.00050   3.14125
    D5        1.04636   0.00000   0.00000   0.00049   0.00050   1.04685
    D6       -1.04804   0.00000   0.00000   0.00049   0.00049  -1.04754
    D7       -1.04804   0.00000   0.00000   0.00049   0.00050  -1.04754
    D8        3.14075   0.00000   0.00000   0.00049   0.00050   3.14125
    D9        1.04636   0.00000   0.00000   0.00049   0.00049   1.04685
         Item               Value     Threshold  Converged?
 Maximum Force            0.000398     0.000450     YES
 RMS     Force            0.000140     0.000300     YES
 Maximum Displacement     0.001427     0.001800     YES
 RMS     Displacement     0.000808     0.001200     YES
 Predicted change in Energy=-1.497405D-06
 Optimization completed.
    -- Stationary point found.
                           ----------------------------
                           !   Optimized Parameters   !
                           ! (Angstroms and Degrees)  !
 --------------------------                            --------------------------
 ! Name  Definition              Value          Derivative Info.                !
 --------------------------------------------------------------------------------
 ! R1    R(1,2)                  1.5236         -DE/DX =   -0.0004              !
 ! R2    R(1,4)                  1.0957         -DE/DX =    0.0                 !
 ! R3    R(1,7)                  1.0957         -DE/DX =    0.0                 !
 ! R4    R(1,8)                  1.0957         -DE/DX =    0.0                 !
 ! R5    R(2,3)                  1.0957         -DE/DX =    0.0                 !
 ! R6    R(2,5)                  1.0957         -DE/DX =    0.0                 !
 ! R7    R(2,6)                  1.0957         -DE/DX =    0.0                 !
 ! A1    A(2,1,4)              111.2856         -DE/DX =    0.0002              !
 ! A2    A(2,1,7)              111.2854         -DE/DX =    0.0002              !
 ! A3    A(2,1,8)              111.2856         -DE/DX =    0.0002              !
 ! A4    A(4,1,7)              107.5975         -DE/DX =   -0.0002              !
 ! A5    A(4,1,8)              107.5976         -DE/DX =   -0.0002              !
 ! A6    A(7,1,8)              107.5975         -DE/DX =   -0.0002              !
 ! A7    A(1,2,3)              111.2855         -DE/DX =    0.0002              !
 ! A8    A(1,2,5)              111.2856         -DE/DX =    0.0002              !
 ! A9    A(1,2,6)              111.2856         -DE/DX =    0.0002              !
 ! A10   A(3,2,5)              107.5975         -DE/DX =   -0.0002              !
 ! A11   A(3,2,6)              107.5976         -DE/DX =   -0.0002              !
 ! A12   A(5,2,6)              107.5976         -DE/DX =   -0.0002              !
 ! D1    D(4,1,2,3)             59.9519         -DE/DX =    0.0                 !
 ! D2    D(4,1,2,5)            -60.048          -DE/DX =    0.0                 !
 ! D3    D(4,1,2,6)            179.952          -DE/DX =    0.0                 !
 ! D4    D(7,1,2,3)            179.9519         -DE/DX =    0.0                 !
 ! D5    D(7,1,2,5)             59.952          -DE/DX =    0.0                 !
 ! D6    D(7,1,2,6)            -60.0481         -DE/DX =    0.0                 !
 ! D7    D(8,1,2,3)            -60.0482         -DE/DX =    0.0                 !
 ! D8    D(8,1,2,5)            179.9519         -DE/DX =    0.0                 !
 ! D9    D(8,1,2,6)             59.9518         -DE/DX =    0.0                 !
 --------------------------------------------------------------------------------
 Lowest energy point so far.  Saving SCF results.
 Largest change from initial coordinates is atom    7       2.046 Angstoms.
 GradGradGradGradGradGradGradGradGradGradGradGradGradGradGradGradGradGrad

 Leave Link  103 at Wed Oct  7 14:29:44 2020, MaxMem=  2684354560 cpu:               4.0 elap:               0.9
 (Enter /udrive/faculty/rpeverati/g16/g16/l202.exe)
                          Input orientation:                          
 ---------------------------------------------------------------------
 Center     Atomic      Atomic             Coordinates (Angstroms)
 Number     Number       Type             X           Y           Z
 ---------------------------------------------------------------------
      1          6           0       -0.761813   -0.000001   -0.000000
      2          6           0        0.761814    0.000000    0.000002
      3          1           0        1.159552   -0.445327   -0.918660
      4          1           0       -1.159553   -1.018186   -0.074522
      5          1           0        1.159553   -0.572922    0.844996
      6          1           0        1.159553    1.018248    0.073669
      7          1           0       -1.159552    0.444554    0.919035
      8          1           0       -1.159553    0.573631   -0.844513
 ---------------------------------------------------------------------
                    Distance matrix (angstroms):
                    1          2          3          4          5
     1  C    0.000000
     2  C    1.523627   0.000000
     3  H    2.175752   1.095651   0.000000
     4  H    1.095652   2.175754   2.533572   0.000000
     5  H    2.175754   1.095652   1.768266   2.534171   0.000000
     6  H    2.175754   1.095652   1.768267   3.089867   1.768267
     7  H    1.095651   2.175752   3.089864   1.768266   2.533572
     8  H    1.095651   2.175754   2.534171   1.768267   3.089867
                    6          7          8
     6  H    0.000000
     7  H    2.534170   0.000000
     8  H    2.533574   1.768266   0.000000
 Stoichiometry    C2H6
 Framework group  C1[X(C2H6)]
 Deg. of freedom    18
 Full point group                 C1      NOp   1
 RotChk:  IX=0 Diff= 2.58D-11
 Largest Abelian subgroup         C1      NOp   1
 Largest concise Abelian subgroup C1      NOp   1
                         Standard orientation:                         
 ---------------------------------------------------------------------
 Center     Atomic      Atomic             Coordinates (Angstroms)
 Number     Number       Type             X           Y           Z
 ---------------------------------------------------------------------
      1          6           0       -0.761813   -0.000000   -0.000000
      2          6           0        0.761814    0.000000   -0.000000
      3          1           0        1.159551   -0.386661   -0.944854
      4          1           0       -1.159553   -1.011482   -0.138417
      5          1           0        1.159553   -0.624938    0.807284
      6          1           0        1.159553    1.011598    0.137569
      7          1           0       -1.159551    0.385867    0.945179
      8          1           0       -1.159554    0.625616   -0.806759
 ---------------------------------------------------------------------
 Rotational constants (GHZ):          80.1874895          20.0464754          20.0464709
 Leave Link  202 at Wed Oct  7 14:29:44 2020, MaxMem=  2684354560 cpu:               1.1 elap:               0.5
 (Enter /udrive/faculty/rpeverati/g16/g16/l601.exe)
 Copying SCF densities to generalized density rwf, IOpCl= 0 IROHF=0.

 **********************************************************************

            Population analysis using the SCF density.

 **********************************************************************

 Orbital symmetries:
       Occupied  (A) (A) (A) (A) (A) (A) (A) (A) (A)
       Virtual   (A) (A) (A) (A) (A) (A) (A) (A) (A) (A) (A) (A)
                 (A) (A) (A) (A) (A) (A) (A) (A) (A) (A) (A) (A)
                 (A) (A) (A) (A) (A) (A) (A)
 The electronic state is 1-A.
 Alpha  occ. eigenvalues --  -10.20959 -10.20941  -0.77082  -0.62883  -0.44296
 Alpha  occ. eigenvalues --   -0.44296  -0.37484  -0.34824  -0.34824
 Alpha virt. eigenvalues --    0.11874   0.17205   0.17609   0.17609   0.20330
 Alpha virt. eigenvalues --    0.20330   0.25394   0.52877   0.56322   0.56322
 Alpha virt. eigenvalues --    0.65622   0.65622   0.69796   0.90870   0.90870
 Alpha virt. eigenvalues --    0.93395   0.94693   0.94693   1.00772   1.09374
 Alpha virt. eigenvalues --    1.46475   1.53151   1.53151   1.95492   1.99499
 Alpha virt. eigenvalues --    1.99499   2.29077   2.29078   2.34992   2.34992
 Alpha virt. eigenvalues --    2.61330
          Condensed to atoms (all electrons):
               1          2          3          4          5          6
     1  C    5.117707   0.355192  -0.035553   0.385182  -0.035553  -0.035553
     2  C    0.355192   5.117707   0.385182  -0.035553   0.385182   0.385182
     3  H   -0.035553   0.385182   0.540175  -0.003683  -0.030419  -0.030418
     4  H    0.385182  -0.035553  -0.003683   0.540175  -0.003668   0.004455
     5  H   -0.035553   0.385182  -0.030419  -0.003668   0.540175  -0.030419
     6  H   -0.035553   0.385182  -0.030418   0.004455  -0.030419   0.540175
     7  H    0.385182  -0.035553   0.004455  -0.030419  -0.003683  -0.003668
     8  H    0.385182  -0.035553  -0.003668  -0.030418   0.004455  -0.003683
               7          8
     1  C    0.385182   0.385182
     2  C   -0.035553  -0.035553
     3  H    0.004455  -0.003668
     4  H   -0.030419  -0.030418
     5  H   -0.003683   0.004455
     6  H   -0.003668  -0.003683
     7  H    0.540175  -0.030419
     8  H   -0.030419   0.540175
 Mulliken charges:
               1
     1  C   -0.521786
     2  C   -0.521786
     3  H    0.173929
     4  H    0.173929
     5  H    0.173929
     6  H    0.173929
     7  H    0.173929
     8  H    0.173929
 Sum of Mulliken charges =  -0.00000
 Mulliken charges with hydrogens summed into heavy atoms:
               1
     1  C    0.000000
     2  C   -0.000000
 Electronic spatial extent (au):  <R**2>=            109.0572
 Charge=             -0.0000 electrons
 Dipole moment (field-independent basis, Debye):
    X=             -0.0000    Y=             -0.0000    Z=              0.0000  Tot=              0.0000
 Quadrupole moment (field-independent basis, Debye-Ang):
   XX=            -15.1787   YY=            -14.6348   ZZ=            -14.6348
   XY=             -0.0000   XZ=              0.0000   YZ=             -0.0000
 Traceless Quadrupole moment (field-independent basis, Debye-Ang):
   XX=             -0.3626   YY=              0.1813   ZZ=              0.1813
   XY=             -0.0000   XZ=              0.0000   YZ=             -0.0000
 Octapole moment (field-independent basis, Debye-Ang**2):
  XXX=             -0.0000  YYY=              0.0006  ZZZ=              0.0013  XYY=             -0.0000
  XXY=             -0.0000  XXZ=              0.0000  XZZ=              0.0000  YZZ=             -0.0006
  YYZ=             -0.0013  XYZ=              0.0000
 Hexadecapole moment (field-independent basis, Debye-Ang**3):
 XXXX=            -92.0486 YYYY=            -28.2827 ZZZZ=            -28.2827 XXXY=              0.0000
 XXXZ=              0.0000 YYYX=              1.2914 YYYZ=             -0.0000 ZZZX=             -0.5563
 ZZZY=              0.0000 XXYY=            -18.7677 XXZZ=            -18.7677 YYZZ=             -9.4276
 XXYZ=             -0.0000 YYXZ=              0.5563 ZZXY=             -1.2914
 N-N= 4.220609633872D+01 E-N=-2.685034017992D+02  KE= 7.924702636757D+01
 No NMR shielding tensors so no spin-rotation constants.
 Leave Link  601 at Wed Oct  7 14:29:45 2020, MaxMem=  2684354560 cpu:               6.7 elap:               0.9
 (Enter /udrive/faculty/rpeverati/g16/g16/l9999.exe)

 Test job not archived.
 1\1\GINC-NODE53\FOpt\RPBE1PBE\6-31G(d)\C2H6\RPEVERATI\07-Oct-2020\0\\#
 P Opt(MaxCyc=100) PBE1PBE/6-31G* 5D 7F Integral=UltraFineGrid SCF=(NoS
 ymm,XQC,MaxCyc=120) EmpiricalDispersion=GD3BJ IOp(1/33=1)\\TS search o
 n BH76.\\0,1\C,-0.7618134366,-0.0000007081,-0.0000003141\C,0.761813534
 6,0.0000001796,0.0000017223\H,1.1595524131,-0.4453267695,-0.918659877\
 H,-1.1595528955,-1.0181864232,-0.0745216341\H,1.1595525894,-0.57292211
 41,0.8449963565\H,1.1595529449,1.0182481121,0.0736693205\H,-1.15955230
 95,0.4445543803,0.9190351051\H,-1.1595528405,0.5736306972,-0.844513270
 8\\Version=ES64L-G16RevA.03\State=1-A\HF=-79.7214502\RMSD=4.621e-10\RM
 SF=2.643e-04\Dipole=0.,0.,0.0000001\Quadrupole=-0.2695559,0.1347808,0.
 1347751,0.,0.0000031,-0.0000004\PG=C01 [X(C2H6)]\\@


 ONE OF THE BENEFITS OF A COLLEGE EDUCATION
 IS TO SHOW THE BOY ITS LITTLE AVAIL 
                                    EMERSON IN 'CULTURE'
 Job cpu time:       0 days  0 hours  3 minutes 42.3 seconds.
 Elapsed time:       0 days  0 hours  0 minutes 33.0 seconds.
 File lengths (MBytes):  RWF=      5 Int=      0 D2E=      0 Chk=      1 Scr=      1
 Normal termination of Gaussian 16 at Wed Oct  7 14:29:47 2020.
