 Entering Gaussian System, Link 0=g16
 Input=MN_20_ch3f_BH76_PBE0DBJ_631Gs.in
 Output=MN_20_ch3f_BH76_PBE0DBJ_631Gs.log
 Initial command:
 /udrive/faculty/rpeverati/g16/g16/l1.exe "/udrive/scratch-directories/gaussian09/rpeverati/Gau-22566.inp" -scrdir="/udrive/scratch-directories/gaussian09/rpeverati/"
 Entering Link 1 = /udrive/faculty/rpeverati/g16/g16/l1.exe PID=     22581.
  
 Copyright (c) 1988,1990,1992,1993,1995,1998,2003,2009,2016,
            Gaussian, Inc.  All Rights Reserved.
  
 This is part of the Gaussian(R) 16 program.  It is based on
 the Gaussian(R) 09 system (copyright 2009, Gaussian, Inc.),
 the Gaussian(R) 03 system (copyright 2003, Gaussian, Inc.),
 the Gaussian(R) 98 system (copyright 1998, Gaussian, Inc.),
 the Gaussian(R) 94 system (copyright 1995, Gaussian, Inc.),
 the Gaussian 92(TM) system (copyright 1992, Gaussian, Inc.),
 the Gaussian 90(TM) system (copyright 1990, Gaussian, Inc.),
 the Gaussian 88(TM) system (copyright 1988, Gaussian, Inc.),
 the Gaussian 86(TM) system (copyright 1986, Carnegie Mellon
 University), and the Gaussian 82(TM) system (copyright 1983,
 Carnegie Mellon University). Gaussian is a federally registered
 trademark of Gaussian, Inc.
  
 This software contains proprietary and confidential information,
 including trade secrets, belonging to Gaussian, Inc.
  
 This software is provided under written license and may be
 used, copied, transmitted, or stored only in accord with that
 written license.
  
 The following legend is applicable only to US Government
 contracts under FAR:
  
                    RESTRICTED RIGHTS LEGEND
  
 Use, reproduction and disclosure by the US Government is
 subject to restrictions as set forth in subparagraphs (a)
 and (c) of the Commercial Computer Software - Restricted
 Rights clause in FAR 52.227-19.
  
 Gaussian, Inc.
 340 Quinnipiac St., Bldg. 40, Wallingford CT 06492
  
  
 ---------------------------------------------------------------
 Warning -- This program may not be used in any manner that
 competes with the business of Gaussian, Inc. or will provide
 assistance to any competitor of Gaussian, Inc.  The licensee
 of this program is prohibited from giving any competitor of
 Gaussian, Inc. access to this program.  By using this program,
 the user acknowledges that Gaussian, Inc. is engaged in the
 business of creating and licensing software in the field of
 computational chemistry and represents and warrants to the
 licensee that it is not a competitor of Gaussian, Inc. and that
 it will not use this program in any manner prohibited above.
 ---------------------------------------------------------------
  

 Cite this work as:
 Gaussian 16, Revision A.03,
 M. J. Frisch, G. W. Trucks, H. B. Schlegel, G. E. Scuseria, 
 M. A. Robb, J. R. Cheeseman, G. Scalmani, V. Barone, 
 G. A. Petersson, H. Nakatsuji, X. Li, M. Caricato, A. V. Marenich, 
 J. Bloino, B. G. Janesko, R. Gomperts, B. Mennucci, H. P. Hratchian, 
 J. V. Ortiz, A. F. Izmaylov, J. L. Sonnenberg, D. Williams-Young, 
 F. Ding, F. Lipparini, F. Egidi, J. Goings, B. Peng, A. Petrone, 
 T. Henderson, D. Ranasinghe, V. G. Zakrzewski, J. Gao, N. Rega, 
 G. Zheng, W. Liang, M. Hada, M. Ehara, K. Toyota, R. Fukuda, 
 J. Hasegawa, M. Ishida, T. Nakajima, Y. Honda, O. Kitao, H. Nakai, 
 T. Vreven, K. Throssell, J. A. Montgomery, Jr., J. E. Peralta, 
 F. Ogliaro, M. J. Bearpark, J. J. Heyd, E. N. Brothers, K. N. Kudin, 
 V. N. Staroverov, T. A. Keith, R. Kobayashi, J. Normand, 
 K. Raghavachari, A. P. Rendell, J. C. Burant, S. S. Iyengar, 
 J. Tomasi, M. Cossi, J. M. Millam, M. Klene, C. Adamo, R. Cammi, 
 J. W. Ochterski, R. L. Martin, K. Morokuma, O. Farkas, 
 J. B. Foresman, and D. J. Fox, Gaussian, Inc., Wallingford CT, 2016.
 
 ******************************************
 Gaussian 16:  ES64L-G16RevA.03 25-Dec-2016
                 7-Oct-2020 
 ******************************************
 %NoSave
 %nproc=12
 Will use up to   12 processors via shared memory.
 %mem=20GB
 %chk=MN_20_ch3f_BH76_PBE0DBJ_631Gs
 ----------------------------------------------------------------------
 #P Opt(MaxCyc=100) PBE1PBE/6-31G* 5D 7F Integral=UltraFineGrid SCF=(No
 Symm,XQC,MaxCyc=120) EmpiricalDispersion=GD3BJ IOp(1/33=1)
 ----------------------------------------------------------------------
 1/6=100,18=20,19=15,26=4,33=1,38=1/1,3;
 2/9=110,12=2,17=6,18=5,40=1/2;
 3/5=1,6=6,7=1,8=11,11=2,25=1,30=1,71=1,74=-13,75=-5,124=41/1,2,3;
 4/9=2/1;
 5/5=2,7=120,8=3,13=1,38=5/2,8;
 6/7=2,8=2,9=2,10=2,28=1/1;
 7//1,2,3,16;
 1/6=100,18=20,19=15,26=4,33=1/3(2);
 2/9=110/2;
 99//99;
 2/9=110/2;
 3/5=1,6=6,7=1,8=11,11=2,25=1,30=1,71=1,74=-13,75=-5,124=41/1,2,3;
 4/5=5,9=2,16=3,69=1/1;
 5/5=2,7=120,8=3,13=1,38=5/2,8;
 7//1,2,3,16;
 1/6=100,18=20,19=15,26=4,33=1/3(-5);
 2/9=110/2;
 6/7=2,8=2,9=2,10=2,19=2,28=1/1;
 99/9=1/99;
 Leave Link    1 at Wed Oct  7 14:30:06 2020, MaxMem=  2684354560 cpu:               4.6 elap:               0.5
 (Enter /udrive/faculty/rpeverati/g16/g16/l101.exe)
 ONIOM data not found on unit 2.
 ------------------
 TS search on BH76.
 ------------------
 TstMul:  ICh=     0
 TstMul:  Mul=     1
 TstMul:  ICh=     0
 TstMul:  Mul=     1
 Symbolic Z-matrix:
 Charge =  0 Multiplicity = 1
 C                     0.        0.        0.06557 
 F                     0.        0.       -1.31563 
 H                     0.51492  -0.89186   0.41669 
 H                     0.51492   0.89186   0.41669 
 H                    -1.02983   0.        0.41669 
 
 RdStrC is calling ZToCFu for IStruc=1 NZ=     5.
 PrtBox:  NBox=     1 Levels=  1 BoxLen=    8.00 SMaxX=        3.37
          Shift=            1.946102            1.685373            2.486178
 Box      1 Number                   0 centers from      1 to      5:
 After GenITR:
 ITRead=  0  0  0  0  0
 MicOpt= -1 -1 -1 -1 -1
 ITRead=  0  0  0  0  0
 MicOpt= -1 -1 -1 -1 -1
 NAtoms=      5 NQM=        5 NQMF=       0 NMMI=      0 NMMIF=      0
                NMic=       0 NMicF=      0.
                    Isotopes and Nuclear Properties:
 (Nuclear quadrupole moments (NQMom) in fm**2, nuclear magnetic moments (NMagM)
  in nuclear magnetons)

  Atom         1           2           3           4           5
 IAtWgt=          12          19           1           1           1
 AtmWgt=  12.0000000  18.9984033   1.0078250   1.0078250   1.0078250
 NucSpn=           0           1           1           1           1
 AtZEff=   0.0000000   0.0000000   0.0000000   0.0000000   0.0000000
 NQMom=    0.0000000   0.0000000   0.0000000   0.0000000   0.0000000
 NMagM=    0.0000000   2.6288670   2.7928460   2.7928460   2.7928460
 AtZNuc=   6.0000000   9.0000000   1.0000000   1.0000000   1.0000000
 No MM parameters found.
 Leave Link  101 at Wed Oct  7 14:30:06 2020, MaxMem=  2684354560 cpu:               4.1 elap:               0.5
 (Enter /udrive/faculty/rpeverati/g16/g16/l103.exe)

 GradGradGradGradGradGradGradGradGradGradGradGradGradGradGradGradGradGrad
 Berny optimization.
 Optmz: redundant internal coordinate code flag= 1
 Initialization pass.
                           ----------------------------
                           !    Initial Parameters    !
                           ! (Angstroms and Degrees)  !
 --------------------------                            --------------------------
 ! Name  Definition              Value          Derivative Info.                !
 --------------------------------------------------------------------------------
 ! R1    R(1,2)                  1.3812         estimate D2E/DX2                !
 ! R2    R(1,3)                  1.088          estimate D2E/DX2                !
 ! R3    R(1,4)                  1.088          estimate D2E/DX2                !
 ! R4    R(1,5)                  1.088          estimate D2E/DX2                !
 ! A1    A(2,1,3)              108.8268         estimate D2E/DX2                !
 ! A2    A(2,1,4)              108.8268         estimate D2E/DX2                !
 ! A3    A(2,1,5)              108.8268         estimate D2E/DX2                !
 ! A4    A(3,1,4)              110.1079         estimate D2E/DX2                !
 ! A5    A(3,1,5)              110.1079         estimate D2E/DX2                !
 ! A6    A(4,1,5)              110.1079         estimate D2E/DX2                !
 ! D1    D(2,1,4,3)           -119.2029         estimate D2E/DX2                !
 ! D2    D(2,1,5,3)            119.2029         estimate D2E/DX2                !
 ! D3    D(2,1,5,4)           -119.2029         estimate D2E/DX2                !
 ! D4    D(3,1,5,4)            121.5942         estimate D2E/DX2                !
 --------------------------------------------------------------------------------
 Maximum allowed force set to 1.00D+20.
 Trust Radius=3.00D-01 FncErr=1.00D-07 GrdErr=1.00D-06 EigMax=2.50D+02 EigMin=1.00D-04
 Number of steps in this run=    100 maximum allowed number of steps=    100.
 GradGradGradGradGradGradGradGradGradGradGradGradGradGradGradGradGradGrad

 Leave Link  103 at Wed Oct  7 14:30:07 2020, MaxMem=  2684354560 cpu:               0.4 elap:               0.2
 (Enter /udrive/faculty/rpeverati/g16/g16/l202.exe)
                          Input orientation:                          
 ---------------------------------------------------------------------
 Center     Atomic      Atomic             Coordinates (Angstroms)
 Number     Number       Type             X           Y           Z
 ---------------------------------------------------------------------
      1          6           0        0.000000    0.000000    0.065566
      2          9           0        0.000000    0.000000   -1.315628
      3          1           0        0.514916   -0.891861    0.416687
      4          1           0        0.514916    0.891861    0.416687
      5          1           0       -1.029833    0.000000    0.416687
 ---------------------------------------------------------------------
                    Distance matrix (angstroms):
                    1          2          3          4          5
     1  C    0.000000
     2  F    1.381195   0.000000
     3  H    1.088045   2.015310   0.000000
     4  H    1.088045   2.015310   1.783722   0.000000
     5  H    1.088045   2.015310   1.783722   1.783722   0.000000
 Stoichiometry    CH3F
 Framework group  C3V[C3(CF),3SGV(H)]
 Deg. of freedom     3
 Full point group                 C3V     NOp   6
 Largest Abelian subgroup         CS      NOp   2
 Largest concise Abelian subgroup CS      NOp   2
                         Standard orientation:                         
 ---------------------------------------------------------------------
 Center     Atomic      Atomic             Coordinates (Angstroms)
 Number     Number       Type             X           Y           Z
 ---------------------------------------------------------------------
      1          6           0        0.000000    0.000000   -0.632077
      2          9           0        0.000000    0.000000    0.749118
      3          1           0        0.000000    1.029833   -0.983198
      4          1           0        0.891861   -0.514916   -0.983198
      5          1           0       -0.891861   -0.514916   -0.983198
 ---------------------------------------------------------------------
 Rotational constants (GHZ):         157.6077386          25.8045316          25.8045316
 Leave Link  202 at Wed Oct  7 14:30:07 2020, MaxMem=  2684354560 cpu:               1.0 elap:               0.3
 (Enter /udrive/faculty/rpeverati/g16/g16/l301.exe)
 Standard basis: 6-31G(d) (5D, 7F)
 Ernie: Thresh=  0.10000D-02 Tol=  0.10000D-05 Strict=F.
 There are    26 symmetry adapted cartesian basis functions of A'  symmetry.
 There are    10 symmetry adapted cartesian basis functions of A"  symmetry.
 There are    24 symmetry adapted basis functions of A'  symmetry.
 There are    10 symmetry adapted basis functions of A"  symmetry.
    34 basis functions,    68 primitive gaussians,    36 cartesian basis functions
     9 alpha electrons        9 beta electrons
       nuclear repulsion energy        37.4230645144 Hartrees.
 IExCor= 1009 DFT=T Ex+Corr=PBE1PBE ExCW=0 ScaHFX=  0.250000
 ScaDFX=  0.750000  0.750000  1.000000  1.000000 ScalE2=  1.000000  1.000000
 IRadAn=      5 IRanWt=     -1 IRanGd=            0 ICorTp=0 IEmpDi=141
 NAtoms=    5 NActive=    5 NUniq=    3 SFac= 2.78D+00 NAtFMM=   60 NAOKFM=F Big=F
 Integral buffers will be    131072 words long.
 Raffenetti 2 integral format.
 Two-electron integral symmetry is turned on.
 R6Disp:  Grimme-D3(BJ) Dispersion energy=       -0.0010172134 Hartrees.
 Nuclear repulsion after empirical dispersion term =       37.4220473010 Hartrees.
 Leave Link  301 at Wed Oct  7 14:30:08 2020, MaxMem=  2684354560 cpu:               2.1 elap:               0.4
 (Enter /udrive/faculty/rpeverati/g16/g16/l302.exe)
 NPDir=0 NMtPBC=     1 NCelOv=     1 NCel=       1 NClECP=     1 NCelD=      1
         NCelK=      1 NCelE2=     1 NClLst=     1 CellRange=     0.0.
 One-electron integrals computed using PRISM.
 One-electron integral symmetry used in STVInt
 NBasis=    34 RedAO= T EigKep=  1.87D-02  NBF=    24    10
 NBsUse=    34 1.00D-06 EigRej= -1.00D+00 NBFU=    24    10
 Precomputing XC quadrature grid using
 IXCGrd= 4 IRadAn=           5 IRanWt=          -1 IRanGd=           0 AccXCQ= 0.00D+00.
 Generated NRdTot=       0 NPtTot=           0 NUsed=           0 NTot=          32
 NSgBfM=    36    36    36    36    36 MxSgAt=     5 MxSgA2=     5.
 Leave Link  302 at Wed Oct  7 14:30:08 2020, MaxMem=  2684354560 cpu:               3.3 elap:               0.6
 (Enter /udrive/faculty/rpeverati/g16/g16/l303.exe)
 DipDrv:  MaxL=1.
 Leave Link  303 at Wed Oct  7 14:30:09 2020, MaxMem=  2684354560 cpu:               0.9 elap:               0.4
 (Enter /udrive/faculty/rpeverati/g16/g16/l401.exe)
 SCF N**3 symmetry information disabled.
 ExpMin= 1.61D-01 ExpMax= 7.00D+03 ExpMxC= 1.05D+03 IAcc=3 IRadAn=         5 AccDes= 0.00D+00
 Harris functional with IExCor= 1009 and IRadAn=       5 diagonalized for initial guess.
 HarFok:  IExCor= 1009 AccDes= 0.00D+00 IRadAn=         5 IDoV= 1 UseB2=F ITyADJ=14
 ICtDFT=  3500011 ScaDFX=  1.000000  1.000000  1.000000  1.000000
 FoFCou: FMM=F IPFlag=           0 FMFlag=      100000 FMFlg1=           0
         NFxFlg=           0 DoJE=T BraDBF=F KetDBF=T FulRan=T
         wScrn=  0.000000 ICntrl=       500 IOpCl=  0 I1Cent=   200000004 NGrid=           0
         NMat0=    1 NMatS0=      1 NMatT0=    0 NMatD0=    1 NMtDS0=    0 NMtDT0=    0
 Petite list used in FoFCou.
 Harris En= -139.605897950640    
 JPrj=0 DoOrth=F DoCkMO=F.
 Initial guess orbital symmetries:
       Occupied  (A1) (A1) (A1) (A1) (A1) (E) (E) (E) (E)
       Virtual   (A1) (A1) (E) (E) (A1) (E) (E) (E) (E) (A1) (A1)
                 (A1) (E) (E) (E) (E) (E) (E) (A1) (A1) (E) (E)
                 (E) (E) (A1)
 The electronic state of the initial guess is 1-A1.
 Leave Link  401 at Wed Oct  7 14:30:10 2020, MaxMem=  2684354560 cpu:               5.3 elap:               0.8
 (Enter /udrive/faculty/rpeverati/g16/g16/l502.exe)
 Keep R1 ints in memory in symmetry-blocked form, NReq=10532139.
 FoFCou: FMM=F IPFlag=           0 FMFlag=           0 FMFlg1=           0
         NFxFlg=           0 DoJE=F BraDBF=F KetDBF=F FulRan=T
         wScrn=  0.000000 ICntrl=       600 IOpCl=  0 I1Cent=           0 NGrid=           0
         NMat0=    1 NMatS0=    595 NMatT0=    0 NMatD0=    1 NMtDS0=    0 NMtDT0=    0
 Petite list used in FoFCou.
 Closed shell SCF:
 Using DIIS extrapolation, IDIIS=  1040.
 NGot=  2684354560 LenX=  2684257087 LenY=  2684255350
 Requested convergence on RMS density matrix=1.00D-08 within 120 cycles.
 Requested convergence on MAX density matrix=1.00D-06.
 Requested convergence on             energy=1.00D-06.
 No special actions if energy rises.
 Integral accuracy reduced to 1.0D-05 until final iterations.

 Cycle   1  Pass 0  IDiag  1:
 E= -139.553025538902    
 DIIS: error= 3.57D-02 at cycle   1 NSaved=   1.
 NSaved= 1 IEnMin= 1 EnMin= -139.553025538902     IErMin= 1 ErrMin= 3.57D-02
 ErrMax= 3.57D-02  0.00D+00 EMaxC= 1.00D-01 BMatC= 3.19D-02 BMatP= 3.19D-02
 IDIUse=3 WtCom= 6.43D-01 WtEn= 3.57D-01
 Coeff-Com:  0.100D+01
 Coeff-En:   0.100D+01
 Coeff:      0.100D+01
 Gap=     0.473 Goal=   None    Shift=    0.000
 GapD=    0.473 DampG=2.000 DampE=0.500 DampFc=1.0000 IDamp=-1.
 RMSDP=8.74D-03 MaxDP=8.35D-02              OVMax= 7.82D-02

 Cycle   2  Pass 0  IDiag  1:
 E= -139.561716731436     Delta-E=       -0.008691192534 Rises=F Damp=F
 DIIS: error= 2.94D-02 at cycle   2 NSaved=   2.
 NSaved= 2 IEnMin= 2 EnMin= -139.561716731436     IErMin= 2 ErrMin= 2.94D-02
 ErrMax= 2.94D-02  0.00D+00 EMaxC= 1.00D-01 BMatC= 2.55D-02 BMatP= 3.19D-02
 IDIUse=3 WtCom= 7.06D-01 WtEn= 2.94D-01
 Coeff-Com:  0.471D+00 0.529D+00
 Coeff-En:   0.406D+00 0.594D+00
 Coeff:      0.452D+00 0.548D+00
 Gap=     0.471 Goal=   None    Shift=    0.000
 RMSDP=4.17D-03 MaxDP=3.86D-02 DE=-8.69D-03 OVMax= 4.04D-02

 Cycle   3  Pass 0  IDiag  1:
 E= -139.583653711606     Delta-E=       -0.021936980170 Rises=F Damp=F
 DIIS: error= 2.46D-03 at cycle   3 NSaved=   3.
 NSaved= 3 IEnMin= 3 EnMin= -139.583653711606     IErMin= 3 ErrMin= 2.46D-03
 ErrMax= 2.46D-03  0.00D+00 EMaxC= 1.00D-01 BMatC= 2.47D-04 BMatP= 2.55D-02
 IDIUse=3 WtCom= 9.75D-01 WtEn= 2.46D-02
 Coeff-Com:  0.767D-01 0.136D+00 0.787D+00
 Coeff-En:   0.000D+00 0.000D+00 0.100D+01
 Coeff:      0.748D-01 0.133D+00 0.792D+00
 Gap=     0.462 Goal=   None    Shift=    0.000
 RMSDP=4.06D-04 MaxDP=3.46D-03 DE=-2.19D-02 OVMax= 4.89D-03

 Cycle   4  Pass 0  IDiag  1:
 E= -139.583798517740     Delta-E=       -0.000144806134 Rises=F Damp=F
 DIIS: error= 9.55D-04 at cycle   4 NSaved=   4.
 NSaved= 4 IEnMin= 4 EnMin= -139.583798517740     IErMin= 4 ErrMin= 9.55D-04
 ErrMax= 9.55D-04  0.00D+00 EMaxC= 1.00D-01 BMatC= 4.95D-05 BMatP= 2.47D-04
 IDIUse=3 WtCom= 9.90D-01 WtEn= 9.55D-03
 Coeff-Com:  0.217D-01 0.426D-01 0.380D+00 0.555D+00
 Coeff-En:   0.000D+00 0.000D+00 0.204D-01 0.980D+00
 Coeff:      0.215D-01 0.422D-01 0.377D+00 0.559D+00
 Gap=     0.464 Goal=   None    Shift=    0.000
 RMSDP=1.45D-04 MaxDP=1.66D-03 DE=-1.45D-04 OVMax= 2.26D-03

 Cycle   5  Pass 0  IDiag  1:
 E= -139.583829154374     Delta-E=       -0.000030636634 Rises=F Damp=F
 DIIS: error= 3.26D-04 at cycle   5 NSaved=   5.
 NSaved= 5 IEnMin= 5 EnMin= -139.583829154374     IErMin= 5 ErrMin= 3.26D-04
 ErrMax= 3.26D-04  0.00D+00 EMaxC= 1.00D-01 BMatC= 3.59D-06 BMatP= 4.95D-05
 IDIUse=3 WtCom= 9.97D-01 WtEn= 3.26D-03
 Coeff-Com: -0.971D-03 0.254D-03 0.747D-01 0.254D+00 0.672D+00
 Coeff-En:   0.000D+00 0.000D+00 0.000D+00 0.000D+00 0.100D+01
 Coeff:     -0.968D-03 0.253D-03 0.745D-01 0.253D+00 0.673D+00
 Gap=     0.463 Goal=   None    Shift=    0.000
 RMSDP=3.09D-05 MaxDP=3.40D-04 DE=-3.06D-05 OVMax= 4.41D-04

 Cycle   6  Pass 0  IDiag  1:
 E= -139.583831864987     Delta-E=       -0.000002710612 Rises=F Damp=F
 DIIS: error= 7.47D-06 at cycle   6 NSaved=   6.
 NSaved= 6 IEnMin= 6 EnMin= -139.583831864987     IErMin= 6 ErrMin= 7.47D-06
 ErrMax= 7.47D-06  0.00D+00 EMaxC= 1.00D-01 BMatC= 1.67D-09 BMatP= 3.59D-06
 IDIUse=1 WtCom= 1.00D+00 WtEn= 0.00D+00
 Coeff-Com: -0.649D-04-0.384D-03-0.186D-02-0.299D-02-0.230D-02 0.101D+01
 Coeff:     -0.649D-04-0.384D-03-0.186D-02-0.299D-02-0.230D-02 0.101D+01
 Gap=     0.463 Goal=   None    Shift=    0.000
 RMSDP=1.34D-06 MaxDP=1.11D-05 DE=-2.71D-06 OVMax= 1.08D-05

 Initial convergence to 1.0D-05 achieved.  Increase integral accuracy.
 Cycle   7  Pass 1  IDiag  1:
 E= -139.583831779855     Delta-E=        0.000000085132 Rises=F Damp=F
 DIIS: error= 8.20D-07 at cycle   1 NSaved=   1.
 NSaved= 1 IEnMin= 1 EnMin= -139.583831779855     IErMin= 1 ErrMin= 8.20D-07
 ErrMax= 8.20D-07  0.00D+00 EMaxC= 1.00D-01 BMatC= 3.78D-11 BMatP= 3.78D-11
 IDIUse=1 WtCom= 1.00D+00 WtEn= 0.00D+00
 Coeff-Com:  0.100D+01
 Coeff:      0.100D+01
 Gap=     0.463 Goal=   None    Shift=    0.000
 RMSDP=1.34D-06 MaxDP=1.11D-05 DE= 8.51D-08 OVMax= 3.15D-06

 Cycle   8  Pass 1  IDiag  1:
 E= -139.583831779846     Delta-E=        0.000000000009 Rises=F Damp=F
 DIIS: error= 1.07D-06 at cycle   2 NSaved=   2.
 NSaved= 2 IEnMin= 1 EnMin= -139.583831779855     IErMin= 1 ErrMin= 8.20D-07
 ErrMax= 1.07D-06  0.00D+00 EMaxC= 1.00D-01 BMatC= 5.66D-11 BMatP= 3.78D-11
 IDIUse=1 WtCom= 1.00D+00 WtEn= 0.00D+00
 Coeff-Com:  0.553D+00 0.447D+00
 Coeff:      0.553D+00 0.447D+00
 Gap=     0.463 Goal=   None    Shift=    0.000
 RMSDP=1.34D-07 MaxDP=1.60D-06 DE= 8.84D-12 OVMax= 2.11D-06

 Cycle   9  Pass 1  IDiag  1:
 E= -139.583831779886     Delta-E=       -0.000000000040 Rises=F Damp=F
 DIIS: error= 1.03D-07 at cycle   3 NSaved=   3.
 NSaved= 3 IEnMin= 3 EnMin= -139.583831779886     IErMin= 3 ErrMin= 1.03D-07
 ErrMax= 1.03D-07  0.00D+00 EMaxC= 1.00D-01 BMatC= 3.58D-13 BMatP= 3.78D-11
 IDIUse=1 WtCom= 1.00D+00 WtEn= 0.00D+00
 Coeff-Com:  0.161D-01 0.749D-01 0.909D+00
 Coeff:      0.161D-01 0.749D-01 0.909D+00
 Gap=     0.463 Goal=   None    Shift=    0.000
 RMSDP=1.76D-08 MaxDP=1.48D-07 DE=-3.95D-11 OVMax= 1.53D-07

 Cycle  10  Pass 1  IDiag  1:
 E= -139.583831779885     Delta-E=        0.000000000000 Rises=F Damp=F
 DIIS: error= 5.29D-08 at cycle   4 NSaved=   4.
 NSaved= 4 IEnMin= 3 EnMin= -139.583831779886     IErMin= 4 ErrMin= 5.29D-08
 ErrMax= 5.29D-08  0.00D+00 EMaxC= 1.00D-01 BMatC= 6.19D-14 BMatP= 3.58D-13
 IDIUse=1 WtCom= 1.00D+00 WtEn= 0.00D+00
 Coeff-Com: -0.166D-01 0.202D-01 0.423D+00 0.573D+00
 Coeff:     -0.166D-01 0.202D-01 0.423D+00 0.573D+00
 Gap=     0.463 Goal=   None    Shift=    0.000
 RMSDP=5.67D-09 MaxDP=6.81D-08 DE= 1.71D-13 OVMax= 5.57D-08

 SCF Done:  E(RPBE1PBE) =  -139.583831780     A.U. after   10 cycles
            NFock= 10  Conv=0.57D-08     -V/T= 2.0041
 KE= 1.390135120779D+02 PE=-4.056934792029D+02 EE= 8.967408804413D+01
 Leave Link  502 at Wed Oct  7 14:30:12 2020, MaxMem=  2684354560 cpu:              11.6 elap:               1.4
 (Enter /udrive/faculty/rpeverati/g16/g16/l508.exe)
 QCSCF skips out because SCF is already converged.
 Leave Link  508 at Wed Oct  7 14:30:13 2020, MaxMem=  2684354560 cpu:               0.4 elap:               0.5
 (Enter /udrive/faculty/rpeverati/g16/g16/l601.exe)
 Copying SCF densities to generalized density rwf, IOpCl= 0 IROHF=0.

 **********************************************************************

            Population analysis using the SCF density.

 **********************************************************************

 Orbital symmetries:
       Occupied  (A1) (A1) (A1) (A1) (A1) (E) (E) (E) (E)
       Virtual   (A1) (A1) (E) (E) (A1) (E) (E) (E) (E) (A1) (A1)
                 (A1) (E) (E) (E) (E) (E) (E) (A1) (A1) (E) (E)
                 (E) (E) (A1)
 The electronic state is 1-A1.
 Alpha  occ. eigenvalues --  -24.74352 -10.28815  -1.20321  -0.71618  -0.48830
 Alpha  occ. eigenvalues --   -0.48758  -0.48758  -0.34391  -0.34391
 Alpha virt. eigenvalues --    0.11953   0.15000   0.18122   0.18122   0.54272
 Alpha virt. eigenvalues --    0.56724   0.56724   0.87522   0.87522   0.90017
 Alpha virt. eigenvalues --    1.00035   1.28009   1.28615   1.28615   1.53216
 Alpha virt. eigenvalues --    1.53216   1.84918   1.84918   1.95734   2.11145
 Alpha virt. eigenvalues --    2.21563   2.21563   2.44279   2.44279   3.00988
          Condensed to atoms (all electrons):
               1          2          3          4          5
     1  C    4.797290   0.240388   0.371262   0.371262   0.371262
     2  F    0.240388   9.203227  -0.031636  -0.031636  -0.031636
     3  H    0.371262  -0.031636   0.574500  -0.040425  -0.040425
     4  H    0.371262  -0.031636  -0.040425   0.574500  -0.040425
     5  H    0.371262  -0.031636  -0.040425  -0.040425   0.574500
 Mulliken charges:
               1
     1  C   -0.151465
     2  F   -0.348707
     3  H    0.166724
     4  H    0.166724
     5  H    0.166724
 Sum of Mulliken charges =  -0.00000
 Mulliken charges with hydrogens summed into heavy atoms:
               1
     1  C    0.348707
     2  F   -0.348707
 Electronic spatial extent (au):  <R**2>=             74.4712
 Charge=             -0.0000 electrons
 Dipole moment (field-independent basis, Debye):
    X=              0.0000    Y=              0.0000    Z=             -1.7536  Tot=              1.7536
 Quadrupole moment (field-independent basis, Debye-Ang):
   XX=            -11.6147   YY=            -11.6147   ZZ=            -11.9524
   XY=             -0.0000   XZ=             -0.0000   YZ=             -0.0000
 Traceless Quadrupole moment (field-independent basis, Debye-Ang):
   XX=              0.1126   YY=              0.1126   ZZ=             -0.2251
   XY=             -0.0000   XZ=             -0.0000   YZ=             -0.0000
 Octapole moment (field-independent basis, Debye-Ang**2):
  XXX=              0.0000  YYY=              0.5212  ZZZ=              4.8345  XYY=              0.0000
  XXY=             -0.5212  XXZ=              1.3717  XZZ=              0.0000  YZZ=              0.0000
  YYZ=              1.3717  XYZ=              0.0000
 Hexadecapole moment (field-independent basis, Debye-Ang**3):
 XXXX=            -16.0493 YYYY=            -16.0493 ZZZZ=            -48.8402 XXXY=              0.0000
 XXXZ=             -0.0000 YYYX=              0.0000 YYYZ=             -0.5862 ZZZX=             -0.0000
 ZZZY=             -0.0000 XXYY=             -5.3498 XXZZ=            -10.6402 YYZZ=            -10.6402
 XXYZ=              0.5862 YYXZ=             -0.0000 ZZXY=             -0.0000
 N-N= 3.742204730100D+01 E-N=-4.056934812856D+02  KE= 1.390135120779D+02
 No NMR shielding tensors so no spin-rotation constants.
 Leave Link  601 at Wed Oct  7 14:30:14 2020, MaxMem=  2684354560 cpu:               4.2 elap:               0.7
 (Enter /udrive/faculty/rpeverati/g16/g16/l701.exe)
 ... and contract with generalized density number  0.
 Compute integral first derivatives.
 R6Disp: Adding Grimme-D3(BJ) dispersion energy 1st derivatives to the gradient.
 Leave Link  701 at Wed Oct  7 14:30:15 2020, MaxMem=  2684354560 cpu:               4.2 elap:               0.7
 (Enter /udrive/faculty/rpeverati/g16/g16/l702.exe)
 L702 exits ... SP integral derivatives will be done elsewhere.
 Leave Link  702 at Wed Oct  7 14:30:15 2020, MaxMem=  2684354560 cpu:               1.1 elap:               0.4
 (Enter /udrive/faculty/rpeverati/g16/g16/l703.exe)
 Integral derivatives from FoFJK, PRISM(SPDF).
 Compute integral first derivatives, UseDBF=F ICtDFT=           0.
 Calling FoFJK, ICntrl=      2127 FMM=F ISym2X=1 I1Cent= 0 IOpClX= 0 NMat=1 NMatS=1 NMatT=0.
 FoFJK:  IHMeth= 1 ICntrl=    2127 DoSepK=F KAlg= 0 I1Cent=           0 FoldK=F
 IRaf=         0 NMat=       1 IRICut=       1 DoRegI=T DoRafI=F ISym2E= 1 IDoP0=0 IntGTp=1.
 FoFCou: FMM=F IPFlag=           0 FMFlag=      100000 FMFlg1=         800
         NFxFlg=           0 DoJE=F BraDBF=F KetDBF=F FulRan=T
         wScrn=  0.000000 ICntrl=      2127 IOpCl=  0 I1Cent=           0 NGrid=           0
         NMat0=    1 NMatS0=      1 NMatT0=    0 NMatD0=    1 NMtDS0=    0 NMtDT0=    0
 Petite list used in FoFCou.
 Leave Link  703 at Wed Oct  7 14:30:16 2020, MaxMem=  2684354560 cpu:               6.0 elap:               0.7
 (Enter /udrive/faculty/rpeverati/g16/g16/l716.exe)
 Dipole        = 2.22044605D-16 1.11022302D-16-6.89919434D-01
 ***** Axes restored to original set *****
 -------------------------------------------------------------------
 Center     Atomic                   Forces (Hartrees/Bohr)
 Number     Number              X              Y              Z
 -------------------------------------------------------------------
      1        6          -0.000000000   -0.000000000   -0.012796368
      2        9          -0.000000000    0.000000000    0.002991529
      3        1           0.002006890   -0.003476035    0.003268280
      4        1           0.002006890    0.003476035    0.003268280
      5        1          -0.004013780   -0.000000000    0.003268280
 -------------------------------------------------------------------
 Cartesian Forces:  Max     0.012796368 RMS     0.004107493
 Leave Link  716 at Wed Oct  7 14:30:17 2020, MaxMem=  2684354560 cpu:               1.2 elap:               0.5
 (Enter /udrive/faculty/rpeverati/g16/g16/l103.exe)

 GradGradGradGradGradGradGradGradGradGradGradGradGradGradGradGradGradGrad
 Berny optimization.
 Optmz: redundant internal coordinate code flag= 1
 FormGI is forming the generalized inverse of G from B-inverse, IUseBI=4.
 Internal  Forces:  Max     0.004853737 RMS     0.002506590
 Search for a local minimum.
 Step number   1 out of a maximum of  100
 All quantities printed in internal units (Hartrees-Bohrs-Radians)
 RMS Force = .25066D-02 SwitMx=.10000D-02 MixMth= 1
 Mixed Optimization -- RFO/linear search
 Second derivative matrix not updated -- first step.
 The second derivative matrix:
                          R1        R2        R3        R4        A1
           R1           0.48885
           R2           0.00000   0.35040
           R3           0.00000   0.00000   0.35040
           R4           0.00000   0.00000   0.00000   0.35040
           A1           0.00000   0.00000   0.00000   0.00000   0.16000
           A2           0.00000   0.00000   0.00000   0.00000   0.00000
           A3           0.00000   0.00000   0.00000   0.00000   0.00000
           A4           0.00000   0.00000   0.00000   0.00000   0.00000
           A5           0.00000   0.00000   0.00000   0.00000   0.00000
           A6           0.00000   0.00000   0.00000   0.00000   0.00000
           D1           0.00000   0.00000   0.00000   0.00000   0.00000
           D2           0.00000   0.00000   0.00000   0.00000   0.00000
           D3           0.00000   0.00000   0.00000   0.00000   0.00000
           D4           0.00000   0.00000   0.00000   0.00000   0.00000
                          A2        A3        A4        A5        A6
           A2           0.16000
           A3           0.00000   0.16000
           A4           0.00000   0.00000   0.16000
           A5           0.00000   0.00000   0.00000   0.16000
           A6           0.00000   0.00000   0.00000   0.00000   0.16000
           D1           0.00000   0.00000   0.00000   0.00000   0.00000
           D2           0.00000   0.00000   0.00000   0.00000   0.00000
           D3           0.00000   0.00000   0.00000   0.00000   0.00000
           D4           0.00000   0.00000   0.00000   0.00000   0.00000
                          D1        D2        D3        D4
           D1           0.00261
           D2           0.00000   0.00261
           D3           0.00000   0.00000   0.00261
           D4           0.00000   0.00000   0.00000   0.00261
 ITU=  0
 Eigenvectors of the second derivative matrix:
                           1         2         3         4         5
     Eigenvalues --     0.05058   0.05664   0.08775   0.16000   0.16000
   1         R1        -0.00000   0.00000  -0.00000  -0.00000   0.00000
   2         R2        -0.00000  -0.00000  -0.00000  -0.00000  -0.00000
   3         R3         0.00000  -0.00000  -0.00000  -0.00000  -0.00000
   4         R4        -0.00000  -0.00000   0.00000   0.00000   0.00000
   5         A1         0.46526   0.09250   0.13190  -0.05466   0.25909
   6         A2        -0.04655  -0.39466   0.33745  -0.25863  -0.31500
   7         A3         0.03471  -0.18392  -0.38524   0.66447  -0.13801
   8         A4        -0.17447   0.33020   0.34984   0.37708  -0.20822
   9         A5        -0.03754   0.18556  -0.36692  -0.56890  -0.38960
  10         A6        -0.23045  -0.04144  -0.06499  -0.15086   0.78705
  11         D1        -0.43536  -0.06866  -0.57499   0.00000  -0.00000
  12         D2         0.56644   0.11111  -0.29248   0.00000  -0.00000
  13         D3         0.17278   0.61834  -0.13800   0.00000  -0.00000
  14         D4        -0.39365   0.50722   0.15448   0.00000   0.00000
                           6         7         8         9
     Eigenvalues --     0.35040   0.35040   0.35040   0.48885
   1         R1        -0.00000  -0.00000  -0.00000   1.00000
   2         R2        -0.47498  -0.87745   0.06687  -0.00000
   3         R3         0.85438  -0.44162   0.27388  -0.00000
   4         R4         0.21078  -0.18721  -0.95944  -0.00000
   5         A1        -0.00000  -0.00000   0.00000   0.00000
   6         A2        -0.00000   0.00000  -0.00000   0.00000
   7         A3         0.00000   0.00000  -0.00000   0.00000
   8         A4         0.00000  -0.00000   0.00000   0.00000
   9         A5        -0.00000   0.00000  -0.00000  -0.00000
  10         A6         0.00000  -0.00000   0.00000  -0.00000
  11         D1         0.00000   0.00000  -0.00000  -0.00000
  12         D2        -0.00000  -0.00000  -0.00000   0.00000
  13         D3         0.00000  -0.00000  -0.00000  -0.00000
  14         D4         0.00000  -0.00000   0.00000  -0.00000
 Iter=   1 RLamda= 0.00000000D+00 Sum=-3.47439372D-04.
 Iter=   2 RLamda=-3.47439372D-04 Sum=-3.46465782D-04.
 Iter=   3 RLamda=-3.46465782D-04 Sum=-3.46468497D-04.
 RFO step:  Lambda=-3.46465782D-04 EMin= 5.05795073D-02
 Linear search not attempted -- first point.
 Iteration  1 RMS(Cart)=  0.00746681 RMS(Int)=  0.00018404
 Iteration  2 RMS(Cart)=  0.00011357 RMS(Int)=  0.00010440
 Iteration  3 RMS(Cart)=  0.00000002 RMS(Int)=  0.00010440
 ITry= 1 IFail=0 DXMaxC= 1.73D-02 DCOld= 1.00D+10 DXMaxT= 3.00D-01 DXLimC= 3.00D+00 Rises=F
 ClnCor:  largest displacement from symmetrization is 2.73D-04 for atom     5.
 Variable       Old X    -DE/DX   Delta X   Delta X   Delta X     New X
                                 (Linear)    (Quad)   (Total)
    R1        2.61008  -0.00299   0.00000  -0.00612  -0.00612   2.60396
    R2        2.05611   0.00485   0.00000   0.01384   0.01381   2.06992
    R3        2.05611   0.00485   0.00000   0.01384   0.01381   2.06992
    R4        2.05611   0.00485   0.00000   0.01384   0.01381   2.06992
    A1        1.89939   0.00040   0.00000   0.01126   0.01140   1.91078
    A2        1.89939   0.00063   0.00000   0.01142   0.01140   1.91078
    A3        1.89939   0.00123   0.00000   0.01158   0.01140   1.91078
    A4        1.92175  -0.00014   0.00000  -0.01094  -0.01126   1.91048
    A5        1.92175  -0.00097   0.00000  -0.01125  -0.01126   1.91048
    A6        1.92175  -0.00109   0.00000  -0.01125  -0.01126   1.91048
    D1       -2.08048  -0.00079   0.00000  -0.01420  -0.01410  -2.09458
    D2        2.08048   0.00066   0.00000   0.01411   0.01410   2.09458
    D3       -2.08048  -0.00086   0.00000  -0.01430  -0.01410  -2.09458
    D4        2.12222  -0.00152   0.00000  -0.02841  -0.02820   2.09402
         Item               Value     Threshold  Converged?
 Maximum Force            0.004854     0.000450     NO 
 RMS     Force            0.002507     0.000300     NO 
 Maximum Displacement     0.017347     0.001800     NO 
 RMS     Displacement     0.007451     0.001200     NO 
 Predicted change in Energy=-1.725442D-04
 Lowest energy point so far.  Saving SCF results.
 Largest change from initial coordinates is atom    1       0.006 Angstoms.
 GradGradGradGradGradGradGradGradGradGradGradGradGradGradGradGradGradGrad

 Leave Link  103 at Wed Oct  7 14:30:18 2020, MaxMem=  2684354560 cpu:               2.6 elap:               0.6
 (Enter /udrive/faculty/rpeverati/g16/g16/l202.exe)
                          Input orientation:                          
 ---------------------------------------------------------------------
 Center     Atomic      Atomic             Coordinates (Angstroms)
 Number     Number       Type             X           Y           Z
 ---------------------------------------------------------------------
      1          6           0        0.000000    0.000000    0.056387
      2          9           0        0.000000   -0.000000   -1.321572
      3          1           0        0.516327   -0.894304    0.421661
      4          1           0        0.516327    0.894304    0.421661
      5          1           0       -1.032654   -0.000000    0.421661
 ---------------------------------------------------------------------
                    Distance matrix (angstroms):
                    1          2          3          4          5
     1  C    0.000000
     2  F    1.377959   0.000000
     3  H    1.095353   2.026138   0.000000
     4  H    1.095353   2.026138   1.788609   0.000000
     5  H    1.095353   2.026138   1.788609   1.788609   0.000000
 Stoichiometry    CH3F
 Framework group  C3V[C3(CF),3SGV(H)]
 Deg. of freedom     3
 Full point group                 C3V     NOp   6
 RotChk:  IX=0 Diff= 1.57D-16
 Largest Abelian subgroup         CS      NOp   2
 Largest concise Abelian subgroup CS      NOp   2
                         Standard orientation:                         
 ---------------------------------------------------------------------
 Center     Atomic      Atomic             Coordinates (Angstroms)
 Number     Number       Type             X           Y           Z
 ---------------------------------------------------------------------
      1          6           0        0.000000    0.000000   -0.628100
      2          9           0        0.000000    0.000000    0.749858
      3          1           0        0.000000    1.032654   -0.993375
      4          1           0        0.894304   -0.516327   -0.993375
      5          1           0       -0.894304   -0.516327   -0.993375
 ---------------------------------------------------------------------
 Rotational constants (GHZ):         156.7477453          25.7731607          25.7731607
 Leave Link  202 at Wed Oct  7 14:30:18 2020, MaxMem=  2684354560 cpu:               0.8 elap:               0.4
 (Enter /udrive/faculty/rpeverati/g16/g16/l301.exe)
 Standard basis: 6-31G(d) (5D, 7F)
 Ernie: Thresh=  0.10000D-02 Tol=  0.10000D-05 Strict=F.
 There are    26 symmetry adapted cartesian basis functions of A'  symmetry.
 There are    10 symmetry adapted cartesian basis functions of A"  symmetry.
 There are    24 symmetry adapted basis functions of A'  symmetry.
 There are    10 symmetry adapted basis functions of A"  symmetry.
    34 basis functions,    68 primitive gaussians,    36 cartesian basis functions
     9 alpha electrons        9 beta electrons
       nuclear repulsion energy        37.3729171996 Hartrees.
 IExCor= 1009 DFT=T Ex+Corr=PBE1PBE ExCW=0 ScaHFX=  0.250000
 ScaDFX=  0.750000  0.750000  1.000000  1.000000 ScalE2=  1.000000  1.000000
 IRadAn=      5 IRanWt=     -1 IRanGd=            0 ICorTp=0 IEmpDi=141
 NAtoms=    5 NActive=    5 NUniq=    3 SFac= 2.78D+00 NAtFMM=   60 NAOKFM=F Big=F
 Integral buffers will be    131072 words long.
 Raffenetti 2 integral format.
 Two-electron integral symmetry is turned on.
 R6Disp:  Grimme-D3(BJ) Dispersion energy=       -0.0010170008 Hartrees.
 Nuclear repulsion after empirical dispersion term =       37.3719001988 Hartrees.
 Leave Link  301 at Wed Oct  7 14:30:19 2020, MaxMem=  2684354560 cpu:               1.4 elap:               0.4
 (Enter /udrive/faculty/rpeverati/g16/g16/l302.exe)
 NPDir=0 NMtPBC=     1 NCelOv=     1 NCel=       1 NClECP=     1 NCelD=      1
         NCelK=      1 NCelE2=     1 NClLst=     1 CellRange=     0.0.
 One-electron integrals computed using PRISM.
 One-electron integral symmetry used in STVInt
 NBasis=    34 RedAO= T EigKep=  1.90D-02  NBF=    24    10
 NBsUse=    34 1.00D-06 EigRej= -1.00D+00 NBFU=    24    10
 Precomputing XC quadrature grid using
 IXCGrd= 4 IRadAn=           5 IRanWt=          -1 IRanGd=           0 AccXCQ= 0.00D+00.
 Generated NRdTot=       0 NPtTot=           0 NUsed=           0 NTot=          32
 NSgBfM=    36    36    36    36    36 MxSgAt=     5 MxSgA2=     5.
 Leave Link  302 at Wed Oct  7 14:30:20 2020, MaxMem=  2684354560 cpu:               3.1 elap:               0.6
 (Enter /udrive/faculty/rpeverati/g16/g16/l303.exe)
 DipDrv:  MaxL=1.
 Leave Link  303 at Wed Oct  7 14:30:20 2020, MaxMem=  2684354560 cpu:               1.1 elap:               0.5
 (Enter /udrive/faculty/rpeverati/g16/g16/l401.exe)
 Initial guess from the checkpoint file:  "MN_20_ch3f_BH76_PBE0DBJ_631Gs.chk"
 SCF N**3 symmetry information disabled.
 B after Tr=    -0.000000   -0.000000    0.000000
         Rot=    1.000000   -0.000000    0.000000    0.000000 Ang=   0.00 deg.
 Guess basis will be translated and rotated to current coordinates.
 JPrj=2 DoOrth=T DoCkMO=T.
 Initial guess orbital symmetries:
       Occupied  (A1) (A1) (A1) (A1) (A1) (E) (E) (E) (E)
       Virtual   (A1) (A1) (E) (E) (A1) (E) (E) (E) (E) (A1) (A1)
                 (A1) (E) (E) (E) (E) (E) (E) (A1) (A1) (E) (E)
                 (E) (E) (A1)
 The electronic state of the initial guess is 1-A1.
 Leave Link  401 at Wed Oct  7 14:30:21 2020, MaxMem=  2684354560 cpu:               2.1 elap:               0.5
 (Enter /udrive/faculty/rpeverati/g16/g16/l502.exe)
 Keep R1 ints in memory in symmetry-blocked form, NReq=10532139.
 FoFCou: FMM=F IPFlag=           0 FMFlag=           0 FMFlg1=           0
         NFxFlg=           0 DoJE=F BraDBF=F KetDBF=F FulRan=T
         wScrn=  0.000000 ICntrl=       600 IOpCl=  0 I1Cent=           0 NGrid=           0
         NMat0=    1 NMatS0=    595 NMatT0=    0 NMatD0=    1 NMtDS0=    0 NMtDT0=    0
 Petite list used in FoFCou.
 Closed shell SCF:
 Using DIIS extrapolation, IDIIS=  1040.
 NGot=  2684354560 LenX=  2684257087 LenY=  2684255350
 Requested convergence on RMS density matrix=1.00D-08 within 120 cycles.
 Requested convergence on MAX density matrix=1.00D-06.
 Requested convergence on             energy=1.00D-06.
 No special actions if energy rises.

 Cycle   1  Pass 1  IDiag  1:
 E= -139.583970192372    
 DIIS: error= 1.11D-03 at cycle   1 NSaved=   1.
 NSaved= 1 IEnMin= 1 EnMin= -139.583970192372     IErMin= 1 ErrMin= 1.11D-03
 ErrMax= 1.11D-03  0.00D+00 EMaxC= 1.00D-01 BMatC= 3.92D-05 BMatP= 3.92D-05
 IDIUse=3 WtCom= 9.89D-01 WtEn= 1.11D-02
 Coeff-Com:  0.100D+01
 Coeff-En:   0.100D+01
 Coeff:      0.100D+01
 Gap=     0.464 Goal=   None    Shift=    0.000
 GapD=    0.464 DampG=2.000 DampE=1.000 DampFc=2.0000 IDamp=-1.
 RMSDP=2.86D-04 MaxDP=2.84D-03              OVMax= 3.18D-03

 Cycle   2  Pass 1  IDiag  1:
 E= -139.584007650526     Delta-E=       -0.000037458153 Rises=F Damp=F
 DIIS: error= 8.85D-04 at cycle   2 NSaved=   2.
 NSaved= 2 IEnMin= 2 EnMin= -139.584007650526     IErMin= 2 ErrMin= 8.85D-04
 ErrMax= 8.85D-04  0.00D+00 EMaxC= 1.00D-01 BMatC= 2.07D-05 BMatP= 3.92D-05
 IDIUse=3 WtCom= 9.91D-01 WtEn= 8.85D-03
 Coeff-Com:  0.398D+00 0.602D+00
 Coeff-En:   0.000D+00 0.100D+01
 Coeff:      0.394D+00 0.606D+00
 Gap=     0.464 Goal=   None    Shift=    0.000
 RMSDP=1.14D-04 MaxDP=1.28D-03 DE=-3.75D-05 OVMax= 1.49D-03

 Cycle   3  Pass 1  IDiag  1:
 E= -139.584023629086     Delta-E=       -0.000015978560 Rises=F Damp=F
 DIIS: error= 2.65D-04 at cycle   3 NSaved=   3.
 NSaved= 3 IEnMin= 3 EnMin= -139.584023629086     IErMin= 3 ErrMin= 2.65D-04
 ErrMax= 2.65D-04  0.00D+00 EMaxC= 1.00D-01 BMatC= 2.93D-06 BMatP= 2.07D-05
 IDIUse=3 WtCom= 9.97D-01 WtEn= 2.65D-03
 Coeff-Com:  0.420D-02 0.265D+00 0.731D+00
 Coeff-En:   0.000D+00 0.351D-01 0.965D+00
 Coeff:      0.419D-02 0.264D+00 0.731D+00
 Gap=     0.464 Goal=   None    Shift=    0.000
 RMSDP=3.54D-05 MaxDP=4.00D-04 DE=-1.60D-05 OVMax= 5.43D-04

 Cycle   4  Pass 1  IDiag  1:
 E= -139.584025629245     Delta-E=       -0.000002000159 Rises=F Damp=F
 DIIS: error= 7.93D-05 at cycle   4 NSaved=   4.
 NSaved= 4 IEnMin= 4 EnMin= -139.584025629245     IErMin= 4 ErrMin= 7.93D-05
 ErrMax= 7.93D-05  0.00D+00 EMaxC= 1.00D-01 BMatC= 2.77D-07 BMatP= 2.93D-06
 IDIUse=1 WtCom= 1.00D+00 WtEn= 0.00D+00
 Coeff-Com: -0.678D-02 0.114D+00 0.370D+00 0.523D+00
 Coeff:     -0.678D-02 0.114D+00 0.370D+00 0.523D+00
 Gap=     0.464 Goal=   None    Shift=    0.000
 RMSDP=1.18D-05 MaxDP=9.66D-05 DE=-2.00D-06 OVMax= 1.20D-04

 Cycle   5  Pass 1  IDiag  1:
 E= -139.584025824141     Delta-E=       -0.000000194896 Rises=F Damp=F
 DIIS: error= 5.33D-06 at cycle   5 NSaved=   5.
 NSaved= 5 IEnMin= 5 EnMin= -139.584025824141     IErMin= 5 ErrMin= 5.33D-06
 ErrMax= 5.33D-06  0.00D+00 EMaxC= 1.00D-01 BMatC= 1.22D-09 BMatP= 2.77D-07
 IDIUse=1 WtCom= 1.00D+00 WtEn= 0.00D+00
 Coeff-Com: -0.225D-02 0.879D-02 0.394D-01 0.913D-01 0.863D+00
 Coeff:     -0.225D-02 0.879D-02 0.394D-01 0.913D-01 0.863D+00
 Gap=     0.464 Goal=   None    Shift=    0.000
 RMSDP=7.55D-07 MaxDP=5.64D-06 DE=-1.95D-07 OVMax= 8.29D-06

 Cycle   6  Pass 1  IDiag  1:
 E= -139.584025825136     Delta-E=       -0.000000000995 Rises=F Damp=F
 DIIS: error= 3.20D-07 at cycle   6 NSaved=   6.
 NSaved= 6 IEnMin= 6 EnMin= -139.584025825136     IErMin= 6 ErrMin= 3.20D-07
 ErrMax= 3.20D-07  0.00D+00 EMaxC= 1.00D-01 BMatC= 4.49D-12 BMatP= 1.22D-09
 IDIUse=1 WtCom= 1.00D+00 WtEn= 0.00D+00
 Coeff-Com: -0.276D-04-0.991D-03-0.312D-02-0.261D-02 0.423D-01 0.964D+00
 Coeff:     -0.276D-04-0.991D-03-0.312D-02-0.261D-02 0.423D-01 0.964D+00
 Gap=     0.464 Goal=   None    Shift=    0.000
 RMSDP=7.96D-08 MaxDP=6.14D-07 DE=-9.95D-10 OVMax= 1.05D-06

 Cycle   7  Pass 1  IDiag  1:
 E= -139.584025825142     Delta-E=       -0.000000000006 Rises=F Damp=F
 DIIS: error= 4.97D-08 at cycle   7 NSaved=   7.
 NSaved= 7 IEnMin= 7 EnMin= -139.584025825142     IErMin= 7 ErrMin= 4.97D-08
 ErrMax= 4.97D-08  0.00D+00 EMaxC= 1.00D-01 BMatC= 7.60D-14 BMatP= 4.49D-12
 IDIUse=1 WtCom= 1.00D+00 WtEn= 0.00D+00
 Coeff-Com:  0.373D-05-0.148D-03-0.404D-03-0.782D-03 0.125D-02 0.878D-01
 Coeff-Com:  0.912D+00
 Coeff:      0.373D-05-0.148D-03-0.404D-03-0.782D-03 0.125D-02 0.878D-01
 Coeff:      0.912D+00
 Gap=     0.464 Goal=   None    Shift=    0.000
 RMSDP=6.72D-09 MaxDP=6.63D-08 DE=-6.17D-12 OVMax= 9.02D-08

 SCF Done:  E(RPBE1PBE) =  -139.584025825     A.U. after    7 cycles
            NFock=  7  Conv=0.67D-08     -V/T= 2.0043
 KE= 1.389845205400D+02 PE=-4.055527788090D+02 EE= 8.961233224510D+01
 Leave Link  502 at Wed Oct  7 14:30:23 2020, MaxMem=  2684354560 cpu:              11.2 elap:               1.3
 (Enter /udrive/faculty/rpeverati/g16/g16/l508.exe)
 QCSCF skips out because SCF is already converged.
 Leave Link  508 at Wed Oct  7 14:30:23 2020, MaxMem=  2684354560 cpu:               0.3 elap:               0.4
 (Enter /udrive/faculty/rpeverati/g16/g16/l701.exe)
 ... and contract with generalized density number  0.
 Compute integral first derivatives.
 R6Disp: Adding Grimme-D3(BJ) dispersion energy 1st derivatives to the gradient.
 Leave Link  701 at Wed Oct  7 14:30:24 2020, MaxMem=  2684354560 cpu:               3.5 elap:               0.6
 (Enter /udrive/faculty/rpeverati/g16/g16/l702.exe)
 L702 exits ... SP integral derivatives will be done elsewhere.
 Leave Link  702 at Wed Oct  7 14:30:25 2020, MaxMem=  2684354560 cpu:               1.4 elap:               0.4
 (Enter /udrive/faculty/rpeverati/g16/g16/l703.exe)
 Integral derivatives from FoFJK, PRISM(SPDF).
 Compute integral first derivatives, UseDBF=F ICtDFT=           0.
 Calling FoFJK, ICntrl=      2127 FMM=F ISym2X=1 I1Cent= 0 IOpClX= 0 NMat=1 NMatS=1 NMatT=0.
 FoFJK:  IHMeth= 1 ICntrl=    2127 DoSepK=F KAlg= 0 I1Cent=           0 FoldK=F
 IRaf=         0 NMat=       1 IRICut=       1 DoRegI=T DoRafI=F ISym2E= 1 IDoP0=0 IntGTp=1.
 FoFCou: FMM=F IPFlag=           0 FMFlag=      100000 FMFlg1=         800
         NFxFlg=           0 DoJE=F BraDBF=F KetDBF=F FulRan=T
         wScrn=  0.000000 ICntrl=      2127 IOpCl=  0 I1Cent=           0 NGrid=           0
         NMat0=    1 NMatS0=      1 NMatT0=    0 NMatD0=    1 NMtDS0=    0 NMtDT0=    0
 Petite list used in FoFCou.
 Leave Link  703 at Wed Oct  7 14:30:26 2020, MaxMem=  2684354560 cpu:               5.7 elap:               0.7
 (Enter /udrive/faculty/rpeverati/g16/g16/l716.exe)
 Dipole        = 2.22044605D-16 3.33066907D-16-6.81459051D-01
 ***** Axes restored to original set *****
 -------------------------------------------------------------------
 Center     Atomic                   Forces (Hartrees/Bohr)
 Number     Number              X              Y              Z
 -------------------------------------------------------------------
      1        6          -0.000000000   -0.000000000   -0.004106361
      2        9          -0.000000000    0.000000000    0.003305550
      3        1           0.000056731   -0.000098261    0.000266937
      4        1           0.000056731    0.000098261    0.000266937
      5        1          -0.000113462   -0.000000000    0.000266937
 -------------------------------------------------------------------
 Cartesian Forces:  Max     0.004106361 RMS     0.001367266
 Leave Link  716 at Wed Oct  7 14:30:27 2020, MaxMem=  2684354560 cpu:               1.5 elap:               0.6
 (Enter /udrive/faculty/rpeverati/g16/g16/l103.exe)

 GradGradGradGradGradGradGradGradGradGradGradGradGradGradGradGradGradGrad
 Berny optimization.
 Optmz: redundant internal coordinate code flag= 1
 Using GEDIIS/GDIIS optimizer.
 Red2BG:  D1=  6.20D-01 OD1=  6.61D-02 B2RMS=  0.00D+00 IAprox=0
 FormGI is forming the generalized inverse of G from B-inverse, IUseBI=4.
 Internal  Forces:  Max     0.003305550 RMS     0.000892969
 Search for a local minimum.
 Step number   2 out of a maximum of  100
 All quantities printed in internal units (Hartrees-Bohrs-Radians)
 RMS Force = .89297D-03 SwitMx=.10000D-02 MixMth= 2
 Mixed Optimization -- En-DIIS/RFO-DIIS
 Update second derivatives using D2CorX and points    1    2
 DE= -1.94D-04 DEPred=-1.73D-04 R= 1.12D+00
 TightC=F SS=  1.41D+00  RLast= 5.26D-02 DXNew= 5.0454D-01 1.5793D-01
 Trust test= 1.12D+00 RLast= 5.26D-02 DXMaxT set to 3.00D-01
 The second derivative matrix:
                          R1        R2        R3        R4        A1
           R1           0.46332
           R2           0.04670   0.35451
           R3           0.04670   0.00412   0.35451
           R4           0.04670   0.00412   0.00412   0.35451
           A1           0.01613  -0.02014  -0.02014  -0.02014   0.15078
           A2           0.01634  -0.01705  -0.01705  -0.01705  -0.00899
           A3           0.01690  -0.00885  -0.00885  -0.00885  -0.00837
           A4          -0.01571   0.02340   0.02340   0.02340   0.00937
           A5          -0.01647   0.01212   0.01212   0.01212   0.00852
           A6          -0.01658   0.01046   0.01046   0.01046   0.00840
           D1          -0.00104  -0.01014  -0.01014  -0.01014  -0.00061
           D2           0.00092   0.00845   0.00845   0.00845   0.00048
           D3          -0.00111  -0.01124  -0.01124  -0.01124  -0.00069
           D4          -0.00203  -0.01969  -0.01969  -0.01969  -0.00117
                          A2        A3        A4        A5        A6
           A2           0.15138
           A3          -0.00765   0.15425
           A4           0.00929   0.00908   0.15065
           A5           0.00796   0.00646  -0.00906   0.15300
           A6           0.00776   0.00608  -0.00902  -0.00670   0.15364
           D1          -0.00106  -0.00228   0.00008   0.00175   0.00200
           D2           0.00086   0.00189  -0.00004  -0.00144  -0.00165
           D3          -0.00119  -0.00254   0.00011   0.00195   0.00222
           D4          -0.00206  -0.00442   0.00014   0.00340   0.00388
                          D1        D2        D3        D4
           D1           0.00418
           D2          -0.00133   0.00372
           D3           0.00174  -0.00146   0.00453
           D4           0.00307  -0.00258   0.00338   0.00857
 ITU=  1  0
 Use linear search instead of GDIIS.
 Eigenvectors of the second derivative matrix:
                           1         2         3         4         5
     Eigenvalues --     0.04908   0.05511   0.08644   0.15852   0.16000
   1         R1        -0.04985   0.03906  -0.00940  -0.05177  -0.00027
   2         R2         0.01192  -0.00895   0.00256   0.01478  -0.00006
   3         R3         0.01192  -0.00895   0.00256   0.01478  -0.00006
   4         R4         0.01192  -0.00895   0.00256   0.01478  -0.00006
   5         A1         0.44361   0.16093   0.13068  -0.18056   0.20311
   6         A2         0.01788  -0.39390   0.33404  -0.07476  -0.40876
   7         A3         0.06859  -0.17937  -0.37369   0.65117   0.20817
   8         A4        -0.22496   0.30068   0.34904   0.42073   0.00253
   9         A5        -0.07313   0.18409  -0.37192  -0.29998  -0.61420
  10         A6        -0.23216  -0.07231  -0.06817  -0.51672   0.60915
  11         D1        -0.41647  -0.14009  -0.57844   0.00920   0.00001
  12         D2         0.54054   0.20004  -0.29664  -0.00615  -0.00000
  13         D3         0.07831   0.63660  -0.13852   0.00933   0.00000
  14         D4        -0.46223   0.43655   0.15812   0.01548   0.00001
                           6         7         8         9
     Eigenvalues --     0.31893   0.35040   0.35040   0.50952
   1         R1         0.47710   0.00000   0.00000  -0.87498
   2         R2        -0.50572  -0.49140  -0.65207  -0.27773
   3         R3        -0.50572   0.81041  -0.09953  -0.27773
   4         R4        -0.50572  -0.31901   0.75160  -0.27773
   5         A1         0.00603   0.00000   0.00000  -0.00558
   6         A2         0.01280   0.00000   0.00000  -0.01066
   7         A3         0.03650   0.00000   0.00000  -0.02658
   8         A4         0.00366  -0.00000   0.00000  -0.00041
   9         A5        -0.02647  -0.00000  -0.00000   0.01988
  10         A6        -0.03255  -0.00000  -0.00000   0.02337
  11         D1        -0.01747  -0.00000  -0.00000   0.01361
  12         D2         0.01353   0.00000  -0.00000  -0.01094
  13         D3        -0.01810  -0.00000  -0.00000   0.01503
  14         D4        -0.03163  -0.00000  -0.00000   0.02596
 Iter=   1 RLamda= 0.00000000D+00 Sum=-2.49620554D-05.
 Iter=   2 RLamda=-2.49620554D-05 Sum=-2.49604720D-05.
 RFO step:  Lambda=-2.49620554D-05 EMin= 4.90785380D-02
 Quartic linear search produced a step of  0.14553.
 Iteration  1 RMS(Cart)=  0.00158827 RMS(Int)=  0.00002039
 Iteration  2 RMS(Cart)=  0.00000437 RMS(Int)=  0.00001967
 Iteration  3 RMS(Cart)=  0.00000000 RMS(Int)=  0.00001967
 ITry= 1 IFail=0 DXMaxC= 4.82D-03 DCOld= 1.00D+10 DXMaxT= 3.00D-01 DXLimC= 3.00D+00 Rises=F
 ClnCor:  largest displacement from symmetrization is 3.02D-05 for atom     5.
 Variable       Old X    -DE/DX   Delta X   Delta X   Delta X     New X
                                 (Linear)    (Quad)   (Total)
    R1        2.60396  -0.00331  -0.00089  -0.00730  -0.00819   2.59577
    R2        2.06992   0.00020   0.00201  -0.00037   0.00165   2.07157
    R3        2.06992   0.00020   0.00201  -0.00037   0.00165   2.07157
    R4        2.06992   0.00020   0.00201  -0.00037   0.00165   2.07157
    A1        1.91078   0.00005   0.00166   0.00077   0.00244   1.91322
    A2        1.91078   0.00008   0.00166   0.00077   0.00244   1.91322
    A3        1.91078   0.00015   0.00166   0.00076   0.00244   1.91322
    A4        1.91048  -0.00002  -0.00164  -0.00076  -0.00245   1.90804
    A5        1.91048  -0.00012  -0.00164  -0.00077  -0.00245   1.90804
    A6        1.91048  -0.00014  -0.00164  -0.00077  -0.00245   1.90804
    D1       -2.09458  -0.00009  -0.00205  -0.00095  -0.00298  -2.09756
    D2        2.09458   0.00008   0.00205   0.00094   0.00298   2.09756
    D3       -2.09458  -0.00010  -0.00205  -0.00093  -0.00298  -2.09756
    D4        2.09402  -0.00018  -0.00410  -0.00188  -0.00596   2.08806
         Item               Value     Threshold  Converged?
 Maximum Force            0.003306     0.000450     NO 
 RMS     Force            0.000893     0.000300     NO 
 Maximum Displacement     0.004817     0.001800     NO 
 RMS     Displacement     0.001590     0.001200     NO 
 Predicted change in Energy=-1.559331D-05
 Lowest energy point so far.  Saving SCF results.
 Largest change from initial coordinates is atom    5       0.011 Angstoms.
 GradGradGradGradGradGradGradGradGradGradGradGradGradGradGradGradGradGrad

 Leave Link  103 at Wed Oct  7 14:30:27 2020, MaxMem=  2684354560 cpu:               2.8 elap:               0.7
 (Enter /udrive/faculty/rpeverati/g16/g16/l202.exe)
                          Input orientation:                          
 ---------------------------------------------------------------------
 Center     Atomic      Atomic             Coordinates (Angstroms)
 Number     Number       Type             X           Y           Z
 ---------------------------------------------------------------------
      1          6           0        0.000000    0.000000    0.053838
      2          9           0        0.000000    0.000000   -1.319787
      3          1           0        0.516290   -0.894241    0.421923
      4          1           0        0.516290    0.894241    0.421923
      5          1           0       -1.032581   -0.000000    0.421923
 ---------------------------------------------------------------------
                    Distance matrix (angstroms):
                    1          2          3          4          5
     1  C    0.000000
     2  F    1.373625   0.000000
     3  H    1.096225   2.024790   0.000000
     4  H    1.096225   2.024790   1.788482   0.000000
     5  H    1.096225   2.024790   1.788482   1.788482   0.000000
 Stoichiometry    CH3F
 Framework group  C3V[C3(CF),3SGV(H)]
 Deg. of freedom     3
 Full point group                 C3V     NOp   6
 RotChk:  IX=0 Diff= 1.57D-16
 Largest Abelian subgroup         CS      NOp   2
 Largest concise Abelian subgroup CS      NOp   2
                         Standard orientation:                         
 ---------------------------------------------------------------------
 Center     Atomic      Atomic             Coordinates (Angstroms)
 Number     Number       Type             X           Y           Z
 ---------------------------------------------------------------------
      1          6           0        0.000000    0.000000   -0.625465
      2          9           0        0.000000    0.000000    0.748160
      3          1           0        0.000000    1.032581   -0.993550
      4          1           0        0.894241   -0.516290   -0.993550
      5          1           0       -0.894241   -0.516290   -0.993550
 ---------------------------------------------------------------------
 Rotational constants (GHZ):         156.7699376          25.8878996          25.8878996
 Leave Link  202 at Wed Oct  7 14:30:28 2020, MaxMem=  2684354560 cpu:               1.8 elap:               0.5
 (Enter /udrive/faculty/rpeverati/g16/g16/l301.exe)
 Standard basis: 6-31G(d) (5D, 7F)
 Ernie: Thresh=  0.10000D-02 Tol=  0.10000D-05 Strict=F.
 There are    26 symmetry adapted cartesian basis functions of A'  symmetry.
 There are    10 symmetry adapted cartesian basis functions of A"  symmetry.
 There are    24 symmetry adapted basis functions of A'  symmetry.
 There are    10 symmetry adapted basis functions of A"  symmetry.
    34 basis functions,    68 primitive gaussians,    36 cartesian basis functions
     9 alpha electrons        9 beta electrons
       nuclear repulsion energy        37.4361923197 Hartrees.
 IExCor= 1009 DFT=T Ex+Corr=PBE1PBE ExCW=0 ScaHFX=  0.250000
 ScaDFX=  0.750000  0.750000  1.000000  1.000000 ScalE2=  1.000000  1.000000
 IRadAn=      5 IRanWt=     -1 IRanGd=            0 ICorTp=0 IEmpDi=141
 NAtoms=    5 NActive=    5 NUniq=    3 SFac= 2.78D+00 NAtFMM=   60 NAOKFM=F Big=F
 Integral buffers will be    131072 words long.
 Raffenetti 2 integral format.
 Two-electron integral symmetry is turned on.
 R6Disp:  Grimme-D3(BJ) Dispersion energy=       -0.0010170514 Hartrees.
 Nuclear repulsion after empirical dispersion term =       37.4351752683 Hartrees.
 Leave Link  301 at Wed Oct  7 14:30:29 2020, MaxMem=  2684354560 cpu:               1.9 elap:               0.4
 (Enter /udrive/faculty/rpeverati/g16/g16/l302.exe)
 NPDir=0 NMtPBC=     1 NCelOv=     1 NCel=       1 NClECP=     1 NCelD=      1
         NCelK=      1 NCelE2=     1 NClLst=     1 CellRange=     0.0.
 One-electron integrals computed using PRISM.
 One-electron integral symmetry used in STVInt
 NBasis=    34 RedAO= T EigKep=  1.91D-02  NBF=    24    10
 NBsUse=    34 1.00D-06 EigRej= -1.00D+00 NBFU=    24    10
 Precomputing XC quadrature grid using
 IXCGrd= 4 IRadAn=           5 IRanWt=          -1 IRanGd=           0 AccXCQ= 0.00D+00.
 Generated NRdTot=       0 NPtTot=           0 NUsed=           0 NTot=          32
 NSgBfM=    36    36    36    36    36 MxSgAt=     5 MxSgA2=     5.
 Leave Link  302 at Wed Oct  7 14:30:30 2020, MaxMem=  2684354560 cpu:               3.7 elap:               0.7
 (Enter /udrive/faculty/rpeverati/g16/g16/l303.exe)
 DipDrv:  MaxL=1.
 Leave Link  303 at Wed Oct  7 14:30:31 2020, MaxMem=  2684354560 cpu:               1.0 elap:               0.4
 (Enter /udrive/faculty/rpeverati/g16/g16/l401.exe)
 Initial guess from the checkpoint file:  "MN_20_ch3f_BH76_PBE0DBJ_631Gs.chk"
 SCF N**3 symmetry information disabled.
 B after Tr=     0.000000    0.000000    0.000000
         Rot=    1.000000    0.000000   -0.000000    0.000000 Ang=   0.00 deg.
 Guess basis will be translated and rotated to current coordinates.
 JPrj=2 DoOrth=T DoCkMO=T.
 Initial guess orbital symmetries:
       Occupied  (A1) (A1) (A1) (A1) (A1) (E) (E) (E) (E)
       Virtual   (A1) (A1) (E) (E) (A1) (E) (E) (E) (E) (A1) (A1)
                 (A1) (E) (E) (E) (E) (E) (E) (A1) (A1) (E) (E)
                 (E) (E) (A1)
 The electronic state of the initial guess is 1-A1.
 Leave Link  401 at Wed Oct  7 14:30:31 2020, MaxMem=  2684354560 cpu:               1.7 elap:               0.4
 (Enter /udrive/faculty/rpeverati/g16/g16/l502.exe)
 Keep R1 ints in memory in symmetry-blocked form, NReq=10532139.
 FoFCou: FMM=F IPFlag=           0 FMFlag=           0 FMFlg1=           0
         NFxFlg=           0 DoJE=F BraDBF=F KetDBF=F FulRan=T
         wScrn=  0.000000 ICntrl=       600 IOpCl=  0 I1Cent=           0 NGrid=           0
         NMat0=    1 NMatS0=    595 NMatT0=    0 NMatD0=    1 NMtDS0=    0 NMtDT0=    0
 Petite list used in FoFCou.
 Closed shell SCF:
 Using DIIS extrapolation, IDIIS=  1040.
 NGot=  2684354560 LenX=  2684257087 LenY=  2684255350
 Requested convergence on RMS density matrix=1.00D-08 within 120 cycles.
 Requested convergence on MAX density matrix=1.00D-06.
 Requested convergence on             energy=1.00D-06.
 No special actions if energy rises.

 Cycle   1  Pass 1  IDiag  1:
 E= -139.584034018208    
 DIIS: error= 4.87D-04 at cycle   1 NSaved=   1.
 NSaved= 1 IEnMin= 1 EnMin= -139.584034018208     IErMin= 1 ErrMin= 4.87D-04
 ErrMax= 4.87D-04  0.00D+00 EMaxC= 1.00D-01 BMatC= 7.53D-06 BMatP= 7.53D-06
 IDIUse=3 WtCom= 9.95D-01 WtEn= 4.87D-03
 Coeff-Com:  0.100D+01
 Coeff-En:   0.100D+01
 Coeff:      0.100D+01
 Gap=     0.464 Goal=   None    Shift=    0.000
 RMSDP=1.01D-04 MaxDP=6.86D-04              OVMax= 1.05D-03

 Cycle   2  Pass 1  IDiag  1:
 E= -139.584043097263     Delta-E=       -0.000009079055 Rises=F Damp=F
 DIIS: error= 1.32D-04 at cycle   2 NSaved=   2.
 NSaved= 2 IEnMin= 2 EnMin= -139.584043097263     IErMin= 2 ErrMin= 1.32D-04
 ErrMax= 1.32D-04  0.00D+00 EMaxC= 1.00D-01 BMatC= 9.16D-07 BMatP= 7.53D-06
 IDIUse=3 WtCom= 9.99D-01 WtEn= 1.32D-03
 Coeff-Com:  0.137D+00 0.863D+00
 Coeff-En:   0.000D+00 0.100D+01
 Coeff:      0.137D+00 0.863D+00
 Gap=     0.464 Goal=   None    Shift=    0.000
 RMSDP=2.95D-05 MaxDP=3.20D-04 DE=-9.08D-06 OVMax= 3.97D-04

 Cycle   3  Pass 1  IDiag  1:
 E= -139.584043138133     Delta-E=       -0.000000040870 Rises=F Damp=F
 DIIS: error= 1.27D-04 at cycle   3 NSaved=   3.
 NSaved= 3 IEnMin= 3 EnMin= -139.584043138133     IErMin= 3 ErrMin= 1.27D-04
 ErrMax= 1.27D-04  0.00D+00 EMaxC= 1.00D-01 BMatC= 8.69D-07 BMatP= 9.16D-07
 IDIUse=3 WtCom= 9.99D-01 WtEn= 1.27D-03
 Coeff-Com: -0.263D-01 0.498D+00 0.528D+00
 Coeff-En:   0.000D+00 0.484D+00 0.516D+00
 Coeff:     -0.262D-01 0.498D+00 0.528D+00
 Gap=     0.464 Goal=   None    Shift=    0.000
 RMSDP=1.66D-05 MaxDP=2.04D-04 DE=-4.09D-08 OVMax= 2.58D-04

 Cycle   4  Pass 1  IDiag  1:
 E= -139.584043719157     Delta-E=       -0.000000581024 Rises=F Damp=F
 DIIS: error= 9.23D-06 at cycle   4 NSaved=   4.
 NSaved= 4 IEnMin= 4 EnMin= -139.584043719157     IErMin= 4 ErrMin= 9.23D-06
 ErrMax= 9.23D-06  0.00D+00 EMaxC= 1.00D-01 BMatC= 3.38D-09 BMatP= 8.69D-07
 IDIUse=1 WtCom= 1.00D+00 WtEn= 0.00D+00
 Coeff-Com: -0.600D-02 0.775D-01 0.122D+00 0.807D+00
 Coeff:     -0.600D-02 0.775D-01 0.122D+00 0.807D+00
 Gap=     0.464 Goal=   None    Shift=    0.000
 RMSDP=1.61D-06 MaxDP=1.04D-05 DE=-5.81D-07 OVMax= 1.77D-05

 Cycle   5  Pass 1  IDiag  1:
 E= -139.584043721394     Delta-E=       -0.000000002238 Rises=F Damp=F
 DIIS: error= 3.70D-06 at cycle   5 NSaved=   5.
 NSaved= 5 IEnMin= 5 EnMin= -139.584043721394     IErMin= 5 ErrMin= 3.70D-06
 ErrMax= 3.70D-06  0.00D+00 EMaxC= 1.00D-01 BMatC= 2.64D-10 BMatP= 3.38D-09
 IDIUse=1 WtCom= 1.00D+00 WtEn= 0.00D+00
 Coeff-Com: -0.236D-02 0.173D-01 0.369D-01 0.313D+00 0.636D+00
 Coeff:     -0.236D-02 0.173D-01 0.369D-01 0.313D+00 0.636D+00
 Gap=     0.464 Goal=   None    Shift=    0.000
 RMSDP=4.31D-07 MaxDP=5.23D-06 DE=-2.24D-09 OVMax= 4.67D-06

 Cycle   6  Pass 1  IDiag  1:
 E= -139.584043721645     Delta-E=       -0.000000000251 Rises=F Damp=F
 DIIS: error= 4.89D-07 at cycle   6 NSaved=   6.
 NSaved= 6 IEnMin= 6 EnMin= -139.584043721645     IErMin= 6 ErrMin= 4.89D-07
 ErrMax= 4.89D-07  0.00D+00 EMaxC= 1.00D-01 BMatC= 9.03D-12 BMatP= 2.64D-10
 IDIUse=1 WtCom= 1.00D+00 WtEn= 0.00D+00
 Coeff-Com:  0.977D-04-0.329D-02-0.225D-02 0.223D-02 0.161D+00 0.843D+00
 Coeff:      0.977D-04-0.329D-02-0.225D-02 0.223D-02 0.161D+00 0.843D+00
 Gap=     0.464 Goal=   None    Shift=    0.000
 RMSDP=8.53D-08 MaxDP=6.52D-07 DE=-2.51D-10 OVMax= 8.41D-07

 Cycle   7  Pass 1  IDiag  1:
 E= -139.584043721653     Delta-E=       -0.000000000008 Rises=F Damp=F
 DIIS: error= 2.20D-08 at cycle   7 NSaved=   7.
 NSaved= 7 IEnMin= 7 EnMin= -139.584043721653     IErMin= 7 ErrMin= 2.20D-08
 ErrMax= 2.20D-08  0.00D+00 EMaxC= 1.00D-01 BMatC= 1.89D-14 BMatP= 9.03D-12
 IDIUse=1 WtCom= 1.00D+00 WtEn= 0.00D+00
 Coeff-Com:  0.163D-04-0.306D-03-0.343D-03-0.135D-02 0.704D-02 0.675D-01
 Coeff-Com:  0.927D+00
 Coeff:      0.163D-04-0.306D-03-0.343D-03-0.135D-02 0.704D-02 0.675D-01
 Coeff:      0.927D+00
 Gap=     0.464 Goal=   None    Shift=    0.000
 RMSDP=4.17D-09 MaxDP=3.21D-08 DE=-7.87D-12 OVMax= 7.21D-08

 SCF Done:  E(RPBE1PBE) =  -139.584043722     A.U. after    7 cycles
            NFock=  7  Conv=0.42D-08     -V/T= 2.0043
 KE= 1.389889523264D+02 PE=-4.056732277583D+02 EE= 8.966505644195D+01
 Leave Link  502 at Wed Oct  7 14:30:33 2020, MaxMem=  2684354560 cpu:              10.4 elap:               1.2
 (Enter /udrive/faculty/rpeverati/g16/g16/l508.exe)
 QCSCF skips out because SCF is already converged.
 Leave Link  508 at Wed Oct  7 14:30:33 2020, MaxMem=  2684354560 cpu:               0.3 elap:               0.3
 (Enter /udrive/faculty/rpeverati/g16/g16/l701.exe)
 ... and contract with generalized density number  0.
 Compute integral first derivatives.
 R6Disp: Adding Grimme-D3(BJ) dispersion energy 1st derivatives to the gradient.
 Leave Link  701 at Wed Oct  7 14:30:34 2020, MaxMem=  2684354560 cpu:               3.8 elap:               0.7
 (Enter /udrive/faculty/rpeverati/g16/g16/l702.exe)
 L702 exits ... SP integral derivatives will be done elsewhere.
 Leave Link  702 at Wed Oct  7 14:30:35 2020, MaxMem=  2684354560 cpu:               0.9 elap:               0.4
 (Enter /udrive/faculty/rpeverati/g16/g16/l703.exe)
 Integral derivatives from FoFJK, PRISM(SPDF).
 Compute integral first derivatives, UseDBF=F ICtDFT=           0.
 Calling FoFJK, ICntrl=      2127 FMM=F ISym2X=1 I1Cent= 0 IOpClX= 0 NMat=1 NMatS=1 NMatT=0.
 FoFJK:  IHMeth= 1 ICntrl=    2127 DoSepK=F KAlg= 0 I1Cent=           0 FoldK=F
 IRaf=         0 NMat=       1 IRICut=       1 DoRegI=T DoRafI=F ISym2E= 1 IDoP0=0 IntGTp=1.
 FoFCou: FMM=F IPFlag=           0 FMFlag=      100000 FMFlg1=         800
         NFxFlg=           0 DoJE=F BraDBF=F KetDBF=F FulRan=T
         wScrn=  0.000000 ICntrl=      2127 IOpCl=  0 I1Cent=           0 NGrid=           0
         NMat0=    1 NMatS0=      1 NMatT0=    0 NMatD0=    1 NMtDS0=    0 NMtDT0=    0
 Petite list used in FoFCou.
 Leave Link  703 at Wed Oct  7 14:30:36 2020, MaxMem=  2684354560 cpu:               5.1 elap:               0.8
 (Enter /udrive/faculty/rpeverati/g16/g16/l716.exe)
 Dipole        = 2.22044605D-16 1.11022302D-16-6.73926341D-01
 ***** Axes restored to original set *****
 -------------------------------------------------------------------
 Center     Atomic                   Forces (Hartrees/Bohr)
 Number     Number              X              Y              Z
 -------------------------------------------------------------------
      1        6          -0.000000000    0.000000000   -0.000515499
      2        9          -0.000000000    0.000000000    0.000546652
      3        1          -0.000109736    0.000190069   -0.000010384
      4        1          -0.000109736   -0.000190069   -0.000010384
      5        1           0.000219473   -0.000000000   -0.000010384
 -------------------------------------------------------------------
 Cartesian Forces:  Max     0.000546652 RMS     0.000217470
 Leave Link  716 at Wed Oct  7 14:30:36 2020, MaxMem=  2684354560 cpu:               1.2 elap:               0.5
 (Enter /udrive/faculty/rpeverati/g16/g16/l103.exe)

 GradGradGradGradGradGradGradGradGradGradGradGradGradGradGradGradGradGrad
 Berny optimization.
 Optmz: redundant internal coordinate code flag= 1
 Using GEDIIS/GDIIS optimizer.
 Red2BG:  D1=  6.20D-01 OD1=  1.20D-02 B2RMS=  0.00D+00 IAprox=0
 FormGI is forming the generalized inverse of G from B-inverse, IUseBI=4.
 Internal  Forces:  Max     0.000546652 RMS     0.000177749
 Search for a local minimum.
 Step number   3 out of a maximum of  100
 All quantities printed in internal units (Hartrees-Bohrs-Radians)
 RMS Force = .17775D-03 SwitMx=.10000D-02 MixMth= 2
 Mixed Optimization -- En-DIIS/RFO-DIIS
 Swapping is turned off.
 Update second derivatives using D2CorX and points    1    2    3
 DE= -1.79D-05 DEPred=-1.56D-05 R= 1.15D+00
 TightC=F SS=  1.41D+00  RLast= 1.32D-02 DXNew= 5.0454D-01 3.9486D-02
 Trust test= 1.15D+00 RLast= 1.32D-02 DXMaxT set to 3.00D-01
 The second derivative matrix:
                          R1        R2        R3        R4        A1
           R1           0.40105
           R2           0.02982   0.36501
           R3           0.02982   0.01462   0.36501
           R4           0.02982   0.01462   0.01462   0.36501
           A1           0.01708  -0.01971  -0.01971  -0.01971   0.15077
           A2           0.01836  -0.01646  -0.01646  -0.01646  -0.00902
           A3           0.02176  -0.00786  -0.00786  -0.00786  -0.00845
           A4          -0.01582   0.02320   0.02320   0.02320   0.00937
           A5          -0.02051   0.01136   0.01136   0.01136   0.00859
           A6          -0.02118   0.00962   0.00962   0.00962   0.00848
           D1          -0.00473  -0.01067  -0.01067  -0.01067  -0.00054
           D2           0.00413   0.00886   0.00886   0.00886   0.00042
           D3          -0.00529  -0.01179  -0.01179  -0.01179  -0.00062
           D4          -0.00942  -0.02065  -0.02065  -0.02065  -0.00104
                          A2        A3        A4        A5        A6
           A2           0.15131
           A3          -0.00781   0.15387
           A4           0.00930   0.00910   0.15065
           A5           0.00809   0.00677  -0.00907   0.15274
           A6           0.00792   0.00643  -0.00903  -0.00699   0.15331
           D1          -0.00094  -0.00200   0.00007   0.00152   0.00174
           D2           0.00076   0.00165  -0.00003  -0.00125  -0.00142
           D3          -0.00106  -0.00222   0.00009   0.00169   0.00193
           D4          -0.00181  -0.00386   0.00012   0.00294   0.00335
                          D1        D2        D3        D4
           D1           0.00398
           D2          -0.00115   0.00357
           D3           0.00151  -0.00126   0.00427
           D4           0.00266  -0.00223   0.00292   0.00776
 ITU=  1  1  0
 Eigenvectors of the second derivative matrix:
                           1         2         3         4         5
     Eigenvalues --     0.04648   0.05404   0.08611   0.15694   0.16000
   1         R1        -0.09231   0.04335  -0.01403  -0.08133  -0.00023
   2         R2         0.00815  -0.00347   0.00153   0.00878  -0.00011
   3         R3         0.00815  -0.00347   0.00153   0.00878  -0.00011
   4         R4         0.00815  -0.00347   0.00153   0.00878  -0.00011
   5         A1         0.39326   0.25773   0.12744  -0.18595   0.20467
   6         A2         0.10848  -0.37965   0.32986  -0.08373  -0.41004
   7         A3         0.11460  -0.16214  -0.37108   0.64980   0.20606
   8         A4        -0.27769   0.23667   0.35427   0.42389   0.00069
   9         A5        -0.12220   0.16770  -0.37186  -0.29588  -0.61205
  10         A6        -0.21983  -0.11876  -0.06912  -0.51022   0.61066
  11         D1        -0.37744  -0.22910  -0.57675   0.01803   0.00000
  12         D2         0.47702   0.31992  -0.30039  -0.01201  -0.00000
  13         D3        -0.06774   0.63797  -0.13433   0.01880   0.00000
  14         D4        -0.54476   0.31805   0.16606   0.03081   0.00000
                           6         7         8         9
     Eigenvalues --     0.34870   0.35040   0.35040   0.45189
   1         R1         0.65751  -0.00000   0.00000  -0.74194
   2         R2        -0.43089  -0.62073  -0.53044  -0.38406
   3         R3        -0.43089   0.76974  -0.27235  -0.38406
   4         R4        -0.43089  -0.14901   0.80278  -0.38406
   5         A1         0.00905  -0.00000   0.00000  -0.00794
   6         A2         0.01885  -0.00000   0.00000  -0.01590
   7         A3         0.05239  -0.00000   0.00000  -0.04158
   8         A4         0.00392  -0.00000   0.00000  -0.00132
   9         A5        -0.03826   0.00000  -0.00000   0.03075
  10         A6        -0.04639   0.00000  -0.00000   0.03635
  11         D1        -0.02506   0.00000  -0.00000   0.02029
  12         D2         0.01963  -0.00000   0.00000  -0.01626
  13         D3        -0.02664   0.00000  -0.00000   0.02258
  14         D4        -0.04626   0.00000  -0.00000   0.03884
 DoSqrt=T IScMMF=    -3 MM Scaling Factor =       0.00000
 En-DIIS/RFO-DIIS/Sim-DIIS IScMMF=       -3 using points:     3    2
 Iter=   1 RLamda=-3.52170629D-03 Sum=-1.35005440D-06.
 Iter=   2 RLamda=-1.35005440D-06 Sum=-1.38683402D-06.
 Iter=   3 RLamda=-1.38683402D-06 Sum=-1.38683362D-06.
 RFO step:  Lambda=-1.38683402D-06.
 NNeg= 0 NGDIIS= 2 SimSw=  2.50D-03 Rises=F DC= -1.79D-05 SmlDif=  1.00D-05
 NRisDI= 0 DoIntr=F SqrtH=F CThrHd= 10.0 CDAdj=  3.0
 RMS Error=  0.8892488648D-03 NUsed= 2 OKEnD=T EnDIS=F
 Energy Point     1  -0.1395840437D+03
 Energy Point     2  -0.1395840258D+03
 Total En-DIIS matrix:
                 1             2             3 
      1   0.000000D+00 -0.100000D+01 -0.100000D+01
      2  -0.100000D+01  0.000000D+00  0.268716D-04
      3  -0.100000D+01  0.268716D-04  0.000000D+00
 Total RFO-DIIS matrix:
                 1             2             3 
      1   0.000000D+00 -0.100000D+01 -0.100000D+01
      2  -0.100000D+01  0.110707D-04  0.499017D-04
      3  -0.100000D+01  0.499017D-04  0.261698D-03
 InvSVX:  RCond= 4.32D-05 Info=           0 Equed=N FErr=  1.40D-15 BErr=  0.00D+00
 DidBck=F Rises=F RFO-DIIS coefs:    1.22450   -0.22450
 Iteration  1 RMS(Cart)=  0.00052096 RMS(Int)=  0.00000147
 Iteration  2 RMS(Cart)=  0.00000026 RMS(Int)=  0.00000145
 ITry= 1 IFail=0 DXMaxC= 1.05D-03 DCOld= 1.00D+10 DXMaxT= 3.00D-01 DXLimC= 3.00D+00 Rises=F
 ClnCor:  largest displacement from symmetrization is 1.12D-05 for atom     5.
 Variable       Old X    -DE/DX   Delta X   Delta X   Delta X     New X
                                 (Linear)    (Quad)   (Total)
    R1        2.59577  -0.00055  -0.00184   0.00030  -0.00154   2.59423
    R2        2.07157  -0.00021   0.00037  -0.00079  -0.00042   2.07115
    R3        2.07157  -0.00021   0.00037  -0.00079  -0.00042   2.07115
    R4        2.07157  -0.00021   0.00037  -0.00079  -0.00042   2.07115
    A1        1.91322   0.00001   0.00055   0.00015   0.00070   1.91393
    A2        1.91322   0.00002   0.00055   0.00016   0.00070   1.91393
    A3        1.91322   0.00004   0.00055   0.00016   0.00070   1.91393
    A4        1.90804  -0.00001  -0.00055  -0.00015  -0.00071   1.90733
    A5        1.90804  -0.00004  -0.00055  -0.00016  -0.00071   1.90733
    A6        1.90804  -0.00004  -0.00055  -0.00016  -0.00071   1.90733
    D1       -2.09756  -0.00003  -0.00067  -0.00019  -0.00086  -2.09842
    D2        2.09756   0.00002   0.00067   0.00019   0.00086   2.09842
    D3       -2.09756  -0.00003  -0.00067  -0.00020  -0.00086  -2.09842
    D4        2.08806  -0.00005  -0.00134  -0.00038  -0.00172   2.08635
         Item               Value     Threshold  Converged?
 Maximum Force            0.000547     0.000450     NO 
 RMS     Force            0.000178     0.000300     YES
 Maximum Displacement     0.001052     0.001800     YES
 RMS     Displacement     0.000521     0.001200     YES
 Predicted change in Energy=-6.932165D-07
 Lowest energy point so far.  Saving SCF results.
 Largest change from initial coordinates is atom    5       0.011 Angstoms.
 GradGradGradGradGradGradGradGradGradGradGradGradGradGradGradGradGradGrad

 Leave Link  103 at Wed Oct  7 14:30:37 2020, MaxMem=  2684354560 cpu:               1.8 elap:               0.5
 (Enter /udrive/faculty/rpeverati/g16/g16/l202.exe)
                          Input orientation:                          
 ---------------------------------------------------------------------
 Center     Atomic      Atomic             Coordinates (Angstroms)
 Number     Number       Type             X           Y           Z
 ---------------------------------------------------------------------
      1          6           0        0.000000    0.000000    0.053281
      2          9           0        0.000000    0.000000   -1.319527
      3          1           0        0.516056   -0.893836    0.422019
      4          1           0        0.516056    0.893836    0.422019
      5          1           0       -1.032113   -0.000000    0.422019
 ---------------------------------------------------------------------
                    Distance matrix (angstroms):
                    1          2          3          4          5
     1  C    0.000000
     2  F    1.372808   0.000000
     3  H    1.096004   2.024411   0.000000
     4  H    1.096004   2.024411   1.787671   0.000000
     5  H    1.096004   2.024411   1.787671   1.787671   0.000000
 Stoichiometry    CH3F
 Framework group  C3V[C3(CF),3SGV(H)]
 Deg. of freedom     3
 Full point group                 C3V     NOp   6
 RotChk:  IX=0 Diff= 1.57D-16
 Largest Abelian subgroup         CS      NOp   2
 Largest concise Abelian subgroup CS      NOp   2
                         Standard orientation:                         
 ---------------------------------------------------------------------
 Center     Atomic      Atomic             Coordinates (Angstroms)
 Number     Number       Type             X           Y           Z
 ---------------------------------------------------------------------
      1          6           0        0.000000    0.000000   -0.624948
      2          9           0        0.000000    0.000000    0.747860
      3          1           0        0.000000    1.032113   -0.993685
      4          1           0        0.893836   -0.516056   -0.993685
      5          1           0       -0.893836   -0.516056   -0.993685
 ---------------------------------------------------------------------
 Rotational constants (GHZ):         156.9121842          25.9103870          25.9103870
 Leave Link  202 at Wed Oct  7 14:30:38 2020, MaxMem=  2684354560 cpu:               1.3 elap:               0.4
 (Enter /udrive/faculty/rpeverati/g16/g16/l301.exe)
 Standard basis: 6-31G(d) (5D, 7F)
[...]
 Coeff-Com:  0.444D-04-0.766D-03-0.158D-02-0.362D-02 0.966D-02 0.153D+00
 Coeff-Com:  0.843D+00
 Coeff:      0.444D-04-0.766D-03-0.158D-02-0.362D-02 0.966D-02 0.153D+00
 Coeff:      0.843D+00
 Gap=     0.465 Goal=   None    Shift=    0.000
 RMSDP=1.29D-09 MaxDP=1.08D-08 DE=-5.68D-13 OVMax= 1.65D-08

 SCF Done:  E(RPBE1PBE) =  -139.584044431     A.U. after    7 cycles
            NFock=  7  Conv=0.13D-08     -V/T= 2.0043
 KE= 1.389912984336D+02 PE=-4.057048244059D+02 EE= 8.967844793072D+01
 Leave Link  502 at Wed Oct  7 14:30:42 2020, MaxMem=  2684354560 cpu:              10.5 elap:               1.3
 (Enter /udrive/faculty/rpeverati/g16/g16/l508.exe)
 QCSCF skips out because SCF is already converged.
 Leave Link  508 at Wed Oct  7 14:30:43 2020, MaxMem=  2684354560 cpu:               0.3 elap:               0.3
 (Enter /udrive/faculty/rpeverati/g16/g16/l701.exe)
 ... and contract with generalized density number  0.
 Compute integral first derivatives.
 R6Disp: Adding Grimme-D3(BJ) dispersion energy 1st derivatives to the gradient.
 Leave Link  701 at Wed Oct  7 14:30:44 2020, MaxMem=  2684354560 cpu:               3.7 elap:               0.7
 (Enter /udrive/faculty/rpeverati/g16/g16/l702.exe)
 L702 exits ... SP integral derivatives will be done elsewhere.
 Leave Link  702 at Wed Oct  7 14:30:45 2020, MaxMem=  2684354560 cpu:               1.0 elap:               0.5
 (Enter /udrive/faculty/rpeverati/g16/g16/l703.exe)
 Integral derivatives from FoFJK, PRISM(SPDF).
 Compute integral first derivatives, UseDBF=F ICtDFT=           0.
 Calling FoFJK, ICntrl=      2127 FMM=F ISym2X=1 I1Cent= 0 IOpClX= 0 NMat=1 NMatS=1 NMatT=0.
 FoFJK:  IHMeth= 1 ICntrl=    2127 DoSepK=F KAlg= 0 I1Cent=           0 FoldK=F
 IRaf=         0 NMat=       1 IRICut=       1 DoRegI=T DoRafI=F ISym2E= 1 IDoP0=0 IntGTp=1.
 FoFCou: FMM=F IPFlag=           0 FMFlag=      100000 FMFlg1=         800
         NFxFlg=           0 DoJE=F BraDBF=F KetDBF=F FulRan=T
         wScrn=  0.000000 ICntrl=      2127 IOpCl=  0 I1Cent=           0 NGrid=           0
         NMat0=    1 NMatS0=      1 NMatT0=    0 NMatD0=    1 NMtDS0=    0 NMtDT0=    0
 Petite list used in FoFCou.
 Leave Link  703 at Wed Oct  7 14:30:46 2020, MaxMem=  2684354560 cpu:               5.6 elap:               0.7
 (Enter /udrive/faculty/rpeverati/g16/g16/l716.exe)
 Dipole        = 0.00000000D+00 0.00000000D+00-6.72684514D-01
 ***** Axes restored to original set *****
 -------------------------------------------------------------------
 Center     Atomic                   Forces (Hartrees/Bohr)
 Number     Number              X              Y              Z
 -------------------------------------------------------------------
      1        6          -0.000000000   -0.000000000    0.000030585
      2        9          -0.000000000    0.000000000    0.000027633
      3        1          -0.000011062    0.000019160   -0.000019406
      4        1          -0.000011062   -0.000019160   -0.000019406
      5        1           0.000022125   -0.000000000   -0.000019406
 -------------------------------------------------------------------
 Cartesian Forces:  Max     0.000030585 RMS     0.000016926
 Leave Link  716 at Wed Oct  7 14:30:46 2020, MaxMem=  2684354560 cpu:               0.9 elap:               0.3
 (Enter /udrive/faculty/rpeverati/g16/g16/l103.exe)

 GradGradGradGradGradGradGradGradGradGradGradGradGradGradGradGradGradGrad
 Berny optimization.
 Optmz: redundant internal coordinate code flag= 1
 Using GEDIIS/GDIIS optimizer.
 Red2BG:  D1=  6.21D-01 OD1=  2.72D-03 B2RMS=  0.00D+00 IAprox=0
 FormGI is forming the generalized inverse of G from B-inverse, IUseBI=4.
 Internal  Forces:  Max     0.000027633 RMS     0.000015409
 Search for a local minimum.
 Step number   4 out of a maximum of  100
 All quantities printed in internal units (Hartrees-Bohrs-Radians)
 RMS Force = .15409D-04 SwitMx=.10000D-02 MixMth= 2
 Mixed Optimization -- En-DIIS/RFO-DIIS
 Swapping is turned off.
 Update second derivatives using D2CorX and points    1    2    3    4
 DE= -7.09D-07 DEPred=-6.93D-07 R= 1.02D+00
 Trust test= 1.02D+00 RLast= 3.33D-03 DXMaxT set to 3.00D-01
 The second derivative matrix:
                          R1        R2        R3        R4        A1
           R1           0.38569
           R2           0.01862   0.35270
           R3           0.01862   0.00231   0.35270
           R4           0.01862   0.00231   0.00231   0.35270
           A1           0.04236  -0.01364  -0.01364  -0.01364   0.14714
           A2           0.03903  -0.01159  -0.01159  -0.01159  -0.01254
           A3           0.03029  -0.00615  -0.00615  -0.00615  -0.01168
           A4          -0.04609   0.01575   0.01575   0.01575   0.01313
           A5          -0.03410   0.00826   0.00826   0.00826   0.01195
           A6          -0.03227   0.00717   0.00717   0.00717   0.01178
           D1           0.01034  -0.00673  -0.00673  -0.00673  -0.00085
           D2          -0.00822   0.00565   0.00565   0.00565   0.00067
           D3           0.01116  -0.00751  -0.00751  -0.00751  -0.00097
           D4           0.01938  -0.01316  -0.01316  -0.01316  -0.00164
                          A2        A3        A4        A5        A6
           A2           0.14800
           A3          -0.01056   0.15241
           A4           0.01305   0.01284   0.14688
           A5           0.01107   0.00876  -0.01283   0.15035
           A6           0.01078   0.00815  -0.01279  -0.00918   0.15136
           D1          -0.00160  -0.00358   0.00001   0.00274   0.00314
           D2           0.00130   0.00295   0.00002  -0.00225  -0.00259
           D3          -0.00179  -0.00396   0.00005   0.00304   0.00348
           D4          -0.00309  -0.00691   0.00003   0.00529   0.00607
                          D1        D2        D3        D4
           D1           0.00517
           D2          -0.00214   0.00439
           D3           0.00281  -0.00234   0.00568
           D4           0.00495  -0.00412   0.00541   0.01214
 ITU=  0  1  1  0
 Eigenvectors of the second derivative matrix:
                           1         2         3         4         5
     Eigenvalues --     0.04884   0.05488   0.08609   0.15819   0.16000
   1         R1        -0.07720   0.05885  -0.01440  -0.07893  -0.00054
   2         R2         0.00865  -0.00627   0.00203   0.01092  -0.00008
   3         R3         0.00865  -0.00627   0.00203   0.01092  -0.00008
   4         R4         0.00865  -0.00627   0.00203   0.01092  -0.00008
   5         A1         0.44104   0.16570   0.13065  -0.18209   0.20411
   6         A2         0.02278  -0.39223   0.33348  -0.07536  -0.41079
   7         A3         0.07101  -0.17828  -0.37071   0.65133   0.20926
   8         A4        -0.22991   0.29915   0.34808   0.41755   0.00255
   9         A5        -0.07592   0.18369  -0.37327  -0.29796  -0.61322
  10         A6        -0.23272  -0.07521  -0.06888  -0.51623   0.60808
  11         D1        -0.41282  -0.14739  -0.57955   0.01169   0.00001
  12         D2         0.53746   0.20729  -0.29752  -0.00789  -0.00001
  13         D3         0.07220   0.63668  -0.13910   0.01177   0.00001
  14         D4        -0.46526   0.42940   0.15842   0.01966   0.00002
                           6         7         8         9
     Eigenvalues --     0.33822   0.35040   0.35040   0.40947
   1         R1         0.51324  -0.00000   0.00000  -0.84896
   2         R2        -0.49290  -0.00915  -0.81645  -0.30025
   3         R3        -0.49290   0.71164   0.40030  -0.30025
   4         R4        -0.49290  -0.70249   0.41615  -0.30025
   5         A1         0.00779  -0.00000  -0.00000  -0.00933
   6         A2         0.01609  -0.00000   0.00000  -0.01793
   7         A3         0.04457  -0.00000   0.00000  -0.04627
   8         A4         0.00345  -0.00000   0.00000  -0.00100
   9         A5        -0.03262   0.00000  -0.00000   0.03434
  10         A6        -0.03974   0.00000  -0.00000   0.04070
  11         D1        -0.02154   0.00000  -0.00000   0.02305
  12         D2         0.01673  -0.00000   0.00000  -0.01861
  13         D3        -0.02251   0.00000  -0.00000   0.02523
  14         D4        -0.03925   0.00000  -0.00000   0.04383
 DoSqrt=T IScMMF=    -3 MM Scaling Factor =       0.00000
 En-DIIS/RFO-DIIS/Sim-DIIS IScMMF=       -3 using points:     4    3    2
 Iter=   1 RLamda=-1.16025543D-03 Sum=-1.16011791D-08.
 Iter=   2 RLamda=-1.16011791D-08 Sum=-1.17047090D-08.
 RFO step:  Lambda=-1.16011791D-08.
 NNeg= 0 NGDIIS= 3 SimSw=  2.50D-01 Rises=F DC= -7.09D-07 SmlDif=  1.00D-05
 NRisDI= 0 DoIntr=F SqrtH=F CThrHd= 10.0 CDAdj=  3.0
 RMS Error=  0.8055101188D-04 NUsed= 3 OKEnD=F EnDIS=F
 Total RFO-DIIS matrix:
                 1             2             3             4 
      1   0.000000D+00 -0.100000D+01 -0.100000D+01 -0.100000D+01
      2  -0.100000D+01  0.908385D-07 -0.525044D-06 -0.300761D-05
      3  -0.100000D+01 -0.525044D-06  0.991397D-05  0.437142D-04
      4  -0.100000D+01 -0.300761D-05  0.437142D-04  0.233156D-03
 InvSVX:  RCond= 5.39D-07 Info=           0 Equed=N FErr=  1.80D-15 BErr=  7.02D-17
 DidBck=F Rises=F RFO-DIIS coefs:    0.98569    0.00169    0.01262
 Iteration  1 RMS(Cart)=  0.00005402 RMS(Int)=  0.00000010
 Iteration  2 RMS(Cart)=  0.00000000 RMS(Int)=  0.00000010
 ITry= 1 IFail=0 DXMaxC= 1.26D-04 DCOld= 1.00D+10 DXMaxT= 3.00D-01 DXLimC= 3.00D+00 Rises=F
 ClnCor:  largest displacement from symmetrization is 1.64D-06 for atom     5.
 Variable       Old X    -DE/DX   Delta X   Delta X   Delta X     New X
                                 (Linear)    (Quad)   (Total)
    R1        2.59423  -0.00003   0.00013  -0.00016  -0.00004   2.59419
    R2        2.07115  -0.00003  -0.00001  -0.00006  -0.00008   2.07107
    R3        2.07115  -0.00003  -0.00001  -0.00006  -0.00008   2.07107
    R4        2.07115  -0.00003  -0.00001  -0.00006  -0.00008   2.07107
    A1        1.91393  -0.00000  -0.00004  -0.00003  -0.00007   1.91386
    A2        1.91393  -0.00000  -0.00004  -0.00003  -0.00007   1.91386
    A3        1.91393  -0.00001  -0.00004  -0.00003  -0.00007   1.91386
    A4        1.90733   0.00000   0.00004   0.00003   0.00007   1.90740
    A5        1.90733   0.00001   0.00004   0.00003   0.00007   1.90740
    A6        1.90733   0.00001   0.00004   0.00003   0.00007   1.90740
    D1       -2.09842   0.00000   0.00005   0.00003   0.00008  -2.09834
    D2        2.09842  -0.00000  -0.00005  -0.00003  -0.00008   2.09834
    D3       -2.09842   0.00001   0.00005   0.00003   0.00008  -2.09834
    D4        2.08635   0.00001   0.00010   0.00007   0.00017   2.08651
         Item               Value     Threshold  Converged?
 Maximum Force            0.000028     0.000450     YES
 RMS     Force            0.000015     0.000300     YES
 Maximum Displacement     0.000126     0.001800     YES
 RMS     Displacement     0.000054     0.001200     YES
 Predicted change in Energy=-5.848927D-09
 Optimization completed.
    -- Stationary point found.
                           ----------------------------
                           !   Optimized Parameters   !
                           ! (Angstroms and Degrees)  !
 --------------------------                            --------------------------
 ! Name  Definition              Value          Derivative Info.                !
 --------------------------------------------------------------------------------
 ! R1    R(1,2)                  1.3728         -DE/DX =    0.0                 !
 ! R2    R(1,3)                  1.096          -DE/DX =    0.0                 !
 ! R3    R(1,4)                  1.096          -DE/DX =    0.0                 !
 ! R4    R(1,5)                  1.096          -DE/DX =    0.0                 !
 ! A1    A(2,1,3)              109.66           -DE/DX =    0.0                 !
 ! A2    A(2,1,4)              109.66           -DE/DX =    0.0                 !
 ! A3    A(2,1,5)              109.66           -DE/DX =    0.0                 !
 ! A4    A(3,1,4)              109.2817         -DE/DX =    0.0                 !
 ! A5    A(3,1,5)              109.2817         -DE/DX =    0.0                 !
 ! A6    A(4,1,5)              109.2817         -DE/DX =    0.0                 !
 ! D1    D(2,1,4,3)           -120.2306         -DE/DX =    0.0                 !
 ! D2    D(2,1,5,3)            120.2306         -DE/DX =    0.0                 !
 ! D3    D(2,1,5,4)           -120.2306         -DE/DX =    0.0                 !
 ! D4    D(3,1,5,4)            119.5388         -DE/DX =    0.0                 !
 --------------------------------------------------------------------------------
 Lowest energy point so far.  Saving SCF results.
 Largest change from initial coordinates is atom    3       0.011 Angstoms.
 GradGradGradGradGradGradGradGradGradGradGradGradGradGradGradGradGradGrad

 Leave Link  103 at Wed Oct  7 14:30:47 2020, MaxMem=  2684354560 cpu:               1.7 elap:               0.5
 (Enter /udrive/faculty/rpeverati/g16/g16/l202.exe)
                          Input orientation:                          
 ---------------------------------------------------------------------
 Center     Atomic      Atomic             Coordinates (Angstroms)
 Number     Number       Type             X           Y           Z
 ---------------------------------------------------------------------
      1          6           0        0.000000    0.000000    0.053281
      2          9           0        0.000000    0.000000   -1.319527
      3          1           0        0.516056   -0.893836    0.422019
      4          1           0        0.516056    0.893836    0.422019
      5          1           0       -1.032113   -0.000000    0.422019
 ---------------------------------------------------------------------
                    Distance matrix (angstroms):
                    1          2          3          4          5
     1  C    0.000000
     2  F    1.372808   0.000000
     3  H    1.096004   2.024411   0.000000
     4  H    1.096004   2.024411   1.787671   0.000000
     5  H    1.096004   2.024411   1.787671   1.787671   0.000000
 Stoichiometry    CH3F
 Framework group  C3V[C3(CF),3SGV(H)]
 Deg. of freedom     3
 Full point group                 C3V     NOp   6
 RotChk:  IX=0 Diff= 1.57D-16
 Largest Abelian subgroup         CS      NOp   2
 Largest concise Abelian subgroup CS      NOp   2
                         Standard orientation:                         
 ---------------------------------------------------------------------
 Center     Atomic      Atomic             Coordinates (Angstroms)
 Number     Number       Type             X           Y           Z
 ---------------------------------------------------------------------
      1          6           0        0.000000    0.000000   -0.624948
      2          9           0        0.000000    0.000000    0.747860
      3          1           0        0.000000    1.032113   -0.993685
      4          1           0        0.893836   -0.516056   -0.993685
      5          1           0       -0.893836   -0.516056   -0.993685
 ---------------------------------------------------------------------
 Rotational constants (GHZ):         156.9121842          25.9103870          25.9103870
 Leave Link  202 at Wed Oct  7 14:30:48 2020, MaxMem=  2684354560 cpu:               1.0 elap:               0.4
 (Enter /udrive/faculty/rpeverati/g16/g16/l601.exe)
 Copying SCF densities to generalized density rwf, IOpCl= 0 IROHF=0.

 **********************************************************************

            Population analysis using the SCF density.

 **********************************************************************

 Orbital symmetries:
       Occupied  (A1) (A1) (A1) (A1) (A1) (E) (E) (E) (E)
       Virtual   (A1) (A1) (E) (E) (A1) (E) (E) (E) (E) (A1) (A1)
                 (A1) (E) (E) (E) (E) (E) (E) (A1) (A1) (E) (E)
                 (E) (E) (A1)
 The electronic state is 1-A1.
 Alpha  occ. eigenvalues --  -24.74677 -10.29043  -1.20839  -0.71459  -0.49277
 Alpha  occ. eigenvalues --   -0.48767  -0.48767  -0.34409  -0.34409
 Alpha virt. eigenvalues --    0.12046   0.15084   0.17953   0.17953   0.54463
 Alpha virt. eigenvalues --    0.56936   0.56936   0.86811   0.86811   0.90002
 Alpha virt. eigenvalues --    0.99938   1.27518   1.28822   1.28822   1.53260
 Alpha virt. eigenvalues --    1.53260   1.84320   1.84320   1.95448   2.11592
 Alpha virt. eigenvalues --    2.20336   2.20336   2.45406   2.45406   3.01358
          Condensed to atoms (all electrons):
               1          2          3          4          5
     1  C    4.798033   0.243746   0.369597   0.369597   0.369597
     2  F    0.243746   9.192199  -0.031534  -0.031534  -0.031534
     3  H    0.369597  -0.031534   0.580648  -0.041341  -0.041341
     4  H    0.369597  -0.031534  -0.041341   0.580648  -0.041341
     5  H    0.369597  -0.031534  -0.041341  -0.041341   0.580648
 Mulliken charges:
               1
     1  C   -0.150569
     2  F   -0.341344
     3  H    0.163971
     4  H    0.163971
     5  H    0.163971
 Sum of Mulliken charges =  -0.00000
 Mulliken charges with hydrogens summed into heavy atoms:
               1
     1  C    0.341344
     2  F   -0.341344
 Electronic spatial extent (au):  <R**2>=             74.5649
 Charge=             -0.0000 electrons
 Dipole moment (field-independent basis, Debye):
    X=              0.0000    Y=              0.0000    Z=             -1.7098  Tot=              1.7098
 Quadrupole moment (field-independent basis, Debye-Ang):
   XX=            -11.6674   YY=            -11.6674   ZZ=            -11.9462
   XY=             -0.0000   XZ=             -0.0000   YZ=             -0.0000
 Traceless Quadrupole moment (field-independent basis, Debye-Ang):
   XX=              0.0929   YY=              0.0929   ZZ=             -0.1859
   XY=             -0.0000   XZ=             -0.0000   YZ=             -0.0000
 Octapole moment (field-independent basis, Debye-Ang**2):
  XXX=             -0.0000  YYY=              0.5064  ZZZ=              4.8878  XYY=             -0.0000
  XXY=             -0.5064  XXZ=              1.4134  XZZ=             -0.0000  YZZ=              0.0000
  YYZ=              1.4134  XYZ=              0.0000
 Hexadecapole moment (field-independent basis, Debye-Ang**3):
 XXXX=            -16.2604 YYYY=            -16.2604 ZZZZ=            -48.8659 XXXY=              0.0000
 XXXZ=              0.0000 YYYX=              0.0000 YYYZ=             -0.5845 ZZZX=              0.0000
 ZZZY=              0.0000 XXYY=             -5.4201 XXZZ=            -10.6721 YYZZ=            -10.6721
 XXYZ=              0.5845 YYXZ=              0.0000 ZZXY=              0.0000
 N-N= 3.745103361089D+01 E-N=-4.057048245514D+02  KE= 1.389912984336D+02
 No NMR shielding tensors so no spin-rotation constants.
 Leave Link  601 at Wed Oct  7 14:30:48 2020, MaxMem=  2684354560 cpu:               3.4 elap:               0.7
 (Enter /udrive/faculty/rpeverati/g16/g16/l9999.exe)

 Test job not archived.
 1\1\GINC-NODE21\FOpt\RPBE1PBE\6-31G(d)\C1H3F1\RPEVERATI\07-Oct-2020\0\
 \#P Opt(MaxCyc=100) PBE1PBE/6-31G* 5D 7F Integral=UltraFineGrid SCF=(N
 oSymm,XQC,MaxCyc=120) EmpiricalDispersion=GD3BJ IOp(1/33=1)\\TS search
  on BH76.\\0,1\C,0.,0.,0.0532811098\F,0.,0.,-1.3195267614\H,0.51605628
 46,-0.8938357045,0.4220189793\H,0.5160562846,0.8938357045,0.4220189793
 \H,-1.0321125693,0.,0.4220189793\\Version=ES64L-G16RevA.03\State=1-A1\
 HF=-139.5840444\RMSD=1.295e-09\RMSF=1.693e-05\Dipole=0.,0.,0.6726845\Q
 uadrupole=0.0690992,0.0690992,-0.1381983,0.,0.,0.\PG=C03V [C3(C1F1),3S
 GV(H1)]\\@


 Everything starts as somebody's daydream.
                           -- Larry Niven
 Job cpu time:       0 days  0 hours  2 minutes 42.3 seconds.
 Elapsed time:       0 days  0 hours  0 minutes 31.8 seconds.
 File lengths (MBytes):  RWF=      5 Int=      0 D2E=      0 Chk=      1 Scr=      1
 Normal termination of Gaussian 16 at Wed Oct  7 14:30:50 2020.
