 Entering Gaussian System, Link 0=g16
 Input=MN_23_ch3oh_lower_BH76_PBE0DBJ_631Gs.in
 Output=MN_23_ch3oh_lower_BH76_PBE0DBJ_631Gs.log
 Initial command:
 /udrive/faculty/rpeverati/g16/g16/l1.exe "/udrive/scratch-directories/gaussian09/rpeverati/Gau-15984.inp" -scrdir="/udrive/scratch-directories/gaussian09/rpeverati/"
 Entering Link 1 = /udrive/faculty/rpeverati/g16/g16/l1.exe PID=     15985.
  
 Copyright (c) 1988,1990,1992,1993,1995,1998,2003,2009,2016,
            Gaussian, Inc.  All Rights Reserved.
  
 This is part of the Gaussian(R) 16 program.  It is based on
 the Gaussian(R) 09 system (copyright 2009, Gaussian, Inc.),
 the Gaussian(R) 03 system (copyright 2003, Gaussian, Inc.),
 the Gaussian(R) 98 system (copyright 1998, Gaussian, Inc.),
 the Gaussian(R) 94 system (copyright 1995, Gaussian, Inc.),
 the Gaussian 92(TM) system (copyright 1992, Gaussian, Inc.),
 the Gaussian 90(TM) system (copyright 1990, Gaussian, Inc.),
 the Gaussian 88(TM) system (copyright 1988, Gaussian, Inc.),
 the Gaussian 86(TM) system (copyright 1986, Carnegie Mellon
 University), and the Gaussian 82(TM) system (copyright 1983,
 Carnegie Mellon University). Gaussian is a federally registered
 trademark of Gaussian, Inc.
  
 This software contains proprietary and confidential information,
 including trade secrets, belonging to Gaussian, Inc.
  
 This software is provided under written license and may be
 used, copied, transmitted, or stored only in accord with that
 written license.
  
 The following legend is applicable only to US Government
 contracts under FAR:
  
                    RESTRICTED RIGHTS LEGEND
  
 Use, reproduction and disclosure by the US Government is
 subject to restrictions as set forth in subparagraphs (a)
 and (c) of the Commercial Computer Software - Restricted
 Rights clause in FAR 52.227-19.
  
 Gaussian, Inc.
 340 Quinnipiac St., Bldg. 40, Wallingford CT 06492
  
  
 ---------------------------------------------------------------
 Warning -- This program may not be used in any manner that
 competes with the business of Gaussian, Inc. or will provide
 assistance to any competitor of Gaussian, Inc.  The licensee
 of this program is prohibited from giving any competitor of
 Gaussian, Inc. access to this program.  By using this program,
 the user acknowledges that Gaussian, Inc. is engaged in the
 business of creating and licensing software in the field of
 computational chemistry and represents and warrants to the
 licensee that it is not a competitor of Gaussian, Inc. and that
 it will not use this program in any manner prohibited above.
 ---------------------------------------------------------------
  

 Cite this work as:
 Gaussian 16, Revision A.03,
 M. J. Frisch, G. W. Trucks, H. B. Schlegel, G. E. Scuseria, 
 M. A. Robb, J. R. Cheeseman, G. Scalmani, V. Barone, 
 G. A. Petersson, H. Nakatsuji, X. Li, M. Caricato, A. V. Marenich, 
 J. Bloino, B. G. Janesko, R. Gomperts, B. Mennucci, H. P. Hratchian, 
 J. V. Ortiz, A. F. Izmaylov, J. L. Sonnenberg, D. Williams-Young, 
 F. Ding, F. Lipparini, F. Egidi, J. Goings, B. Peng, A. Petrone, 
 T. Henderson, D. Ranasinghe, V. G. Zakrzewski, J. Gao, N. Rega, 
 G. Zheng, W. Liang, M. Hada, M. Ehara, K. Toyota, R. Fukuda, 
 J. Hasegawa, M. Ishida, T. Nakajima, Y. Honda, O. Kitao, H. Nakai, 
 T. Vreven, K. Throssell, J. A. Montgomery, Jr., J. E. Peralta, 
 F. Ogliaro, M. J. Bearpark, J. J. Heyd, E. N. Brothers, K. N. Kudin, 
 V. N. Staroverov, T. A. Keith, R. Kobayashi, J. Normand, 
 K. Raghavachari, A. P. Rendell, J. C. Burant, S. S. Iyengar, 
 J. Tomasi, M. Cossi, J. M. Millam, M. Klene, C. Adamo, R. Cammi, 
 J. W. Ochterski, R. L. Martin, K. Morokuma, O. Farkas, 
 J. B. Foresman, and D. J. Fox, Gaussian, Inc., Wallingford CT, 2016.
 
 ******************************************
 Gaussian 16:  ES64L-G16RevA.03 25-Dec-2016
                 7-Oct-2020 
 ******************************************
 %NoSave
 %nproc=12
 Will use up to   12 processors via shared memory.
 %mem=20GB
 %chk=MN_23_ch3oh_lower_BH76_PBE0DBJ_631Gs
 ----------------------------------------------------------------------
 #P Opt(MaxCyc=100) PBE1PBE/6-31G* 5D 7F Integral=UltraFineGrid SCF=(No
 Symm,XQC,MaxCyc=120) EmpiricalDispersion=GD3BJ IOp(1/33=1)
 ----------------------------------------------------------------------
 1/6=100,18=20,19=15,26=4,33=1,38=1/1,3;
 2/9=110,12=2,17=6,18=5,40=1/2;
 3/5=1,6=6,7=1,8=11,11=2,25=1,30=1,71=1,74=-13,75=-5,124=41/1,2,3;
 4/9=2/1;
 5/5=2,7=120,8=3,13=1,38=5/2,8;
 6/7=2,8=2,9=2,10=2,28=1/1;
 7//1,2,3,16;
 1/6=100,18=20,19=15,26=4,33=1/3(2);
 2/9=110/2;
 99//99;
 2/9=110/2;
 3/5=1,6=6,7=1,8=11,11=2,25=1,30=1,71=1,74=-13,75=-5,124=41/1,2,3;
 4/5=5,9=2,16=3,69=1/1;
 5/5=2,7=120,8=3,13=1,38=5/2,8;
 7//1,2,3,16;
 1/6=100,18=20,19=15,26=4,33=1/3(-5);
 2/9=110/2;
 6/7=2,8=2,9=2,10=2,19=2,28=1/1;
 99/9=1/99;
 Leave Link    1 at Wed Oct  7 14:30:06 2020, MaxMem=  2684354560 cpu:               6.5 elap:               0.7
 (Enter /udrive/faculty/rpeverati/g16/g16/l101.exe)
 ONIOM data not found on unit 2.
 ------------------
 TS search on BH76.
 ------------------
 TstMul:  ICh=     0
 TstMul:  Mul=     1
 TstMul:  ICh=     0
 TstMul:  Mul=     1
 Symbolic Z-matrix:
 Charge =  0 Multiplicity = 1
 C                    -0.04642   0.66307   0. 
 O                    -0.04642  -0.75506   0. 
 H                    -1.08696   0.97594   0. 
 H                     0.86059  -1.05704   0. 
 H                     0.43814   1.07159   0.88954 
 H                     0.43814   1.07159  -0.88954 
 
 RdStrC is calling ZToCFu for IStruc=1 NZ=     6.
 PrtBox:  NBox=     1 Levels=  1 BoxLen=    8.00 SMaxX=        4.02
          Shift=            2.054050            1.997520            1.680990
 Box      1 Number                   0 centers from      1 to      6:
 After GenITR:
 ITRead=  0  0  0  0  0  0
 MicOpt= -1 -1 -1 -1 -1 -1
 ITRead=  0  0  0  0  0  0
 MicOpt= -1 -1 -1 -1 -1 -1
 NAtoms=      6 NQM=        6 NQMF=       0 NMMI=      0 NMMIF=      0
                NMic=       0 NMicF=      0.
                    Isotopes and Nuclear Properties:
 (Nuclear quadrupole moments (NQMom) in fm**2, nuclear magnetic moments (NMagM)
  in nuclear magnetons)

  Atom         1           2           3           4           5           6
 IAtWgt=          12          16           1           1           1           1
 AtmWgt=  12.0000000  15.9949146   1.0078250   1.0078250   1.0078250   1.0078250
 NucSpn=           0           0           1           1           1           1
 AtZEff=   0.0000000   0.0000000   0.0000000   0.0000000   0.0000000   0.0000000
 NQMom=    0.0000000   0.0000000   0.0000000   0.0000000   0.0000000   0.0000000
 NMagM=    0.0000000   0.0000000   2.7928460   2.7928460   2.7928460   2.7928460
 AtZNuc=   6.0000000   8.0000000   1.0000000   1.0000000   1.0000000   1.0000000
 No MM parameters found.
 Leave Link  101 at Wed Oct  7 14:30:07 2020, MaxMem=  2684354560 cpu:              13.1 elap:               1.1
 (Enter /udrive/faculty/rpeverati/g16/g16/l103.exe)

 GradGradGradGradGradGradGradGradGradGradGradGradGradGradGradGradGradGrad
 Berny optimization.
 Optmz: redundant internal coordinate code flag= 1
 Initialization pass.
                           ----------------------------
                           !    Initial Parameters    !
                           ! (Angstroms and Degrees)  !
 --------------------------                            --------------------------
 ! Name  Definition              Value          Derivative Info.                !
 --------------------------------------------------------------------------------
 ! R1    R(1,2)                  1.4181         estimate D2E/DX2                !
 ! R2    R(1,3)                  1.0866         estimate D2E/DX2                !
 ! R3    R(1,5)                  1.0922         estimate D2E/DX2                !
 ! R4    R(1,6)                  1.0922         estimate D2E/DX2                !
 ! R5    R(2,4)                  0.956          estimate D2E/DX2                !
 ! A1    A(2,1,3)              106.7351         estimate D2E/DX2                !
 ! A2    A(2,1,5)              111.9641         estimate D2E/DX2                !
 ! A3    A(2,1,6)              111.9641         estimate D2E/DX2                !
 ! A4    A(3,1,5)              108.4911         estimate D2E/DX2                !
 ! A5    A(3,1,6)              108.4911         estimate D2E/DX2                !
 ! A6    A(5,1,6)              109.0604         estimate D2E/DX2                !
 ! A7    A(1,2,4)              108.4146         estimate D2E/DX2                !
 ! D1    D(3,1,2,4)            180.0            estimate D2E/DX2                !
 ! D2    D(5,1,2,4)            -61.4211         estimate D2E/DX2                !
 ! D3    D(6,1,2,4)             61.4211         estimate D2E/DX2                !
 --------------------------------------------------------------------------------
 Maximum allowed force set to 1.00D+20.
 Trust Radius=3.00D-01 FncErr=1.00D-07 GrdErr=1.00D-06 EigMax=2.50D+02 EigMin=1.00D-04
 Number of steps in this run=    100 maximum allowed number of steps=    100.
 GradGradGradGradGradGradGradGradGradGradGradGradGradGradGradGradGradGrad

 Leave Link  103 at Wed Oct  7 14:30:08 2020, MaxMem=  2684354560 cpu:               1.0 elap:               0.5
 (Enter /udrive/faculty/rpeverati/g16/g16/l202.exe)
                          Input orientation:                          
 ---------------------------------------------------------------------
 Center     Atomic      Atomic             Coordinates (Angstroms)
 Number     Number       Type             X           Y           Z
 ---------------------------------------------------------------------
      1          6           0       -0.046423    0.663070    0.000000
      2          8           0       -0.046423   -0.755062    0.000000
      3          1           0       -1.086956    0.975940    0.000000
      4          1           0        0.860590   -1.057042    0.000000
      5          1           0        0.438145    1.071594    0.889542
      6          1           0        0.438145    1.071594   -0.889542
 ---------------------------------------------------------------------
                    Distance matrix (angstroms):
                    1          2          3          4          5
     1  C    0.000000
     2  O    1.418131   0.000000
     3  H    1.086553   2.019673   0.000000
     4  H    1.944597   0.955963   2.815307   0.000000
     5  H    1.092238   2.088723   1.768154   2.345386   0.000000
     6  H    1.092238   2.088723   1.768154   2.345386   1.779083
                    6
     6  H    0.000000
 Stoichiometry    CH4O
 Framework group  CS[SG(CH2O),X(H2)]
 Deg. of freedom     8
 Full point group                 CS      NOp   2
 Largest Abelian subgroup         CS      NOp   2
 Largest concise Abelian subgroup CS      NOp   2
                         Standard orientation:                         
 ---------------------------------------------------------------------
 Center     Atomic      Atomic             Coordinates (Angstroms)
 Number     Number       Type             X           Y           Z
 ---------------------------------------------------------------------
      1          6           0       -0.046423    0.663069    0.000000
      2          8           0       -0.046423   -0.755062    0.000000
      3          1           0       -1.086957    0.975940    0.000000
      4          1           0        0.860590   -1.057043    0.000000
      5          1           0        0.438145    1.071594    0.889542
      6          1           0        0.438145    1.071594   -0.889542
 ---------------------------------------------------------------------
 Rotational constants (GHZ):         128.9894271          24.8848955          24.0236274
 Leave Link  202 at Wed Oct  7 14:30:09 2020, MaxMem=  2684354560 cpu:               1.8 elap:               0.6
 (Enter /udrive/faculty/rpeverati/g16/g16/l301.exe)
 Standard basis: 6-31G(d) (5D, 7F)
 Ernie: Thresh=  0.10000D-02 Tol=  0.10000D-05 Strict=F.
 There are    28 symmetry adapted cartesian basis functions of A'  symmetry.
 There are    10 symmetry adapted cartesian basis functions of A"  symmetry.
 There are    26 symmetry adapted basis functions of A'  symmetry.
 There are    10 symmetry adapted basis functions of A"  symmetry.
    36 basis functions,    72 primitive gaussians,    38 cartesian basis functions
     9 alpha electrons        9 beta electrons
       nuclear repulsion energy        40.3933629809 Hartrees.
 IExCor= 1009 DFT=T Ex+Corr=PBE1PBE ExCW=0 ScaHFX=  0.250000
 ScaDFX=  0.750000  0.750000  1.000000  1.000000 ScalE2=  1.000000  1.000000
 IRadAn=      5 IRanWt=     -1 IRanGd=            0 ICorTp=0 IEmpDi=141
 NAtoms=    6 NActive=    6 NUniq=    5 SFac= 1.44D+00 NAtFMM=   60 NAOKFM=F Big=F
 Integral buffers will be    131072 words long.
 Raffenetti 2 integral format.
 Two-electron integral symmetry is turned on.
 R6Disp:  Grimme-D3(BJ) Dispersion energy=       -0.0015049020 Hartrees.
 Nuclear repulsion after empirical dispersion term =       40.3918580789 Hartrees.
 Leave Link  301 at Wed Oct  7 14:30:10 2020, MaxMem=  2684354560 cpu:               2.3 elap:               0.5
 (Enter /udrive/faculty/rpeverati/g16/g16/l302.exe)
 NPDir=0 NMtPBC=     1 NCelOv=     1 NCel=       1 NClECP=     1 NCelD=      1
         NCelK=      1 NCelE2=     1 NClLst=     1 CellRange=     0.0.
 One-electron integrals computed using PRISM.
 One-electron integral symmetry used in STVInt
 NBasis=    36 RedAO= T EigKep=  1.46D-02  NBF=    26    10
 NBsUse=    36 1.00D-06 EigRej= -1.00D+00 NBFU=    26    10
 Precomputing XC quadrature grid using
 IXCGrd= 4 IRadAn=           5 IRanWt=          -1 IRanGd=           0 AccXCQ= 0.00D+00.
 Generated NRdTot=       0 NPtTot=           0 NUsed=           0 NTot=          32
 NSgBfM=    38    38    38    38    38 MxSgAt=     6 MxSgA2=     6.
 Leave Link  302 at Wed Oct  7 14:30:11 2020, MaxMem=  2684354560 cpu:               4.3 elap:               0.8
 (Enter /udrive/faculty/rpeverati/g16/g16/l303.exe)
 DipDrv:  MaxL=1.
 Leave Link  303 at Wed Oct  7 14:30:12 2020, MaxMem=  2684354560 cpu:               1.8 elap:               0.5
 (Enter /udrive/faculty/rpeverati/g16/g16/l401.exe)
 SCF N**3 symmetry information disabled.
 ExpMin= 1.61D-01 ExpMax= 5.48D+03 ExpMxC= 8.25D+02 IAcc=3 IRadAn=         5 AccDes= 0.00D+00
 Harris functional with IExCor= 1009 and IRadAn=       5 diagonalized for initial guess.
 HarFok:  IExCor= 1009 AccDes= 0.00D+00 IRadAn=         5 IDoV= 1 UseB2=F ITyADJ=14
 ICtDFT=  3500011 ScaDFX=  1.000000  1.000000  1.000000  1.000000
 FoFCou: FMM=F IPFlag=           0 FMFlag=      100000 FMFlg1=           0
         NFxFlg=           0 DoJE=T BraDBF=F KetDBF=T FulRan=T
         wScrn=  0.000000 ICntrl=       500 IOpCl=  0 I1Cent=   200000004 NGrid=           0
         NMat0=    1 NMatS0=      1 NMatT0=    0 NMatD0=    1 NMtDS0=    0 NMtDT0=    0
 Petite list used in FoFCou.
 Harris En= -115.632447809830    
 JPrj=0 DoOrth=F DoCkMO=F.
 Initial guess orbital symmetries:
       Occupied  (A') (A') (A') (A') (A') (A") (A') (A') (A")
       Virtual   (A') (A') (A') (A") (A') (A') (A") (A') (A') (A")
                 (A') (A') (A") (A') (A') (A') (A") (A') (A') (A")
                 (A') (A') (A") (A') (A") (A') (A')
 The electronic state of the initial guess is 1-A'.
 Leave Link  401 at Wed Oct  7 14:30:13 2020, MaxMem=  2684354560 cpu:               5.2 elap:               1.1
 (Enter /udrive/faculty/rpeverati/g16/g16/l502.exe)
 Keep R1 ints in memory in symmetry-blocked form, NReq=10578875.
 FoFCou: FMM=F IPFlag=           0 FMFlag=           0 FMFlg1=           0
         NFxFlg=           0 DoJE=F BraDBF=F KetDBF=F FulRan=T
         wScrn=  0.000000 ICntrl=       600 IOpCl=  0 I1Cent=           0 NGrid=           0
         NMat0=    1 NMatS0=    666 NMatT0=    0 NMatD0=    1 NMtDS0=    0 NMtDT0=    0
 Petite list used in FoFCou.
 Closed shell SCF:
 Using DIIS extrapolation, IDIIS=  1040.
 NGot=  2684354560 LenX=  2684232161 LenY=  2684230276
 Requested convergence on RMS density matrix=1.00D-08 within 120 cycles.
 Requested convergence on MAX density matrix=1.00D-06.
 Requested convergence on             energy=1.00D-06.
 No special actions if energy rises.
 Integral accuracy reduced to 1.0D-05 until final iterations.

 Cycle   1  Pass 0  IDiag  1:
 E= -115.506972824020    
 DIIS: error= 4.52D-02 at cycle   1 NSaved=   1.
 NSaved= 1 IEnMin= 1 EnMin= -115.506972824020     IErMin= 1 ErrMin= 4.52D-02
 ErrMax= 4.52D-02  0.00D+00 EMaxC= 1.00D-01 BMatC= 7.74D-02 BMatP= 7.74D-02
 IDIUse=3 WtCom= 5.48D-01 WtEn= 4.52D-01
 Coeff-Com:  0.100D+01
 Coeff-En:   0.100D+01
 Coeff:      0.100D+01
 Gap=     0.323 Goal=   None    Shift=    0.000
 GapD=    0.323 DampG=1.000 DampE=0.500 DampFc=0.5000 IDamp=-1.
 Damping current iteration by 5.00D-01
 RMSDP=1.40D-02 MaxDP=1.27D-01              OVMax= 1.28D-01

 Cycle   2  Pass 0  IDiag  1:
 E= -115.539353054128     Delta-E=       -0.032380230108 Rises=F Damp=T
 DIIS: error= 7.56D-03 at cycle   2 NSaved=   2.
 NSaved= 2 IEnMin= 2 EnMin= -115.539353054128     IErMin= 2 ErrMin= 7.56D-03
 ErrMax= 7.56D-03  0.00D+00 EMaxC= 1.00D-01 BMatC= 3.10D-03 BMatP= 7.74D-02
 IDIUse=3 WtCom= 9.24D-01 WtEn= 7.56D-02
 Coeff-Com:  0.792D-01 0.921D+00
 Coeff-En:   0.990D-01 0.901D+00
 Coeff:      0.807D-01 0.919D+00
 Gap=     0.375 Goal=   None    Shift=    0.000
 RMSDP=2.01D-03 MaxDP=1.35D-02 DE=-3.24D-02 OVMax= 7.43D-02

 Cycle   3  Pass 0  IDiag  1:
 E= -115.577663929157     Delta-E=       -0.038310875028 Rises=F Damp=F
 DIIS: error= 4.19D-03 at cycle   3 NSaved=   3.
 NSaved= 3 IEnMin= 3 EnMin= -115.577663929157     IErMin= 3 ErrMin= 4.19D-03
 ErrMax= 4.19D-03  0.00D+00 EMaxC= 1.00D-01 BMatC= 1.03D-03 BMatP= 3.10D-03
 IDIUse=3 WtCom= 9.58D-01 WtEn= 4.19D-02
 Coeff-Com:  0.933D-02 0.340D+00 0.650D+00
 Coeff-En:   0.000D+00 0.000D+00 0.100D+01
 Coeff:      0.894D-02 0.326D+00 0.665D+00
 Gap=     0.369 Goal=   None    Shift=    0.000
 RMSDP=8.24D-04 MaxDP=9.09D-03 DE=-3.83D-02 OVMax= 1.08D-02

 Cycle   4  Pass 0  IDiag  1:
 E= -115.578340368454     Delta-E=       -0.000676439298 Rises=F Damp=F
 DIIS: error= 2.24D-03 at cycle   4 NSaved=   4.
 NSaved= 4 IEnMin= 4 EnMin= -115.578340368454     IErMin= 4 ErrMin= 2.24D-03
 ErrMax= 2.24D-03  0.00D+00 EMaxC= 1.00D-01 BMatC= 2.16D-04 BMatP= 1.03D-03
 IDIUse=3 WtCom= 9.78D-01 WtEn= 2.24D-02
 Coeff-Com:  0.663D-03 0.582D-01 0.324D+00 0.617D+00
 Coeff-En:   0.000D+00 0.000D+00 0.146D+00 0.854D+00
 Coeff:      0.648D-03 0.569D-01 0.320D+00 0.622D+00
 Gap=     0.370 Goal=   None    Shift=    0.000
 RMSDP=2.88D-04 MaxDP=3.01D-03 DE=-6.76D-04 OVMax= 3.87D-03

 Cycle   5  Pass 0  IDiag  1:
 E= -115.578519177116     Delta-E=       -0.000178808661 Rises=F Damp=F
 DIIS: error= 2.45D-04 at cycle   5 NSaved=   5.
 NSaved= 5 IEnMin= 5 EnMin= -115.578519177116     IErMin= 5 ErrMin= 2.45D-04
 ErrMax= 2.45D-04  0.00D+00 EMaxC= 1.00D-01 BMatC= 2.90D-06 BMatP= 2.16D-04
 IDIUse=3 WtCom= 9.98D-01 WtEn= 2.45D-03
 Coeff-Com:  0.554D-03-0.456D-02 0.459D-01 0.164D+00 0.794D+00
 Coeff-En:   0.000D+00 0.000D+00 0.000D+00 0.000D+00 0.100D+01
 Coeff:      0.552D-03-0.455D-02 0.458D-01 0.164D+00 0.794D+00
 Gap=     0.370 Goal=   None    Shift=    0.000
 RMSDP=3.05D-05 MaxDP=2.72D-04 DE=-1.79D-04 OVMax= 3.99D-04

 Cycle   6  Pass 0  IDiag  1:
 E= -115.578521579782     Delta-E=       -0.000002402667 Rises=F Damp=F
 DIIS: error= 1.03D-05 at cycle   6 NSaved=   6.
 NSaved= 6 IEnMin= 6 EnMin= -115.578521579782     IErMin= 6 ErrMin= 1.03D-05
 ErrMax= 1.03D-05  0.00D+00 EMaxC= 1.00D-01 BMatC= 3.77D-09 BMatP= 2.90D-06
 IDIUse=1 WtCom= 1.00D+00 WtEn= 0.00D+00
 Coeff-Com:  0.156D-03-0.611D-03 0.447D-03 0.319D-02 0.293D-01 0.968D+00
 Coeff:      0.156D-03-0.611D-03 0.447D-03 0.319D-02 0.293D-01 0.968D+00
 Gap=     0.370 Goal=   None    Shift=    0.000
 RMSDP=2.81D-06 MaxDP=2.34D-05 DE=-2.40D-06 OVMax= 3.06D-05

 Initial convergence to 1.0D-05 achieved.  Increase integral accuracy.
 Cycle   7  Pass 1  IDiag  1:
 E= -115.578521169708     Delta-E=        0.000000410074 Rises=F Damp=F
 DIIS: error= 1.40D-06 at cycle   1 NSaved=   1.
 NSaved= 1 IEnMin= 1 EnMin= -115.578521169708     IErMin= 1 ErrMin= 1.40D-06
 ErrMax= 1.40D-06  0.00D+00 EMaxC= 1.00D-01 BMatC= 1.09D-10 BMatP= 1.09D-10
 IDIUse=1 WtCom= 1.00D+00 WtEn= 0.00D+00
 Coeff-Com:  0.100D+01
 Coeff:      0.100D+01
 Gap=     0.370 Goal=   None    Shift=    0.000
 RMSDP=2.81D-06 MaxDP=2.34D-05 DE= 4.10D-07 OVMax= 7.00D-06

 Cycle   8  Pass 1  IDiag  1:
 E= -115.578521169825     Delta-E=       -0.000000000117 Rises=F Damp=F
 DIIS: error= 9.25D-07 at cycle   2 NSaved=   2.
 NSaved= 2 IEnMin= 2 EnMin= -115.578521169825     IErMin= 2 ErrMin= 9.25D-07
 ErrMax= 9.25D-07  0.00D+00 EMaxC= 1.00D-01 BMatC= 3.69D-11 BMatP= 1.09D-10
 IDIUse=1 WtCom= 1.00D+00 WtEn= 0.00D+00
 Coeff-Com:  0.340D+00 0.660D+00
 Coeff:      0.340D+00 0.660D+00
 Gap=     0.370 Goal=   None    Shift=    0.000
 RMSDP=1.78D-07 MaxDP=1.53D-06 DE=-1.17D-10 OVMax= 2.57D-06

 Cycle   9  Pass 1  IDiag  1:
 E= -115.578521169852     Delta-E=       -0.000000000027 Rises=F Damp=F
 DIIS: error= 4.27D-07 at cycle   3 NSaved=   3.
 NSaved= 3 IEnMin= 3 EnMin= -115.578521169852     IErMin= 3 ErrMin= 4.27D-07
 ErrMax= 4.27D-07  0.00D+00 EMaxC= 1.00D-01 BMatC= 9.22D-12 BMatP= 3.69D-11
 IDIUse=1 WtCom= 1.00D+00 WtEn= 0.00D+00
 Coeff-Com:  0.986D-01 0.345D+00 0.556D+00
 Coeff:      0.986D-01 0.345D+00 0.556D+00
 Gap=     0.370 Goal=   None    Shift=    0.000
 RMSDP=5.92D-08 MaxDP=7.52D-07 DE=-2.66D-11 OVMax= 6.95D-07

 Cycle  10  Pass 1  IDiag  1:
 E= -115.578521169859     Delta-E=       -0.000000000007 Rises=F Damp=F
 DIIS: error= 7.59D-08 at cycle   4 NSaved=   4.
 NSaved= 4 IEnMin= 4 EnMin= -115.578521169859     IErMin= 4 ErrMin= 7.59D-08
 ErrMax= 7.59D-08  0.00D+00 EMaxC= 1.00D-01 BMatC= 2.07D-13 BMatP= 9.22D-12
 IDIUse=1 WtCom= 1.00D+00 WtEn= 0.00D+00
 Coeff-Com: -0.670D-02 0.255D-01 0.144D+00 0.837D+00
 Coeff:     -0.670D-02 0.255D-01 0.144D+00 0.837D+00
 Gap=     0.370 Goal=   None    Shift=    0.000
 RMSDP=1.46D-08 MaxDP=1.57D-07 DE=-7.16D-12 OVMax= 1.65D-07

 Cycle  11  Pass 1  IDiag  1:
 E= -115.578521169859     Delta-E=       -0.000000000000 Rises=F Damp=F
 DIIS: error= 3.29D-08 at cycle   5 NSaved=   5.
 NSaved= 5 IEnMin= 5 EnMin= -115.578521169859     IErMin= 5 ErrMin= 3.29D-08
 ErrMax= 3.29D-08  0.00D+00 EMaxC= 1.00D-01 BMatC= 2.86D-14 BMatP= 2.07D-13
 IDIUse=1 WtCom= 1.00D+00 WtEn= 0.00D+00
 Coeff-Com: -0.721D-02-0.446D-02 0.389D-01 0.383D+00 0.589D+00
 Coeff:     -0.721D-02-0.446D-02 0.389D-01 0.383D+00 0.589D+00
 Gap=     0.370 Goal=   None    Shift=    0.000
 RMSDP=4.13D-09 MaxDP=4.74D-08 DE=-1.99D-13 OVMax= 4.93D-08

 SCF Done:  E(RPBE1PBE) =  -115.578521170     A.U. after   11 cycles
            NFock= 11  Conv=0.41D-08     -V/T= 2.0049
 KE= 1.150166895342D+02 PE=-3.521862126086D+02 EE= 8.119914382564D+01
 Leave Link  502 at Wed Oct  7 14:30:15 2020, MaxMem=  2684354560 cpu:              13.9 elap:               1.6
 (Enter /udrive/faculty/rpeverati/g16/g16/l508.exe)
 QCSCF skips out because SCF is already converged.
 Leave Link  508 at Wed Oct  7 14:30:16 2020, MaxMem=  2684354560 cpu:               0.2 elap:               0.4
 (Enter /udrive/faculty/rpeverati/g16/g16/l601.exe)
 Copying SCF densities to generalized density rwf, IOpCl= 0 IROHF=0.

 **********************************************************************

            Population analysis using the SCF density.

 **********************************************************************

 Orbital symmetries:
       Occupied  (A') (A') (A') (A') (A') (A") (A') (A') (A")
       Virtual   (A') (A') (A') (A") (A') (A') (A') (A") (A') (A")
                 (A') (A') (A") (A') (A') (A') (A") (A') (A') (A")
                 (A') (A') (A") (A') (A") (A') (A')
 The electronic state is 1-A'.
 Alpha  occ. eigenvalues --  -19.20579 -10.25839  -1.03871  -0.70005  -0.51708
 Alpha  occ. eigenvalues --   -0.44843  -0.43281  -0.34037  -0.27520
 Alpha virt. eigenvalues --    0.09524   0.15003   0.18299   0.19117   0.21952
 Alpha virt. eigenvalues --    0.55711   0.58674   0.59556   0.81601   0.88183
 Alpha virt. eigenvalues --    0.90523   0.94118   1.00162   1.02248   1.05246
 Alpha virt. eigenvalues --    1.15404   1.50654   1.53425   1.66354   1.75375
 Alpha virt. eigenvalues --    2.06679   2.13169   2.15931   2.36506   2.41443
 Alpha virt. eigenvalues --    2.48815   2.81824
          Condensed to atoms (all electrons):
               1          2          3          4          5          6
     1  C    4.902669   0.260714   0.387888  -0.035118   0.374384   0.374384
     2  O    0.260714   8.251860  -0.035304   0.251726  -0.039298  -0.039298
     3  H    0.387888  -0.035304   0.523860   0.006312  -0.034978  -0.034978
     4  H   -0.035118   0.251726   0.006312   0.370056  -0.004532  -0.004532
     5  H    0.374384  -0.039298  -0.034978  -0.004532   0.596071  -0.047662
     6  H    0.374384  -0.039298  -0.034978  -0.004532  -0.047662   0.596071
 Mulliken charges:
               1
     1  C   -0.264920
     2  O   -0.650399
     3  H    0.187201
     4  H    0.416088
     5  H    0.156016
     6  H    0.156016
 Sum of Mulliken charges =  -0.00000
 Mulliken charges with hydrogens summed into heavy atoms:
               1
     1  C    0.234311
     2  O   -0.234311
 Electronic spatial extent (au):  <R**2>=             83.4623
 Charge=             -0.0000 electrons
 Dipole moment (field-independent basis, Debye):
    X=              1.4527    Y=              0.9233    Z=              0.0000  Tot=              1.7213
 Quadrupole moment (field-independent basis, Debye-Ang):
   XX=            -11.4784   YY=            -12.8972   ZZ=            -13.5107
   XY=             -2.1583   XZ=              0.0000   YZ=              0.0000
 Traceless Quadrupole moment (field-independent basis, Debye-Ang):
   XX=              1.1504   YY=             -0.2685   ZZ=             -0.8819
   XY=             -2.1583   XZ=              0.0000   YZ=              0.0000
 Octapole moment (field-independent basis, Debye-Ang**2):
  XXX=              1.1218  YYY=             -3.9781  ZZZ=              0.0000  XYY=              2.2577
  XXY=             -2.2030  XXZ=              0.0000  XZZ=              0.6488  YZZ=             -0.4728
  YYZ=              0.0000  XYZ=              0.0000
 Hexadecapole moment (field-independent basis, Debye-Ang**3):
 XXXX=            -18.0355 YYYY=            -60.0288 ZZZZ=            -18.7301 XXXY=             -1.1573
 XXXZ=             -0.0000 YYYX=             -1.3268 YYYZ=              0.0000 ZZZX=             -0.0000
 ZZZY=              0.0000 XXYY=            -11.7139 XXZZ=             -6.4925 YYZZ=            -13.4281
 XXYZ=             -0.0000 YYXZ=              0.0000 ZZXY=              0.7907
 N-N= 4.039185807895D+01 E-N=-3.521862110030D+02  KE= 1.150166895342D+02
 No NMR shielding tensors so no spin-rotation constants.
 Leave Link  601 at Wed Oct  7 14:30:17 2020, MaxMem=  2684354560 cpu:               2.7 elap:               0.7
 (Enter /udrive/faculty/rpeverati/g16/g16/l701.exe)
 ... and contract with generalized density number  0.
 Compute integral first derivatives.
 R6Disp: Adding Grimme-D3(BJ) dispersion energy 1st derivatives to the gradient.
 Leave Link  701 at Wed Oct  7 14:30:18 2020, MaxMem=  2684354560 cpu:               3.2 elap:               0.6
 (Enter /udrive/faculty/rpeverati/g16/g16/l702.exe)
 L702 exits ... SP integral derivatives will be done elsewhere.
 Leave Link  702 at Wed Oct  7 14:30:19 2020, MaxMem=  2684354560 cpu:               1.4 elap:               0.4
 (Enter /udrive/faculty/rpeverati/g16/g16/l703.exe)
 Integral derivatives from FoFJK, PRISM(SPDF).
 Compute integral first derivatives, UseDBF=F ICtDFT=           0.
 Calling FoFJK, ICntrl=      2127 FMM=F ISym2X=1 I1Cent= 0 IOpClX= 0 NMat=1 NMatS=1 NMatT=0.
 FoFJK:  IHMeth= 1 ICntrl=    2127 DoSepK=F KAlg= 0 I1Cent=           0 FoldK=F
 IRaf=         0 NMat=       1 IRICut=       1 DoRegI=T DoRafI=F ISym2E= 1 IDoP0=0 IntGTp=1.
 FoFCou: FMM=F IPFlag=           0 FMFlag=      100000 FMFlg1=         800
         NFxFlg=           0 DoJE=F BraDBF=F KetDBF=F FulRan=T
         wScrn=  0.000000 ICntrl=      2127 IOpCl=  0 I1Cent=           0 NGrid=           0
         NMat0=    1 NMatS0=      1 NMatT0=    0 NMatD0=    1 NMtDS0=    0 NMtDT0=    0
 Petite list used in FoFCou.
 Leave Link  703 at Wed Oct  7 14:30:20 2020, MaxMem=  2684354560 cpu:               5.3 elap:               0.9
 (Enter /udrive/faculty/rpeverati/g16/g16/l716.exe)
 Dipole        = 5.71555058D-01 3.63262077D-01 2.22044605D-16
 ***** Axes restored to original set *****
 -------------------------------------------------------------------
 Center     Atomic                   Forces (Hartrees/Bohr)
 Number     Number              X              Y              Z
 -------------------------------------------------------------------
      1        6           0.002062005   -0.013766787    0.000000000
      2        8          -0.011170754    0.007252873    0.000000000
      3        1          -0.003895568    0.001181475   -0.000000000
      4        1           0.008968397   -0.001208592   -0.000000000
      5        1           0.002017960    0.003270516    0.003759634
      6        1           0.002017960    0.003270516   -0.003759634
 -------------------------------------------------------------------
 Cartesian Forces:  Max     0.013766787 RMS     0.005413137
 Leave Link  716 at Wed Oct  7 14:30:21 2020, MaxMem=  2684354560 cpu:               1.7 elap:               0.4
 (Enter /udrive/faculty/rpeverati/g16/g16/l103.exe)

 GradGradGradGradGradGradGradGradGradGradGradGradGradGradGradGradGradGrad
 Berny optimization.
 Optmz: redundant internal coordinate code flag= 1
 FormGI is forming the generalized inverse of G from B-inverse, IUseBI=4.
 Internal  Forces:  Max     0.008891098 RMS     0.003705240
 Search for a local minimum.
 Step number   1 out of a maximum of  100
 All quantities printed in internal units (Hartrees-Bohrs-Radians)
 RMS Force = .37052D-02 SwitMx=.10000D-02 MixMth= 1
 Mixed Optimization -- RFO/linear search
 Second derivative matrix not updated -- first step.
 The second derivative matrix:
                          R1        R2        R3        R4        R5
           R1           0.42743
           R2           0.00000   0.35214
           R3           0.00000   0.00000   0.34555
           R4           0.00000   0.00000   0.00000   0.34555
           R5           0.00000   0.00000   0.00000   0.00000   0.56351
           A1           0.00000   0.00000   0.00000   0.00000   0.00000
           A2           0.00000   0.00000   0.00000   0.00000   0.00000
           A3           0.00000   0.00000   0.00000   0.00000   0.00000
           A4           0.00000   0.00000   0.00000   0.00000   0.00000
           A5           0.00000   0.00000   0.00000   0.00000   0.00000
           A6           0.00000   0.00000   0.00000   0.00000   0.00000
           A7           0.00000   0.00000   0.00000   0.00000   0.00000
           D1           0.00000   0.00000   0.00000   0.00000   0.00000
           D2           0.00000   0.00000   0.00000   0.00000   0.00000
           D3           0.00000   0.00000   0.00000   0.00000   0.00000
                          A1        A2        A3        A4        A5
           A1           0.16000
           A2           0.00000   0.16000
           A3           0.00000   0.00000   0.16000
           A4           0.00000   0.00000   0.00000   0.16000
           A5           0.00000   0.00000   0.00000   0.00000   0.16000
           A6           0.00000   0.00000   0.00000   0.00000   0.00000
           A7           0.00000   0.00000   0.00000   0.00000   0.00000
           D1           0.00000   0.00000   0.00000   0.00000   0.00000
           D2           0.00000   0.00000   0.00000   0.00000   0.00000
           D3           0.00000   0.00000   0.00000   0.00000   0.00000
                          A6        A7        D1        D2        D3
           A6           0.16000
           A7           0.00000   0.16000
           D1           0.00000   0.00000   0.01452
           D2           0.00000   0.00000   0.00000   0.01452
           D3           0.00000   0.00000   0.00000   0.00000   0.01452
 ITU=  0
 Eigenvectors of the second derivative matrix:
                           1         2         3         4         5
     Eigenvalues --     0.01452   0.09937   0.10555   0.16000   0.16000
   1         R1         0.00000  -0.00000   0.00000  -0.00000   0.00000
   2         R2        -0.00000  -0.00000   0.00000  -0.00000  -0.00000
   3         R3         0.00000  -0.00000  -0.00000  -0.00000   0.00000
   4         R4        -0.00000  -0.00000  -0.00000  -0.00000   0.00000
   5         R5        -0.00000   0.00000  -0.00000   0.00000   0.00000
   6         A1        -0.00000   0.30133  -0.00000   0.27209  -0.26142
   7         A2         0.00000  -0.15797  -0.23469  -0.00905   0.22587
   8         A3        -0.00000  -0.15797   0.23469   0.63952   0.40066
   9         A4         0.00000   0.29405  -0.50771  -0.13523   0.02953
  10         A5        -0.00000   0.29405   0.50771  -0.43504  -0.05126
  11         A6        -0.00000  -0.51921  -0.00000  -0.35687  -0.35464
  12         A7        -0.00000   0.00000  -0.00000  -0.42661   0.76867
  13         D1        -0.57735   0.00000   0.49953  -0.00000  -0.00000
  14         D2        -0.57735   0.45650  -0.24976   0.00000   0.00000
  15         D3        -0.57735  -0.45650  -0.24976   0.00000  -0.00000
                           6         7         8         9        10
     Eigenvalues --     0.16000   0.16000   0.34555   0.34555   0.35214
   1         R1        -0.00000   0.00000  -0.00000  -0.00000  -0.00000
   2         R2         0.00000  -0.00000  -0.00000  -0.00000   1.00000
   3         R3         0.00000  -0.00000  -0.99646  -0.08404  -0.00000
   4         R4        -0.00000   0.00000   0.08404  -0.99646  -0.00000
   5         R5         0.00000  -0.00000  -0.00000  -0.00000  -0.00000
   6         A1        -0.66679   0.30954  -0.00000   0.00000   0.00000
   7         A2         0.36866   0.71114  -0.00000   0.00000   0.00000
   8         A3         0.07554  -0.34279   0.00000  -0.00000  -0.00000
   9         A4         0.17124  -0.48733   0.00000   0.00000   0.00000
  10         A5         0.30673  -0.00014  -0.00000  -0.00000  -0.00000
  11         A6        -0.25143  -0.20850   0.00000   0.00000  -0.00000
  12         A7        -0.47660  -0.00250   0.00000   0.00000   0.00000
  13         D1         0.00000  -0.00000  -0.00000  -0.00000  -0.00000
  14         D2         0.00000   0.00000  -0.00000   0.00000   0.00000
  15         D3         0.00000   0.00000   0.00000   0.00000   0.00000
                          11        12
     Eigenvalues --     0.42743   0.56351
   1         R1         1.00000   0.00000
   2         R2         0.00000   0.00000
   3         R3        -0.00000  -0.00000
   4         R4        -0.00000  -0.00000
   5         R5        -0.00000   1.00000
   6         A1        -0.00000   0.00000
   7         A2        -0.00000   0.00000
   8         A3         0.00000  -0.00000
   9         A4         0.00000  -0.00000
  10         A5         0.00000  -0.00000
  11         A6         0.00000   0.00000
  12         A7        -0.00000   0.00000
  13         D1         0.00000   0.00000
  14         D2         0.00000  -0.00000
  15         D3        -0.00000   0.00000
 Iter=   1 RLamda= 0.00000000D+00 Sum=-5.57421236D-04.
 Iter=   2 RLamda=-5.57421236D-04 Sum=-5.56377663D-04.
 Iter=   3 RLamda=-5.56377663D-04 Sum=-5.56379612D-04.
 RFO step:  Lambda=-5.56377663D-04 EMin= 1.45193641D-02
 Linear search not attempted -- first point.
 Iteration  1 RMS(Cart)=  0.00843703 RMS(Int)=  0.00006379
 Iteration  2 RMS(Cart)=  0.00006240 RMS(Int)=  0.00003772
 Iteration  3 RMS(Cart)=  0.00000000 RMS(Int)=  0.00003772
 ITry= 1 IFail=0 DXMaxC= 1.76D-02 DCOld= 1.00D+10 DXMaxT= 3.00D-01 DXLimC= 3.00D+00 Rises=F
 ClnCor:  largest displacement from symmetrization is 6.60D-13 for atom     6.
 Variable       Old X    -DE/DX   Delta X   Delta X   Delta X     New X
                                 (Linear)    (Quad)   (Total)
    R1        2.67988  -0.00604   0.00000  -0.01412  -0.01412   2.66576
    R2        2.05329   0.00407   0.00000   0.01154   0.01154   2.06483
    R3        2.06403   0.00518   0.00000   0.01497   0.01497   2.07900
    R4        2.06403   0.00518   0.00000   0.01497   0.01497   2.07900
    R5        1.80651   0.00889   0.00000   0.01576   0.01576   1.82227
    A1        1.86288  -0.00080   0.00000  -0.00609  -0.00608   1.85680
    A2        1.95414   0.00182   0.00000   0.01191   0.01186   1.96601
    A3        1.95414   0.00182   0.00000   0.01191   0.01186   1.96601
    A4        1.89353  -0.00080   0.00000  -0.00606  -0.00605   1.88747
    A5        1.89353  -0.00080   0.00000  -0.00606  -0.00605   1.88747
    A6        1.90346  -0.00138   0.00000  -0.00665  -0.00674   1.89672
    A7        1.89219  -0.00305   0.00000  -0.01898  -0.01898   1.87322
    D1        3.14159   0.00000   0.00000   0.00000   0.00000   3.14159
    D2       -1.07200  -0.00045   0.00000  -0.00447  -0.00454  -1.07654
    D3        1.07200   0.00045   0.00000   0.00447   0.00454   1.07654
         Item               Value     Threshold  Converged?
 Maximum Force            0.008891     0.000450     NO 
 RMS     Force            0.003705     0.000300     NO 
 Maximum Displacement     0.017578     0.001800     NO 
 RMS     Displacement     0.008441     0.001200     NO 
 Predicted change in Energy=-2.787997D-04
 Lowest energy point so far.  Saving SCF results.
 Largest change from initial coordinates is atom    2       0.006 Angstoms.
 GradGradGradGradGradGradGradGradGradGradGradGradGradGradGradGradGradGrad

 Leave Link  103 at Wed Oct  7 14:30:22 2020, MaxMem=  2684354560 cpu:               4.6 elap:               0.9
 (Enter /udrive/faculty/rpeverati/g16/g16/l202.exe)
                          Input orientation:                          
 ---------------------------------------------------------------------
 Center     Atomic      Atomic             Coordinates (Angstroms)
 Number     Number       Type             X           Y           Z
 ---------------------------------------------------------------------
      1          6           0       -0.043621    0.655054    0.000000
      2          8           0       -0.055725   -0.755552    0.000000
      3          1           0       -1.089213    0.972298    0.000000
      4          1           0        0.862320   -1.050640    0.000000
      5          1           0        0.441659    1.074468    0.893836
      6          1           0        0.441659    1.074468   -0.893836
 ---------------------------------------------------------------------
                    Distance matrix (angstroms):
                    1          2          3          4          5
     1  C    0.000000
     2  O    1.410658   0.000000
     3  H    1.092661   2.013347   0.000000
     4  H    1.931352   0.964304   2.810830   0.000000
     5  H    1.100158   2.096499   1.775655   2.343498   0.000000
     6  H    1.100158   2.096499   1.775655   2.343498   1.787673
                    6
     6  H    0.000000
 Stoichiometry    CH4O
 Framework group  CS[SG(CH2O),X(H2)]
 Deg. of freedom     8
 Full point group                 CS      NOp   2
 RotChk:  IX=0 Diff= 1.21D-02
 Largest Abelian subgroup         CS      NOp   2
 Largest concise Abelian subgroup CS      NOp   2
                         Standard orientation:                         
 ---------------------------------------------------------------------
 Center     Atomic      Atomic             Coordinates (Angstroms)
 Number     Number       Type             X           Y           Z
 ---------------------------------------------------------------------
      1          6           0       -0.046422    0.657096    0.000000
      2          8           0       -0.046422   -0.753562    0.000000
      3          1           0       -1.094698    0.965358    0.000000
      4          1           0        0.874121   -1.040762    0.000000
      5          1           0        0.435241    1.080659    0.893836
      6          1           0        0.435241    1.080659   -0.893836
 ---------------------------------------------------------------------
 Rotational constants (GHZ):         127.3237600          25.0507808          24.1546424
 Leave Link  202 at Wed Oct  7 14:30:23 2020, MaxMem=  2684354560 cpu:               1.2 elap:               0.3
 (Enter /udrive/faculty/rpeverati/g16/g16/l301.exe)
 Standard basis: 6-31G(d) (5D, 7F)
 Ernie: Thresh=  0.10000D-02 Tol=  0.10000D-05 Strict=F.
 There are    28 symmetry adapted cartesian basis functions of A'  symmetry.
 There are    10 symmetry adapted cartesian basis functions of A"  symmetry.
 There are    26 symmetry adapted basis functions of A'  symmetry.
 There are    10 symmetry adapted basis functions of A"  symmetry.
    36 basis functions,    72 primitive gaussians,    38 cartesian basis functions
     9 alpha electrons        9 beta electrons
       nuclear repulsion energy        40.3912108425 Hartrees.
 IExCor= 1009 DFT=T Ex+Corr=PBE1PBE ExCW=0 ScaHFX=  0.250000
 ScaDFX=  0.750000  0.750000  1.000000  1.000000 ScalE2=  1.000000  1.000000
 IRadAn=      5 IRanWt=     -1 IRanGd=            0 ICorTp=0 IEmpDi=141
 NAtoms=    6 NActive=    6 NUniq=    5 SFac= 1.44D+00 NAtFMM=   60 NAOKFM=F Big=F
 Integral buffers will be    131072 words long.
 Raffenetti 2 integral format.
 Two-electron integral symmetry is turned on.
 R6Disp:  Grimme-D3(BJ) Dispersion energy=       -0.0015051174 Hartrees.
 Nuclear repulsion after empirical dispersion term =       40.3897057251 Hartrees.
 Leave Link  301 at Wed Oct  7 14:30:23 2020, MaxMem=  2684354560 cpu:               1.8 elap:               0.5
 (Enter /udrive/faculty/rpeverati/g16/g16/l302.exe)
 NPDir=0 NMtPBC=     1 NCelOv=     1 NCel=       1 NClECP=     1 NCelD=      1
         NCelK=      1 NCelE2=     1 NClLst=     1 CellRange=     0.0.
 One-electron integrals computed using PRISM.
 One-electron integral symmetry used in STVInt
 NBasis=    36 RedAO= T EigKep=  1.47D-02  NBF=    26    10
 NBsUse=    36 1.00D-06 EigRej= -1.00D+00 NBFU=    26    10
 Precomputing XC quadrature grid using
 IXCGrd= 4 IRadAn=           5 IRanWt=          -1 IRanGd=           0 AccXCQ= 0.00D+00.
 Generated NRdTot=       0 NPtTot=           0 NUsed=           0 NTot=          32
 NSgBfM=    38    38    38    38    38 MxSgAt=     6 MxSgA2=     6.
 Leave Link  302 at Wed Oct  7 14:30:24 2020, MaxMem=  2684354560 cpu:               3.2 elap:               0.6
 (Enter /udrive/faculty/rpeverati/g16/g16/l303.exe)
 DipDrv:  MaxL=1.
 Leave Link  303 at Wed Oct  7 14:30:25 2020, MaxMem=  2684354560 cpu:               2.1 elap:               0.7
 (Enter /udrive/faculty/rpeverati/g16/g16/l401.exe)
 Initial guess from the checkpoint file:  "MN_23_ch3oh_lower_BH76_PBE0DBJ_631Gs.chk"
 SCF N**3 symmetry information disabled.
 B after Tr=    -0.000000    0.000000    0.000000
         Rot=    0.999997   -0.000000    0.000000   -0.002257 Ang=  -0.26 deg.
 Guess basis will be translated and rotated to current coordinates.
 JPrj=2 DoOrth=T DoCkMO=T.
 Initial guess orbital symmetries:
       Occupied  (A') (A') (A') (A') (A') (A") (A') (A') (A")
       Virtual   (A') (A') (A') (A") (A') (A') (A') (A") (A') (A")
                 (A') (A') (A") (A') (A') (A') (A") (A') (A') (A")
                 (A') (A') (A") (A') (A") (A') (A')
 The electronic state of the initial guess is 1-A'.
 Leave Link  401 at Wed Oct  7 14:30:26 2020, MaxMem=  2684354560 cpu:               4.0 elap:               0.8
 (Enter /udrive/faculty/rpeverati/g16/g16/l502.exe)
 Keep R1 ints in memory in symmetry-blocked form, NReq=10578875.
 FoFCou: FMM=F IPFlag=           0 FMFlag=           0 FMFlg1=           0
         NFxFlg=           0 DoJE=F BraDBF=F KetDBF=F FulRan=T
         wScrn=  0.000000 ICntrl=       600 IOpCl=  0 I1Cent=           0 NGrid=           0
         NMat0=    1 NMatS0=    666 NMatT0=    0 NMatD0=    1 NMtDS0=    0 NMtDT0=    0
 Petite list used in FoFCou.
 Closed shell SCF:
 Using DIIS extrapolation, IDIIS=  1040.
 NGot=  2684354560 LenX=  2684232161 LenY=  2684230276
 Requested convergence on RMS density matrix=1.00D-08 within 120 cycles.
 Requested convergence on MAX density matrix=1.00D-06.
 Requested convergence on             energy=1.00D-06.
 No special actions if energy rises.

 Cycle   1  Pass 1  IDiag  1:
 E= -115.578706305258    
 DIIS: error= 9.83D-04 at cycle   1 NSaved=   1.
 NSaved= 1 IEnMin= 1 EnMin= -115.578706305258     IErMin= 1 ErrMin= 9.83D-04
 ErrMax= 9.83D-04  0.00D+00 EMaxC= 1.00D-01 BMatC= 7.27D-05 BMatP= 7.27D-05
 IDIUse=3 WtCom= 9.90D-01 WtEn= 9.83D-03
 Coeff-Com:  0.100D+01
 Coeff-En:   0.100D+01
 Coeff:      0.100D+01
 Gap=     0.369 Goal=   None    Shift=    0.000
 RMSDP=3.73D-04 MaxDP=2.79D-03              OVMax= 4.23D-03

 Cycle   2  Pass 1  IDiag  1:
 E= -115.578802670005     Delta-E=       -0.000096364747 Rises=F Damp=F
 DIIS: error= 6.87D-04 at cycle   2 NSaved=   2.
 NSaved= 2 IEnMin= 2 EnMin= -115.578802670005     IErMin= 2 ErrMin= 6.87D-04
 ErrMax= 6.87D-04  0.00D+00 EMaxC= 1.00D-01 BMatC= 1.06D-05 BMatP= 7.27D-05
 IDIUse=3 WtCom= 9.93D-01 WtEn= 6.87D-03
 Coeff-Com:  0.169D+00 0.831D+00
 Coeff-En:   0.000D+00 0.100D+01
 Coeff:      0.168D+00 0.832D+00
 Gap=     0.369 Goal=   None    Shift=    0.000
 RMSDP=1.25D-04 MaxDP=1.34D-03 DE=-9.64D-05 OVMax= 1.36D-03

 Cycle   3  Pass 1  IDiag  1:
 E= -115.578808833153     Delta-E=       -0.000006163148 Rises=F Damp=F
 DIIS: error= 4.40D-04 at cycle   3 NSaved=   3.
 NSaved= 3 IEnMin= 3 EnMin= -115.578808833153     IErMin= 3 ErrMin= 4.40D-04
 ErrMax= 4.40D-04  0.00D+00 EMaxC= 1.00D-01 BMatC= 4.43D-06 BMatP= 1.06D-05
 IDIUse=3 WtCom= 9.96D-01 WtEn= 4.40D-03
 Coeff-Com: -0.620D-02 0.389D+00 0.617D+00
 Coeff-En:   0.000D+00 0.266D+00 0.734D+00
 Coeff:     -0.618D-02 0.388D+00 0.618D+00
 Gap=     0.369 Goal=   None    Shift=    0.000
 RMSDP=5.11D-05 MaxDP=5.68D-04 DE=-6.16D-06 OVMax= 5.48D-04

 Cycle   4  Pass 1  IDiag  1:
 E= -115.578813110624     Delta-E=       -0.000004277471 Rises=F Damp=F
 DIIS: error= 3.78D-05 at cycle   4 NSaved=   4.
 NSaved= 4 IEnMin= 4 EnMin= -115.578813110624     IErMin= 4 ErrMin= 3.78D-05
 ErrMax= 3.78D-05  0.00D+00 EMaxC= 1.00D-01 BMatC= 7.06D-08 BMatP= 4.43D-06
 IDIUse=1 WtCom= 1.00D+00 WtEn= 0.00D+00
 Coeff-Com: -0.993D-02 0.954D-01 0.198D+00 0.716D+00
 Coeff:     -0.993D-02 0.954D-01 0.198D+00 0.716D+00
 Gap=     0.369 Goal=   None    Shift=    0.000
 RMSDP=5.68D-06 MaxDP=5.60D-05 DE=-4.28D-06 OVMax= 7.16D-05

 Cycle   5  Pass 1  IDiag  1:
 E= -115.578813158799     Delta-E=       -0.000000048175 Rises=F Damp=F
 DIIS: error= 1.25D-05 at cycle   5 NSaved=   5.
 NSaved= 5 IEnMin= 5 EnMin= -115.578813158799     IErMin= 5 ErrMin= 1.25D-05
 ErrMax= 1.25D-05  0.00D+00 EMaxC= 1.00D-01 BMatC= 7.34D-09 BMatP= 7.06D-08
 IDIUse=1 WtCom= 1.00D+00 WtEn= 0.00D+00
 Coeff-Com: -0.447D-02 0.364D-01 0.789D-01 0.344D+00 0.545D+00
 Coeff:     -0.447D-02 0.364D-01 0.789D-01 0.344D+00 0.545D+00
 Gap=     0.369 Goal=   None    Shift=    0.000
 RMSDP=1.99D-06 MaxDP=2.14D-05 DE=-4.82D-08 OVMax= 2.24D-05

 Cycle   6  Pass 1  IDiag  1:
 E= -115.578813164084     Delta-E=       -0.000000005285 Rises=F Damp=F
 DIIS: error= 3.12D-06 at cycle   6 NSaved=   6.
 NSaved= 6 IEnMin= 6 EnMin= -115.578813164084     IErMin= 6 ErrMin= 3.12D-06
 ErrMax= 3.12D-06  0.00D+00 EMaxC= 1.00D-01 BMatC= 4.93D-10 BMatP= 7.34D-09
 IDIUse=1 WtCom= 1.00D+00 WtEn= 0.00D+00
 Coeff-Com: -0.106D-04-0.233D-02-0.434D-02 0.947D-03 0.206D+00 0.800D+00
 Coeff:     -0.106D-04-0.233D-02-0.434D-02 0.947D-03 0.206D+00 0.800D+00
 Gap=     0.369 Goal=   None    Shift=    0.000
 RMSDP=4.51D-07 MaxDP=5.47D-06 DE=-5.29D-09 OVMax= 5.13D-06

 Cycle   7  Pass 1  IDiag  1:
 E= -115.578813164474     Delta-E=       -0.000000000390 Rises=F Damp=F
 DIIS: error= 3.13D-07 at cycle   7 NSaved=   7.
 NSaved= 7 IEnMin= 7 EnMin= -115.578813164474     IErMin= 7 ErrMin= 3.13D-07
 ErrMax= 3.13D-07  0.00D+00 EMaxC= 1.00D-01 BMatC= 2.98D-12 BMatP= 4.93D-10
 IDIUse=1 WtCom= 1.00D+00 WtEn= 0.00D+00
 Coeff-Com:  0.602D-04-0.954D-03-0.190D-02-0.669D-02 0.356D-01 0.158D+00
 Coeff-Com:  0.816D+00
 Coeff:      0.602D-04-0.954D-03-0.190D-02-0.669D-02 0.356D-01 0.158D+00
 Coeff:      0.816D+00
 Gap=     0.369 Goal=   None    Shift=    0.000
 RMSDP=5.00D-08 MaxDP=2.79D-07 DE=-3.90D-10 OVMax= 5.94D-07

 Cycle   8  Pass 1  IDiag  1:
 E= -115.578813164477     Delta-E=       -0.000000000003 Rises=F Damp=F
 DIIS: error= 3.51D-08 at cycle   8 NSaved=   8.
 NSaved= 8 IEnMin= 8 EnMin= -115.578813164477     IErMin= 8 ErrMin= 3.51D-08
 ErrMax= 3.51D-08  0.00D+00 EMaxC= 1.00D-01 BMatC= 6.95D-14 BMatP= 2.98D-12
 IDIUse=1 WtCom= 1.00D+00 WtEn= 0.00D+00
 Coeff-Com:  0.669D-05-0.999D-05-0.229D-04-0.113D-02-0.290D-02-0.109D-01
 Coeff-Com:  0.784D-01 0.937D+00
 Coeff:      0.669D-05-0.999D-05-0.229D-04-0.113D-02-0.290D-02-0.109D-01
 Coeff:      0.784D-01 0.937D+00
 Gap=     0.369 Goal=   None    Shift=    0.000
 RMSDP=9.13D-09 MaxDP=6.42D-08 DE=-3.21D-12 OVMax= 1.22D-07

 SCF Done:  E(RPBE1PBE) =  -115.578813164     A.U. after    8 cycles
            NFock=  8  Conv=0.91D-08     -V/T= 2.0051
 KE= 1.149868300409D+02 PE=-3.521473923050D+02 EE= 8.119204337454D+01
 Leave Link  502 at Wed Oct  7 14:30:28 2020, MaxMem=  2684354560 cpu:              13.7 elap:               1.7
 (Enter /udrive/faculty/rpeverati/g16/g16/l508.exe)
 QCSCF skips out because SCF is already converged.
 Leave Link  508 at Wed Oct  7 14:30:29 2020, MaxMem=  2684354560 cpu:               0.7 elap:               0.3
 (Enter /udrive/faculty/rpeverati/g16/g16/l701.exe)
 ... and contract with generalized density number  0.
 Compute integral first derivatives.
 R6Disp: Adding Grimme-D3(BJ) dispersion energy 1st derivatives to the gradient.
 Leave Link  701 at Wed Oct  7 14:30:30 2020, MaxMem=  2684354560 cpu:               4.0 elap:               0.7
 (Enter /udrive/faculty/rpeverati/g16/g16/l702.exe)
 L702 exits ... SP integral derivatives will be done elsewhere.
 Leave Link  702 at Wed Oct  7 14:30:31 2020, MaxMem=  2684354560 cpu:               1.6 elap:               0.5
 (Enter /udrive/faculty/rpeverati/g16/g16/l703.exe)
 Integral derivatives from FoFJK, PRISM(SPDF).
 Compute integral first derivatives, UseDBF=F ICtDFT=           0.
 Calling FoFJK, ICntrl=      2127 FMM=F ISym2X=1 I1Cent= 0 IOpClX= 0 NMat=1 NMatS=1 NMatT=0.
 FoFJK:  IHMeth= 1 ICntrl=    2127 DoSepK=F KAlg= 0 I1Cent=           0 FoldK=F
 IRaf=         0 NMat=       1 IRICut=       1 DoRegI=T DoRafI=F ISym2E= 1 IDoP0=0 IntGTp=1.
 FoFCou: FMM=F IPFlag=           0 FMFlag=      100000 FMFlg1=         800
         NFxFlg=           0 DoJE=F BraDBF=F KetDBF=F FulRan=T
         wScrn=  0.000000 ICntrl=      2127 IOpCl=  0 I1Cent=           0 NGrid=           0
         NMat0=    1 NMatS0=      1 NMatT0=    0 NMatD0=    1 NMtDS0=    0 NMtDT0=    0
 Petite list used in FoFCou.
 Leave Link  703 at Wed Oct  7 14:30:32 2020, MaxMem=  2684354560 cpu:               4.9 elap:               0.7
 (Enter /udrive/faculty/rpeverati/g16/g16/l716.exe)
 Dipole        = 5.73181240D-01 3.55197716D-01 0.00000000D+00
 ***** Axes restored to original set *****
 -------------------------------------------------------------------
 Center     Atomic                   Forces (Hartrees/Bohr)
 Number     Number              X              Y              Z
 -------------------------------------------------------------------
      1        6          -0.001301796   -0.003368647    0.000000000
      2        8           0.000385694    0.002228453    0.000000000
      3        1          -0.000033724    0.001002947   -0.000000000
      4        1           0.000577632   -0.000891350    0.000000000
      5        1           0.000186097    0.000514299    0.000111020
      6        1           0.000186097    0.000514299   -0.000111020
 -------------------------------------------------------------------
 Cartesian Forces:  Max     0.003368647 RMS     0.001077944
 Leave Link  716 at Wed Oct  7 14:30:33 2020, MaxMem=  2684354560 cpu:               2.0 elap:               0.5
 (Enter /udrive/faculty/rpeverati/g16/g16/l103.exe)

 GradGradGradGradGradGradGradGradGradGradGradGradGradGradGradGradGradGrad
 Berny optimization.
 Optmz: redundant internal coordinate code flag= 1
 Using GEDIIS/GDIIS optimizer.
 Red2BG:  D1=  2.71D-01 OD1=  3.60D-02 B2RMS=  0.00D+00 IAprox=0
 FormGI is forming the generalized inverse of G from B-inverse, IUseBI=4.
 Internal  Forces:  Max     0.001345326 RMS     0.000704861
 Search for a local minimum.
 Step number   2 out of a maximum of  100
 All quantities printed in internal units (Hartrees-Bohrs-Radians)
 RMS Force = .70486D-03 SwitMx=.10000D-02 MixMth= 2
 Mixed Optimization -- En-DIIS/RFO-DIIS
 Update second derivatives using D2CorX and points    1    2
 DE= -2.92D-04 DEPred=-2.79D-04 R= 1.05D+00
 TightC=F SS=  1.41D+00  RLast= 4.32D-02 DXNew= 5.0454D-01 1.2964D-01
 Trust test= 1.05D+00 RLast= 4.32D-02 DXMaxT set to 3.00D-01
 The second derivative matrix:
                          R1        R2        R3        R4        R5
           R1           0.40371
           R2           0.01077   0.34904
           R3           0.01331  -0.00363   0.34133
           R4           0.01331  -0.00363  -0.00423   0.34133
           R5           0.02461  -0.00763  -0.00905  -0.00905   0.54497
           A1           0.00851  -0.00810  -0.01048  -0.01048  -0.01721
           A2           0.00633  -0.00249  -0.00303  -0.00303  -0.00581
           A3           0.00633  -0.00249  -0.00303  -0.00303  -0.00581
           A4          -0.00874   0.00566   0.00719   0.00719   0.01242
           A5          -0.00874   0.00566   0.00719   0.00719   0.01242
           A6          -0.00488   0.00243   0.00303   0.00303   0.00549
           A7           0.00508  -0.00815  -0.01073  -0.01073  -0.01684
           D1          -0.00000   0.00000   0.00000   0.00000   0.00000
           D2           0.00540  -0.00439  -0.00565  -0.00565  -0.00944
           D3          -0.00540   0.00439   0.00565   0.00565   0.00944
                          A1        A2        A3        A4        A5
           A1           0.16699
           A2          -0.00319   0.15839
           A3          -0.00319  -0.00161   0.15839
           A4          -0.00088   0.00270   0.00270   0.15839
           A5          -0.00088   0.00270   0.00270  -0.00161   0.15839
           A6           0.00123   0.00135   0.00135  -0.00159  -0.00159
           A7           0.01203  -0.00262  -0.00262  -0.00367  -0.00367
           D1          -0.00000   0.00000   0.00000  -0.00000  -0.00000
           D2           0.00267  -0.00186  -0.00186   0.00015   0.00015
           D3          -0.00267   0.00186   0.00186  -0.00015  -0.00015
                          A6        A7        D1        D2        D3
           A6           0.15902
           A7           0.00033   0.17802
           D1          -0.00000  -0.00000   0.01452
           D2           0.00087   0.00520  -0.00000   0.01540
           D3          -0.00087  -0.00520   0.00000  -0.00088   0.01540
 ITU=  1  0
 Use linear search instead of GDIIS.
 Eigenvectors of the second derivative matrix:
                           1         2         3         4         5
     Eigenvalues --     0.01452   0.09962   0.10547   0.14529   0.16000
   1         R1        -0.00000  -0.01098  -0.00000   0.08239   0.00000
   2         R2         0.00000   0.01265   0.00000  -0.05932  -0.00000
   3         R3         0.00000   0.01676   0.00000  -0.07671  -0.00000
   4         R4         0.00000   0.01676   0.00000  -0.07671  -0.00000
   5         R5         0.00000   0.01470   0.00000  -0.06579   0.00000
   6         A1        -0.00000   0.27042   0.00000  -0.37921  -0.59246
   7         A2         0.00000  -0.14164   0.23297  -0.40103   0.28765
   8         A3         0.00000  -0.14164  -0.23297  -0.40103   0.28795
   9         A4        -0.00000   0.30163   0.50825   0.38525   0.17544
  10         A5        -0.00000   0.30163  -0.50825   0.38525   0.17530
  11         A6        -0.00000  -0.52554  -0.00000   0.45757  -0.33461
  12         A7        -0.00000  -0.07169  -0.00000   0.04339   0.55665
  13         D1        -0.57735   0.00000  -0.49988  -0.00000   0.00000
  14         D2        -0.57735   0.45957   0.24994   0.00578   0.00000
  15         D3        -0.57735  -0.45957   0.24994  -0.00578  -0.00000
                           6         7         8         9        10
     Eigenvalues --     0.16000   0.18197   0.33557   0.34555   0.35086
   1         R1        -0.00000   0.05267   0.26205   0.00000  -0.05243
   2         R2         0.00000  -0.07165  -0.33126  -0.00000   0.92556
   3         R3         0.00000  -0.09643  -0.61979   0.70711  -0.26419
   4         R4         0.00000  -0.09643  -0.61979  -0.70711  -0.26419
   5         R5         0.00000  -0.06794  -0.06238  -0.00000   0.01370
   6         A1         0.00014  -0.42364   0.13730   0.00000  -0.01749
   7         A2        -0.64286   0.19206   0.02271   0.00000  -0.00387
   8         A3         0.64273   0.19206   0.02271   0.00000  -0.00387
   9         A4         0.29461   0.10172  -0.06569  -0.00000   0.00888
  10         A5        -0.29469   0.10172  -0.06569  -0.00000   0.00888
  11         A6         0.00008  -0.16841  -0.05557  -0.00000   0.00809
  12         A7        -0.00013  -0.81481   0.13064   0.00000  -0.01535
  13         D1         0.00000   0.00000  -0.00000  -0.00000   0.00000
  14         D2        -0.00000  -0.03655   0.01942   0.00000  -0.00239
  15         D3         0.00000   0.03655  -0.01942  -0.00000   0.00239
                          11        12
     Eigenvalues --     0.40810   0.55175
   1         R1        -0.94693   0.14910
   2         R2        -0.15580  -0.02278
   3         R3        -0.17309  -0.02520
   4         R4        -0.17309  -0.02520
   5         R5         0.12742   0.98515
   6         A1        -0.02797  -0.04602
   7         A2        -0.01728  -0.00770
   8         A3        -0.01728  -0.00770
   9         A4         0.02037   0.02133
  10         A5         0.02037   0.02133
  11         A6         0.02387   0.02007
  12         A7        -0.01039  -0.04240
  13         D1         0.00000   0.00000
  14         D2        -0.00252  -0.00740
  15         D3         0.00252   0.00740
 Iter=   1 RLamda= 0.00000000D+00 Sum=-3.87135010D-05.
 Iter=   2 RLamda=-3.87135010D-05 Sum=-3.87043538D-05.
 RFO step:  Lambda=-3.87135010D-05 EMin= 1.45193641D-02
 Quartic linear search produced a step of  0.05688.
 Iteration  1 RMS(Cart)=  0.00387742 RMS(Int)=  0.00001507
 Iteration  2 RMS(Cart)=  0.00001263 RMS(Int)=  0.00000817
 Iteration  3 RMS(Cart)=  0.00000000 RMS(Int)=  0.00000817
 ITry= 1 IFail=0 DXMaxC= 8.46D-03 DCOld= 1.00D+10 DXMaxT= 3.00D-01 DXLimC= 3.00D+00 Rises=F
 ClnCor:  largest displacement from symmetrization is 2.49D-13 for atom     6.
 Variable       Old X    -DE/DX   Delta X   Delta X   Delta X     New X
                                 (Linear)    (Quad)   (Total)
    R1        2.66576  -0.00135  -0.00080  -0.00351  -0.00432   2.66144
    R2        2.06483   0.00032   0.00066   0.00113   0.00178   2.06661
    R3        2.07900   0.00037   0.00085   0.00133   0.00218   2.08118
    R4        2.07900   0.00037   0.00085   0.00133   0.00218   2.08118
    R5        1.82227   0.00082   0.00090   0.00175   0.00265   1.82492
    A1        1.85680   0.00134  -0.00035   0.00943   0.00907   1.86587
    A2        1.96601   0.00021   0.00067   0.00124   0.00190   1.96790
    A3        1.96601   0.00021   0.00067   0.00124   0.00190   1.96790
    A4        1.88747  -0.00060  -0.00034  -0.00340  -0.00376   1.88372
    A5        1.88747  -0.00060  -0.00034  -0.00340  -0.00376   1.88372
    A6        1.89672  -0.00061  -0.00038  -0.00521  -0.00560   1.89112
    A7        1.87322   0.00122  -0.00108   0.00782   0.00674   1.87996
    D1        3.14159  -0.00000   0.00000  -0.00000   0.00000   3.14159
    D2       -1.07654   0.00024  -0.00026   0.00251   0.00226  -1.07428
    D3        1.07654  -0.00024   0.00026  -0.00251  -0.00226   1.07428
         Item               Value     Threshold  Converged?
 Maximum Force            0.001345     0.000450     NO 
 RMS     Force            0.000705     0.000300     NO 
 Maximum Displacement     0.008464     0.001800     NO 
 RMS     Displacement     0.003873     0.001200     NO 
 Predicted change in Energy=-2.019193D-05
 Lowest energy point so far.  Saving SCF results.
 Largest change from initial coordinates is atom    4       0.011 Angstoms.
 GradGradGradGradGradGradGradGradGradGradGradGradGradGradGradGradGradGrad

 Leave Link  103 at Wed Oct  7 14:30:34 2020, MaxMem=  2684354560 cpu:               3.5 elap:               0.8
 (Enter /udrive/faculty/rpeverati/g16/g16/l202.exe)
                          Input orientation:                          
 ---------------------------------------------------------------------
 Center     Atomic      Atomic             Coordinates (Angstroms)
 Number     Number       Type             X           Y           Z
 ---------------------------------------------------------------------
      1          6           0       -0.045452    0.652611    0.000000
      2          8           0       -0.053716   -0.755738    0.000000
      3          1           0       -1.089907    0.976777    0.000000
      4          1           0        0.864465   -1.054955    0.000000
      5          1           0        0.440844    1.075700    0.892971
      6          1           0        0.440844    1.075700   -0.892971
 ---------------------------------------------------------------------
                    Distance matrix (angstroms):
                    1          2          3          4          5
     1  C    0.000000
     2  O    1.408373   0.000000
     3  H    1.093604   2.018737   0.000000
     4  H    1.934872   0.965706   2.819132   0.000000
     5  H    1.101311   2.096701   1.774931   2.348732   0.000000
     6  H    1.101311   2.096701   1.774931   2.348732   1.785942
                    6
     6  H    0.000000
 Stoichiometry    CH4O
 Framework group  CS[SG(CH2O),X(H2)]
 Deg. of freedom     8
 Full point group                 CS      NOp   2
 RotChk:  IX=0 Diff= 3.84D-03
 Largest Abelian subgroup         CS      NOp   2
 Largest concise Abelian subgroup CS      NOp   2
                         Standard orientation:                         
 ---------------------------------------------------------------------
 Center     Atomic      Atomic             Coordinates (Angstroms)
 Number     Number       Type             X           Y           Z
 ---------------------------------------------------------------------
      1          6           0       -0.046733    0.655515    0.000000
      2          8           0       -0.046733   -0.752858    0.000000
      3          1           0       -1.093072    0.973548    0.000000
      4          1           0        0.873188   -1.046682    0.000000
      5          1           0        0.437072    1.081451    0.892971
      6          1           0        0.437072    1.081451   -0.892971
 ---------------------------------------------------------------------
 Rotational constants (GHZ):         127.4886905          25.0668280          24.1682931
 Leave Link  202 at Wed Oct  7 14:30:35 2020, MaxMem=  2684354560 cpu:               1.8 elap:               0.6
 (Enter /udrive/faculty/rpeverati/g16/g16/l301.exe)
 Standard basis: 6-31G(d) (5D, 7F)
 Ernie: Thresh=  0.10000D-02 Tol=  0.10000D-05 Strict=F.
 There are    28 symmetry adapted cartesian basis functions of A'  symmetry.
 There are    10 symmetry adapted cartesian basis functions of A"  symmetry.
 There are    26 symmetry adapted basis functions of A'  symmetry.
 There are    10 symmetry adapted basis functions of A"  symmetry.
    36 basis functions,    72 primitive gaussians,    38 cartesian basis functions
     9 alpha electrons        9 beta electrons
       nuclear repulsion energy        40.3954782136 Hartrees.
 IExCor= 1009 DFT=T Ex+Corr=PBE1PBE ExCW=0 ScaHFX=  0.250000
 ScaDFX=  0.750000  0.750000  1.000000  1.000000 ScalE2=  1.000000  1.000000
 IRadAn=      5 IRanWt=     -1 IRanGd=            0 ICorTp=0 IEmpDi=141
 NAtoms=    6 NActive=    6 NUniq=    5 SFac= 1.44D+00 NAtFMM=   60 NAOKFM=F Big=F
 Integral buffers will be    131072 words long.
 Raffenetti 2 integral format.
 Two-electron integral symmetry is turned on.
 R6Disp:  Grimme-D3(BJ) Dispersion energy=       -0.0015046871 Hartrees.
 Nuclear repulsion after empirical dispersion term =       40.3939735265 Hartrees.
 Leave Link  301 at Wed Oct  7 14:30:35 2020, MaxMem=  2684354560 cpu:               1.2 elap:               0.5
 (Enter /udrive/faculty/rpeverati/g16/g16/l302.exe)
 NPDir=0 NMtPBC=     1 NCelOv=     1 NCel=       1 NClECP=     1 NCelD=      1
         NCelK=      1 NCelE2=     1 NClLst=     1 CellRange=     0.0.
 One-electron integrals computed using PRISM.
 One-electron integral symmetry used in STVInt
 NBasis=    36 RedAO= T EigKep=  1.47D-02  NBF=    26    10
 NBsUse=    36 1.00D-06 EigRej= -1.00D+00 NBFU=    26    10
 Precomputing XC quadrature grid using
 IXCGrd= 4 IRadAn=           5 IRanWt=          -1 IRanGd=           0 AccXCQ= 0.00D+00.
 Generated NRdTot=       0 NPtTot=           0 NUsed=           0 NTot=          32
 NSgBfM=    38    38    38    38    38 MxSgAt=     6 MxSgA2=     6.
 Leave Link  302 at Wed Oct  7 14:30:36 2020, MaxMem=  2684354560 cpu:               3.5 elap:               0.7
 (Enter /udrive/faculty/rpeverati/g16/g16/l303.exe)
 DipDrv:  MaxL=1.
 Leave Link  303 at Wed Oct  7 14:30:37 2020, MaxMem=  2684354560 cpu:               1.4 elap:               0.5
 (Enter /udrive/faculty/rpeverati/g16/g16/l401.exe)
 Initial guess from the checkpoint file:  "MN_23_ch3oh_lower_BH76_PBE0DBJ_631Gs.chk"
 SCF N**3 symmetry information disabled.
 B after Tr=     0.000000    0.000000   -0.000000
         Rot=    1.000000   -0.000000    0.000000    0.000737 Ang=   0.08 deg.
 Guess basis will be translated and rotated to current coordinates.
 JPrj=2 DoOrth=T DoCkMO=T.
 Initial guess orbital symmetries:
       Occupied  (A') (A') (A') (A') (A') (A") (A') (A') (A")
       Virtual   (A') (A') (A') (A") (A') (A') (A') (A") (A') (A")
                 (A') (A') (A") (A') (A') (A') (A") (A') (A') (A")
                 (A') (A') (A") (A') (A") (A') (A')
 The electronic state of the initial guess is 1-A'.
 Leave Link  401 at Wed Oct  7 14:30:38 2020, MaxMem=  2684354560 cpu:               4.5 elap:               0.8
 (Enter /udrive/faculty/rpeverati/g16/g16/l502.exe)
 Keep R1 ints in memory in symmetry-blocked form, NReq=10578875.
 FoFCou: FMM=F IPFlag=           0 FMFlag=           0 FMFlg1=           0
         NFxFlg=           0 DoJE=F BraDBF=F KetDBF=F FulRan=T
         wScrn=  0.000000 ICntrl=       600 IOpCl=  0 I1Cent=           0 NGrid=           0
         NMat0=    1 NMatS0=    666 NMatT0=    0 NMatD0=    1 NMtDS0=    0 NMtDT0=    0
 Petite list used in FoFCou.
 Closed shell SCF:
 Using DIIS extrapolation, IDIIS=  1040.
 NGot=  2684354560 LenX=  2684232161 LenY=  2684230276
 Requested convergence on RMS density matrix=1.00D-08 within 120 cycles.
 Requested convergence on MAX density matrix=1.00D-06.
 Requested convergence on             energy=1.00D-06.
 No special actions if energy rises.

 Cycle   1  Pass 1  IDiag  1:
 E= -115.578822601005    
 DIIS: error= 3.25D-04 at cycle   1 NSaved=   1.
 NSaved= 1 IEnMin= 1 EnMin= -115.578822601005     IErMin= 1 ErrMin= 3.25D-04
 ErrMax= 3.25D-04  0.00D+00 EMaxC= 1.00D-01 BMatC= 6.60D-06 BMatP= 6.60D-06
 IDIUse=3 WtCom= 9.97D-01 WtEn= 3.25D-03
 Coeff-Com:  0.100D+01
 Coeff-En:   0.100D+01
 Coeff:      0.100D+01
 Gap=     0.369 Goal=   None    Shift=    0.000
 RMSDP=1.05D-04 MaxDP=6.09D-04              OVMax= 1.08D-03

 Cycle   2  Pass 1  IDiag  1:
 E= -115.578831660579     Delta-E=       -0.000009059574 Rises=F Damp=F
 DIIS: error= 1.55D-04 at cycle   2 NSaved=   2.
 NSaved= 2 IEnMin= 2 EnMin= -115.578831660579     IErMin= 2 ErrMin= 1.55D-04
 ErrMax= 1.55D-04  0.00D+00 EMaxC= 1.00D-01 BMatC= 6.15D-07 BMatP= 6.60D-06
 IDIUse=3 WtCom= 9.98D-01 WtEn= 1.55D-03
 Coeff-Com:  0.110D+00 0.890D+00
 Coeff-En:   0.000D+00 0.100D+01
 Coeff:      0.110D+00 0.890D+00
 Gap=     0.369 Goal=   None    Shift=    0.000
 RMSDP=2.83D-05 MaxDP=3.36D-04 DE=-9.06D-06 OVMax= 3.95D-04

 Cycle   3  Pass 1  IDiag  1:
 E= -115.578831896411     Delta-E=       -0.000000235832 Rises=F Damp=F
 DIIS: error= 1.28D-04 at cycle   3 NSaved=   3.
 NSaved= 3 IEnMin= 3 EnMin= -115.578831896411     IErMin= 3 ErrMin= 1.28D-04
 ErrMax= 1.28D-04  0.00D+00 EMaxC= 1.00D-01 BMatC= 3.90D-07 BMatP= 6.15D-07
 IDIUse=3 WtCom= 9.99D-01 WtEn= 1.28D-03
 Coeff-Com: -0.164D-01 0.443D+00 0.574D+00
 Coeff-En:   0.000D+00 0.369D+00 0.631D+00
 Coeff:     -0.164D-01 0.443D+00 0.574D+00
 Gap=     0.369 Goal=   None    Shift=    0.000
 RMSDP=1.33D-05 MaxDP=1.61D-04 DE=-2.36D-07 OVMax= 1.77D-04

 Cycle   4  Pass 1  IDiag  1:
 E= -115.578832262063     Delta-E=       -0.000000365653 Rises=F Damp=F
 DIIS: error= 1.15D-05 at cycle   4 NSaved=   4.
 NSaved= 4 IEnMin= 4 EnMin= -115.578832262063     IErMin= 4 ErrMin= 1.15D-05
 ErrMax= 1.15D-05  0.00D+00 EMaxC= 1.00D-01 BMatC= 7.31D-09 BMatP= 3.90D-07
 IDIUse=1 WtCom= 1.00D+00 WtEn= 0.00D+00
 Coeff-Com: -0.971D-02 0.132D+00 0.215D+00 0.663D+00
 Coeff:     -0.971D-02 0.132D+00 0.215D+00 0.663D+00
 Gap=     0.369 Goal=   None    Shift=    0.000
 RMSDP=2.27D-06 MaxDP=2.31D-05 DE=-3.66D-07 OVMax= 2.46D-05

 Cycle   5  Pass 1  IDiag  1:
 E= -115.578832266812     Delta-E=       -0.000000004748 Rises=F Damp=F
 DIIS: error= 5.88D-06 at cycle   5 NSaved=   5.
 NSaved= 5 IEnMin= 5 EnMin= -115.578832266812     IErMin= 5 ErrMin= 5.88D-06
 ErrMax= 5.88D-06  0.00D+00 EMaxC= 1.00D-01 BMatC= 1.46D-09 BMatP= 7.31D-09
 IDIUse=1 WtCom= 1.00D+00 WtEn= 0.00D+00
 Coeff-Com: -0.402D-02 0.302D-01 0.628D-01 0.345D+00 0.566D+00
 Coeff:     -0.402D-02 0.302D-01 0.628D-01 0.345D+00 0.566D+00
 Gap=     0.369 Goal=   None    Shift=    0.000
 RMSDP=8.43D-07 MaxDP=9.65D-06 DE=-4.75D-09 OVMax= 9.60D-06

 Cycle   6  Pass 1  IDiag  1:
 E= -115.578832267924     Delta-E=       -0.000000001112 Rises=F Damp=F
 DIIS: error= 5.48D-07 at cycle   6 NSaved=   6.
 NSaved= 6 IEnMin= 6 EnMin= -115.578832267924     IErMin= 6 ErrMin= 5.48D-07
 ErrMax= 5.48D-07  0.00D+00 EMaxC= 1.00D-01 BMatC= 1.47D-11 BMatP= 1.46D-09
 IDIUse=1 WtCom= 1.00D+00 WtEn= 0.00D+00
 Coeff-Com: -0.517D-06-0.294D-02-0.285D-02 0.129D-01 0.103D+00 0.890D+00
 Coeff:     -0.517D-06-0.294D-02-0.285D-02 0.129D-01 0.103D+00 0.890D+00
 Gap=     0.369 Goal=   None    Shift=    0.000
 RMSDP=1.08D-07 MaxDP=6.73D-07 DE=-1.11D-09 OVMax= 1.20D-06

 Cycle   7  Pass 1  IDiag  1:
 E= -115.578832267936     Delta-E=       -0.000000000013 Rises=F Damp=F
 DIIS: error= 7.25D-08 at cycle   7 NSaved=   7.
 NSaved= 7 IEnMin= 7 EnMin= -115.578832267936     IErMin= 7 ErrMin= 7.25D-08
 ErrMax= 7.25D-08  0.00D+00 EMaxC= 1.00D-01 BMatC= 2.01D-13 BMatP= 1.47D-11
 IDIUse=1 WtCom= 1.00D+00 WtEn= 0.00D+00
 Coeff-Com:  0.673D-04-0.115D-02-0.161D-02-0.417D-02 0.108D-01 0.171D+00
 Coeff-Com:  0.825D+00
 Coeff:      0.673D-04-0.115D-02-0.161D-02-0.417D-02 0.108D-01 0.171D+00
 Coeff:      0.825D+00
 Gap=     0.369 Goal=   None    Shift=    0.000
 RMSDP=1.48D-08 MaxDP=1.19D-07 DE=-1.30D-11 OVMax= 1.76D-07

 Cycle   8  Pass 1  IDiag  1:
 E= -115.578832267937     Delta-E=       -0.000000000001 Rises=F Damp=F
 DIIS: error= 9.45D-09 at cycle   8 NSaved=   8.
 NSaved= 8 IEnMin= 8 EnMin= -115.578832267937     IErMin= 8 ErrMin= 9.45D-09
 ErrMax= 9.45D-09  0.00D+00 EMaxC= 1.00D-01 BMatC= 5.27D-15 BMatP= 2.01D-13
 IDIUse=1 WtCom= 1.00D+00 WtEn= 0.00D+00
 Coeff-Com:  0.549D-05-0.268D-05-0.623D-05-0.961D-03-0.258D-02-0.209D-01
 Coeff-Com:  0.499D-01 0.975D+00
 Coeff:      0.549D-05-0.268D-05-0.623D-05-0.961D-03-0.258D-02-0.209D-01
 Coeff:      0.499D-01 0.975D+00
 Gap=     0.369 Goal=   None    Shift=    0.000
 RMSDP=3.63D-09 MaxDP=2.57D-08 DE=-6.82D-13 OVMax= 4.61D-08

 SCF Done:  E(RPBE1PBE) =  -115.578832268     A.U. after    8 cycles
            NFock=  8  Conv=0.36D-08     -V/T= 2.0052
 KE= 1.149816443800D+02 PE=-3.521501531824D+02 EE= 8.119570300797D+01
 Leave Link  502 at Wed Oct  7 14:30:40 2020, MaxMem=  2684354560 cpu:              13.4 elap:               1.5
 (Enter /udrive/faculty/rpeverati/g16/g16/l508.exe)
 QCSCF skips out because SCF is already converged.
 Leave Link  508 at Wed Oct  7 14:30:41 2020, MaxMem=  2684354560 cpu:               0.4 elap:               0.6
 (Enter /udrive/faculty/rpeverati/g16/g16/l701.exe)
 ... and contract with generalized density number  0.
 Compute integral first derivatives.
 R6Disp: Adding Grimme-D3(BJ) dispersion energy 1st derivatives to the gradient.
 Leave Link  701 at Wed Oct  7 14:30:42 2020, MaxMem=  2684354560 cpu:               3.5 elap:               0.8
 (Enter /udrive/faculty/rpeverati/g16/g16/l702.exe)
 L702 exits ... SP integral derivatives will be done elsewhere.
 Leave Link  702 at Wed Oct  7 14:30:43 2020, MaxMem=  2684354560 cpu:               1.4 elap:               0.4
 (Enter /udrive/faculty/rpeverati/g16/g16/l703.exe)
 Integral derivatives from FoFJK, PRISM(SPDF).
 Compute integral first derivatives, UseDBF=F ICtDFT=           0.
 Calling FoFJK, ICntrl=      2127 FMM=F ISym2X=1 I1Cent= 0 IOpClX= 0 NMat=1 NMatS=1 NMatT=0.
 FoFJK:  IHMeth= 1 ICntrl=    2127 DoSepK=F KAlg= 0 I1Cent=           0 FoldK=F
 IRaf=         0 NMat=       1 IRICut=       1 DoRegI=T DoRafI=F ISym2E= 1 IDoP0=0 IntGTp=1.
 FoFCou: FMM=F IPFlag=           0 FMFlag=      100000 FMFlg1=         800
         NFxFlg=           0 DoJE=F BraDBF=F KetDBF=F FulRan=T
         wScrn=  0.000000 ICntrl=      2127 IOpCl=  0 I1Cent=           0 NGrid=           0
         NMat0=    1 NMatS0=      1 NMatT0=    0 NMatD0=    1 NMtDS0=    0 NMtDT0=    0
 Petite list used in FoFCou.
 Leave Link  703 at Wed Oct  7 14:30:44 2020, MaxMem=  2684354560 cpu:               4.9 elap:               1.0
 (Enter /udrive/faculty/rpeverati/g16/g16/l716.exe)
 Dipole        = 5.73420641D-01 3.48454132D-01 0.00000000D+00
 ***** Axes restored to original set *****
 -------------------------------------------------------------------
 Center     Atomic                   Forces (Hartrees/Bohr)
 Number     Number              X              Y              Z
 -------------------------------------------------------------------
      1        6           0.000181473   -0.000720547    0.000000000
      2        8           0.000483089    0.000594369    0.000000000
      3        1           0.000236548   -0.000216616   -0.000000000
      4        1          -0.000703388    0.000296553   -0.000000000
      5        1          -0.000098861    0.000023121   -0.000155549
      6        1          -0.000098861    0.000023121    0.000155549
 -------------------------------------------------------------------
 Cartesian Forces:  Max     0.000720547 RMS     0.000324324
 Leave Link  716 at Wed Oct  7 14:30:45 2020, MaxMem=  2684354560 cpu:               1.4 elap:               0.5
 (Enter /udrive/faculty/rpeverati/g16/g16/l103.exe)

 GradGradGradGradGradGradGradGradGradGradGradGradGradGradGradGradGradGrad
 Berny optimization.
 Optmz: redundant internal coordinate code flag= 1
 Using GEDIIS/GDIIS optimizer.
 Red2BG:  D1=  2.71D-01 OD1=  1.53D-02 B2RMS=  0.00D+00 IAprox=0
 FormGI is forming the generalized inverse of G from B-inverse, IUseBI=4.
 Internal  Forces:  Max     0.000889622 RMS     0.000332818
 Search for a local minimum.
 Step number   3 out of a maximum of  100
 All quantities printed in internal units (Hartrees-Bohrs-Radians)
 RMS Force = .33282D-03 SwitMx=.10000D-02 MixMth= 2
 Mixed Optimization -- En-DIIS/RFO-DIIS
 Swapping is turned off.
 Update second derivatives using D2CorX and points    1    2    3
 DE= -1.91D-05 DEPred=-2.02D-05 R= 9.46D-01
 TightC=F SS=  1.41D+00  RLast= 1.56D-02 DXNew= 5.0454D-01 4.6771D-02
 Trust test= 9.46D-01 RLast= 1.56D-02 DXMaxT set to 3.00D-01
 The second derivative matrix:
                          R1        R2        R3        R4        R5
           R1           0.35346
           R2           0.01918   0.35835
           R3           0.02634   0.00374   0.34648
           R4           0.02634   0.00374   0.00092   0.34648
           R5           0.04331   0.01592   0.00990   0.00990   0.60447
           A1           0.03434   0.00268  -0.00374  -0.00374   0.01082
           A2           0.01364  -0.00289  -0.00420  -0.00420  -0.00649
           A3           0.01364  -0.00289  -0.00420  -0.00420  -0.00649
           A4          -0.01794   0.00043   0.00354   0.00354  -0.00104
           A5          -0.01794   0.00043   0.00354   0.00354  -0.00104
           A6          -0.02752   0.00276   0.00582   0.00582   0.00528
           A7           0.02324  -0.00049  -0.00592  -0.00592   0.00311
           D1          -0.00000   0.00000   0.00000   0.00000   0.00000
           D2          -0.00045   0.00175   0.00047   0.00047   0.00559
           D3           0.00045  -0.00175  -0.00047  -0.00047  -0.00559
                          A1        A2        A3        A4        A5
           A1           0.17529
           A2          -0.00582   0.15739
           A3          -0.00582  -0.00261   0.15739
           A4          -0.00579   0.00353   0.00353   0.16102
           A5          -0.00579   0.00353   0.00353   0.00102   0.16102
           A6           0.00791   0.00438   0.00438  -0.00352  -0.00352
           A7           0.01809  -0.00447  -0.00447  -0.00721  -0.00721
           D1          -0.00000   0.00000   0.00000   0.00000   0.00000
           D2           0.01300  -0.00062  -0.00062  -0.00420  -0.00420
           D3          -0.01300   0.00062   0.00062   0.00420   0.00420
                          A6        A7        D1        D2        D3
           A6           0.14996
           A7           0.00497   0.18247
           D1           0.00000  -0.00000   0.01452
           D2          -0.00345   0.01252  -0.00000   0.01722
           D3           0.00345  -0.01252   0.00000  -0.00270   0.01722
 ITU=  1  1  0
 Eigenvectors of the second derivative matrix:
                           1         2         3         4         5
     Eigenvalues --     0.01452   0.10118   0.10484   0.12890   0.16000
   1         R1        -0.00000  -0.00137  -0.00000   0.23560  -0.00000
   2         R2         0.00000   0.00719  -0.00000  -0.03137  -0.00000
   3         R3         0.00000   0.00477   0.00000  -0.07359   0.00000
   4         R4         0.00000   0.00477  -0.00000  -0.07359  -0.00000
   5         R5         0.00000   0.01088  -0.00000  -0.02804  -0.00000
   6         A1        -0.00000  -0.19473  -0.00000  -0.21931   0.00000
   7         A2         0.00000   0.16222  -0.23580  -0.44012   0.64065
   8         A3         0.00000   0.16222   0.23580  -0.44012  -0.64065
   9         A4        -0.00000  -0.34499  -0.50478   0.29168  -0.29927
  10         A5        -0.00000  -0.34499   0.50478   0.29168   0.29927
  11         A6        -0.00000   0.49467   0.00000   0.56418   0.00000
  12         A7        -0.00000   0.11070   0.00000  -0.07387  -0.00000
  13         D1        -0.57735  -0.00000   0.50278   0.00000   0.00000
  14         D2        -0.57735  -0.45511  -0.25139  -0.03515  -0.00000
  15         D3        -0.57735   0.45511  -0.25139   0.03515   0.00000
                           6         7         8         9        10
     Eigenvalues --     0.16094   0.19981   0.32669   0.34555   0.35198
   1         R1        -0.00860  -0.20094  -0.57925  -0.00000   0.19052
   2         R2        -0.01217   0.00255   0.19572   0.00000  -0.89448
   3         R3        -0.01135   0.06293   0.51578  -0.70711   0.28505
[...]
 Leave Link  703 at Wed Oct  7 14:30:55 2020, MaxMem=  2684354560 cpu:               7.2 elap:               0.9
 (Enter /udrive/faculty/rpeverati/g16/g16/l716.exe)
 Dipole        = 5.73236413D-01 3.46803100D-01 0.00000000D+00
 ***** Axes restored to original set *****
 -------------------------------------------------------------------
 Center     Atomic                   Forces (Hartrees/Bohr)
 Number     Number              X              Y              Z
 -------------------------------------------------------------------
      1        6          -0.000046837    0.000029444    0.000000000
      2        8           0.000270506   -0.000006117   -0.000000000
      3        1           0.000029443   -0.000003855    0.000000000
      4        1          -0.000226357    0.000021600    0.000000000
      5        1          -0.000013377   -0.000020536   -0.000032276
      6        1          -0.000013377   -0.000020536    0.000032276
 -------------------------------------------------------------------
 Cartesian Forces:  Max     0.000270506 RMS     0.000085681
 Leave Link  716 at Wed Oct  7 14:30:56 2020, MaxMem=  2684354560 cpu:               1.2 elap:               0.3
 (Enter /udrive/faculty/rpeverati/g16/g16/l103.exe)

 GradGradGradGradGradGradGradGradGradGradGradGradGradGradGradGradGradGrad
 Berny optimization.
 Optmz: redundant internal coordinate code flag= 1
 Using GEDIIS/GDIIS optimizer.
 Red2BG:  D1=  2.71D-01 OD1=  2.92D-03 B2RMS=  0.00D+00 IAprox=0
 FormGI is forming the generalized inverse of G from B-inverse, IUseBI=4.
 Internal  Forces:  Max     0.000221875 RMS     0.000064384
 Search for a local minimum.
 Step number   4 out of a maximum of  100
 All quantities printed in internal units (Hartrees-Bohrs-Radians)
 RMS Force = .64384D-04 SwitMx=.10000D-02 MixMth= 2
 Mixed Optimization -- En-DIIS/RFO-DIIS
 Swapping is turned off.
 Update second derivatives using D2CorX and points    1    2    3    4
 DE= -2.10D-06 DEPred=-1.98D-06 R= 1.06D+00
 TightC=F SS=  1.41D+00  RLast= 3.60D-03 DXNew= 5.0454D-01 1.0794D-02
 Trust test= 1.06D+00 RLast= 3.60D-03 DXMaxT set to 3.00D-01
 The second derivative matrix:
                          R1        R2        R3        R4        R5
           R1           0.36009
           R2           0.01513   0.35469
           R3           0.01813  -0.00014   0.34341
           R4           0.01813  -0.00014  -0.00214   0.34341
           R5          -0.00547  -0.00104  -0.00197  -0.00197   0.54584
           A1           0.03213   0.00276  -0.00380  -0.00380   0.00354
           A2           0.01310  -0.00298  -0.00369  -0.00369   0.00100
           A3           0.01310  -0.00298  -0.00369  -0.00369   0.00100
           A4          -0.02372   0.00038   0.00431   0.00431  -0.00368
           A5          -0.02372   0.00038   0.00431   0.00431  -0.00368
           A6          -0.01402   0.00275   0.00330   0.00330   0.00163
           A7           0.04649   0.00504  -0.00394  -0.00394   0.01252
           D1          -0.00000   0.00000   0.00000   0.00000   0.00000
           D2           0.01634   0.00213  -0.00202  -0.00202   0.00535
           D3          -0.01634  -0.00213   0.00202   0.00202  -0.00535
                          A1        A2        A3        A4        A5
           A1           0.17282
           A2          -0.00454   0.15704
           A3          -0.00454  -0.00296   0.15704
           A4          -0.00787   0.00490   0.00490   0.16055
           A5          -0.00787   0.00490   0.00490   0.00055   0.16055
           A6           0.01152   0.00139   0.00139  -0.00345  -0.00345
           A7           0.02071  -0.00788  -0.00788  -0.00810  -0.00810
           D1          -0.00000   0.00000   0.00000   0.00000   0.00000
           D2           0.01765  -0.00429  -0.00429  -0.00387  -0.00387
           D3          -0.01765   0.00429   0.00429   0.00387   0.00387
                          A6        A7        D1        D2        D3
           A6           0.15235
           A7           0.01104   0.18612
           D1           0.00000  -0.00000   0.01452
           D2          -0.00116   0.01830  -0.00000   0.01921
           D3           0.00116  -0.01830   0.00000  -0.00469   0.01921
 ITU=  1  1  1  0
 Eigenvectors of the second derivative matrix:
                           1         2         3         4         5
     Eigenvalues --     0.01452   0.10136   0.10485   0.13041   0.15910
   1         R1         0.00000  -0.00789   0.00000   0.23602  -0.00519
   2         R2         0.00000  -0.00561  -0.00000  -0.02615  -0.00801
   3         R3         0.00000  -0.00052  -0.00000  -0.06389  -0.00776
   4         R4         0.00000  -0.00052  -0.00000  -0.06389  -0.00776
   5         R5         0.00000  -0.00069   0.00000   0.01772  -0.01159
   6         A1         0.00000   0.19889  -0.00000  -0.17852  -0.59142
   7         A2        -0.00000  -0.14880  -0.23551  -0.43318   0.04685
   8         A3        -0.00000  -0.14880   0.23551  -0.43318   0.04685
   9         A4         0.00000   0.33596  -0.50497   0.26920   0.28973
  10         A5         0.00000   0.33596   0.50497   0.26920   0.28973
  11         A6         0.00000  -0.50784   0.00000   0.55316  -0.05798
  12         A7        -0.00000  -0.13752   0.00000  -0.27378   0.68864
  13         D1        -0.57735   0.00000   0.50271  -0.00000  -0.00000
  14         D2        -0.57735   0.45471  -0.25136  -0.03229   0.00225
  15         D3        -0.57735  -0.45471  -0.25136   0.03229  -0.00225
                           6         7         8         9        10
     Eigenvalues --     0.16000   0.20125   0.33427   0.34555   0.35185
   1         R1        -0.00000   0.27058  -0.35145  -0.00000  -0.17783
   2         R2        -0.00000   0.02037   0.31069   0.00000   0.89512
   3         R3        -0.00000  -0.05279   0.60003  -0.70711  -0.28829
   4         R4        -0.00000  -0.05279   0.60003   0.70711  -0.28829
   5         R5        -0.00000   0.03484   0.01830  -0.00000  -0.00503
   6         A1        -0.00000  -0.54659  -0.13861  -0.00000  -0.00691
   7         A2         0.64084   0.29515  -0.02981  -0.00000  -0.01315
   8         A3        -0.64084   0.29515  -0.02981  -0.00000  -0.01315
   9         A4        -0.29888   0.09026   0.07057   0.00000   0.01004
  10         A5         0.29888   0.09026   0.07057   0.00000   0.01004
  11         A6         0.00000  -0.23674   0.06403   0.00000   0.01480
  12         A7         0.00000  -0.60333  -0.15404  -0.00000  -0.00886
  13         D1         0.00000   0.00000   0.00000  -0.00000   0.00000
  14         D2         0.00000  -0.07156  -0.01955  -0.00000   0.00035
  15         D3        -0.00000   0.07156   0.01955   0.00000  -0.00035
                          11        12
     Eigenvalues --     0.39898   0.54655
   1         R1         0.84586  -0.01929
   2         R2         0.31782  -0.00572
   3         R3         0.22308  -0.01250
   4         R4         0.22308  -0.01250
   5         R5         0.01316   0.99890
   6         A1         0.16420   0.01585
   7         A2         0.01016  -0.00182
   8         A3         0.01016  -0.00182
   9         A4        -0.06776  -0.00468
  10         A5        -0.06776  -0.00468
  11         A6        -0.05406  -0.00297
  12         A7         0.20723   0.03385
  13         D1        -0.00000   0.00000
  14         D2         0.02818   0.00340
  15         D3        -0.02818  -0.00340
 DoSqrt=T IScMMF=    -3 MM Scaling Factor =       0.00000
 En-DIIS/RFO-DIIS/Sim-DIIS IScMMF=       -3 using points:     4    3    2
 Iter=   1 RLamda=-3.54806359D-02 Sum=-1.40064729D-07.
 Iter=   2 RLamda=-1.40064729D-07 Sum=-1.55745070D-07.
 Iter=   3 RLamda=-1.55745070D-07 Sum=-1.55745062D-07.
 RFO step:  Lambda=-1.55745070D-07.
 NNeg= 0 NGDIIS= 3 SimSw=  2.50D-01 Rises=F DC= -2.10D-06 SmlDif=  1.00D-05
 NRisDI= 0 DoIntr=F SqrtH=F CThrHd= 10.0 CDAdj=  3.0
 RMS Error=  0.1838640430D-03 NUsed= 3 OKEnD=F EnDIS=F
 Total RFO-DIIS matrix:
                 1             2             3             4 
      1   0.000000D+00 -0.100000D+01 -0.100000D+01 -0.100000D+01
      2  -0.100000D+01  0.507090D-06  0.107619D-05  0.369818D-05
      3  -0.100000D+01  0.107619D-05  0.145927D-04  0.221816D-04
      4  -0.100000D+01  0.369818D-05  0.221816D-04  0.272602D-03
 InvSVX:  RCond= 1.96D-06 Info=           0 Equed=N FErr=  1.31D-15 BErr=  5.91D-17
 DidBck=F Rises=F RFO-DIIS coefs:    1.04013   -0.03015   -0.00998
 Iteration  1 RMS(Cart)=  0.00017514 RMS(Int)=  0.00000010
 Iteration  2 RMS(Cart)=  0.00000006 RMS(Int)=  0.00000009
 ITry= 1 IFail=0 DXMaxC= 3.74D-04 DCOld= 1.00D+10 DXMaxT= 3.00D-01 DXLimC= 3.00D+00 Rises=F
 ClnCor:  largest displacement from symmetrization is 5.95D-14 for atom     6.
 Variable       Old X    -DE/DX   Delta X   Delta X   Delta X     New X
                                 (Linear)    (Quad)   (Total)
    R1        2.65902  -0.00002  -0.00014   0.00003  -0.00011   2.65891
    R2        2.06602  -0.00003  -0.00001  -0.00008  -0.00009   2.06593
    R3        2.08097  -0.00004   0.00001  -0.00012  -0.00011   2.08086
    R4        2.08097  -0.00004   0.00001  -0.00012  -0.00011   2.08086
    R5        1.82392  -0.00022  -0.00001  -0.00041  -0.00042   1.82350
    A1        1.86486   0.00001   0.00005  -0.00002   0.00003   1.86489
    A2        1.96915  -0.00001   0.00007  -0.00009  -0.00003   1.96912
    A3        1.96915  -0.00001   0.00007  -0.00009  -0.00003   1.96912
    A4        1.88321   0.00000  -0.00006   0.00008   0.00002   1.88323
    A5        1.88321   0.00000  -0.00006   0.00008   0.00002   1.88323
    A6        1.89053   0.00000  -0.00008   0.00006  -0.00002   1.89051
    A7        1.87984   0.00009   0.00006   0.00047   0.00053   1.88037
    D1        3.14159  -0.00000   0.00000  -0.00000   0.00000   3.14159
    D2       -1.07484   0.00001  -0.00000   0.00003   0.00003  -1.07481
    D3        1.07484  -0.00001   0.00000  -0.00003  -0.00003   1.07481
         Item               Value     Threshold  Converged?
 Maximum Force            0.000222     0.000450     YES
 RMS     Force            0.000064     0.000300     YES
 Maximum Displacement     0.000374     0.001800     YES
 RMS     Displacement     0.000175     0.001200     YES
 Predicted change in Energy=-7.787219D-08
 Optimization completed.
    -- Stationary point found.
                           ----------------------------
                           !   Optimized Parameters   !
                           ! (Angstroms and Degrees)  !
 --------------------------                            --------------------------
 ! Name  Definition              Value          Derivative Info.                !
 --------------------------------------------------------------------------------
 ! R1    R(1,2)                  1.4071         -DE/DX =    0.0                 !
 ! R2    R(1,3)                  1.0933         -DE/DX =    0.0                 !
 ! R3    R(1,5)                  1.1012         -DE/DX =    0.0                 !
 ! R4    R(1,6)                  1.1012         -DE/DX =    0.0                 !
 ! R5    R(2,4)                  0.9652         -DE/DX =   -0.0002              !
 ! A1    A(2,1,3)              106.8486         -DE/DX =    0.0                 !
 ! A2    A(2,1,5)              112.8238         -DE/DX =    0.0                 !
 ! A3    A(2,1,6)              112.8238         -DE/DX =    0.0                 !
 ! A4    A(3,1,5)              107.8998         -DE/DX =    0.0                 !
 ! A5    A(3,1,6)              107.8998         -DE/DX =    0.0                 !
 ! A6    A(5,1,6)              108.3192         -DE/DX =    0.0                 !
 ! A7    A(1,2,4)              107.7069         -DE/DX =    0.0001              !
 ! D1    D(3,1,2,4)            180.0            -DE/DX =    0.0                 !
 ! D2    D(5,1,2,4)            -61.584          -DE/DX =    0.0                 !
 ! D3    D(6,1,2,4)             61.584          -DE/DX =    0.0                 !
 --------------------------------------------------------------------------------
 Lowest energy point so far.  Saving SCF results.
 Largest change from initial coordinates is atom    4       0.011 Angstoms.
 GradGradGradGradGradGradGradGradGradGradGradGradGradGradGradGradGradGrad

 Leave Link  103 at Wed Oct  7 14:30:57 2020, MaxMem=  2684354560 cpu:               3.0 elap:               0.7
 (Enter /udrive/faculty/rpeverati/g16/g16/l202.exe)
                          Input orientation:                          
 ---------------------------------------------------------------------
 Center     Atomic      Atomic             Coordinates (Angstroms)
 Number     Number       Type             X           Y           Z
 ---------------------------------------------------------------------
      1          6           0       -0.044930    0.651997    0.000000
      2          8           0       -0.053950   -0.755066    0.000000
      3          1           0       -1.089237    0.975581    0.000000
      4          1           0        0.863599   -1.054510    0.000000
      5          1           0        0.440798    1.076047    0.892691
      6          1           0        0.440798    1.076047   -0.892691
 ---------------------------------------------------------------------
                    Distance matrix (angstroms):
                    1          2          3          4          5
     1  C    0.000000
     2  O    1.407092   0.000000
     3  H    1.093291   2.016670   0.000000
     4  H    1.933285   0.965175   2.816884   0.000000
     5  H    1.101202   2.096341   1.774260   2.348389   0.000000
     6  H    1.101202   2.096341   1.774260   2.348389   1.785382
                    6
     6  H    0.000000
 Stoichiometry    CH4O
 Framework group  CS[SG(CH2O),X(H2)]
 Deg. of freedom     8
 Full point group                 CS      NOp   2
 RotChk:  IX=0 Diff= 0.00D+00
 Largest Abelian subgroup         CS      NOp   2
 Largest concise Abelian subgroup CS      NOp   2
                         Standard orientation:                         
 ---------------------------------------------------------------------
 Center     Atomic      Atomic             Coordinates (Angstroms)
 Number     Number       Type             X           Y           Z
 ---------------------------------------------------------------------
      1          6           0       -0.046616    0.654788    0.000000
      2          8           0       -0.046616   -0.752304    0.000000
      3          1           0       -1.092976    0.971671    0.000000
      4          1           0        0.872833   -1.045860    0.000000
      5          1           0        0.436383    1.081943    0.892691
      6          1           0        0.436383    1.081943   -0.892691
 ---------------------------------------------------------------------
 Rotational constants (GHZ):         127.5909424          25.1031317          24.2033839
 Leave Link  202 at Wed Oct  7 14:30:58 2020, MaxMem=  2684354560 cpu:               1.2 elap:               0.5
 (Enter /udrive/faculty/rpeverati/g16/g16/l601.exe)
 Copying SCF densities to generalized density rwf, IOpCl= 0 IROHF=0.

 **********************************************************************

            Population analysis using the SCF density.

 **********************************************************************

 Orbital symmetries:
       Occupied  (A') (A') (A') (A') (A') (A") (A') (A') (A")
       Virtual   (A') (A') (A') (A") (A') (A') (A') (A") (A') (A")
                 (A') (A') (A") (A') (A') (A') (A") (A') (A') (A")
                 (A') (A') (A") (A') (A") (A') (A')
 The electronic state is 1-A'.
 Alpha  occ. eigenvalues --  -19.20885 -10.26016  -1.04202  -0.69715  -0.51872
 Alpha  occ. eigenvalues --   -0.44713  -0.43296  -0.34080  -0.27570
 Alpha virt. eigenvalues --    0.09320   0.14814   0.18083   0.18966   0.22280
 Alpha virt. eigenvalues --    0.55979   0.58989   0.59840   0.80876   0.87485
 Alpha virt. eigenvalues --    0.89960   0.93566   1.00206   1.02129   1.04964
 Alpha virt. eigenvalues --    1.15104   1.50897   1.53318   1.66203   1.74989
 Alpha virt. eigenvalues --    2.07020   2.13451   2.14592   2.37215   2.42662
 Alpha virt. eigenvalues --    2.47398   2.81989
          Condensed to atoms (all electrons):
               1          2          3          4          5          6
     1  C    4.905952   0.262548   0.386937  -0.036486   0.372672   0.372672
     2  O    0.262548   8.243146  -0.036130   0.251176  -0.039425  -0.039425
     3  H    0.386937  -0.036130   0.527984   0.006557  -0.035310  -0.035310
     4  H   -0.036486   0.251176   0.006557   0.372637  -0.004806  -0.004806
     5  H    0.372672  -0.039425  -0.035310  -0.004806   0.603368  -0.049089
     6  H    0.372672  -0.039425  -0.035310  -0.004806  -0.049089   0.603368
 Mulliken charges:
               1
     1  C   -0.264294
     2  O   -0.641889
     3  H    0.185273
     4  H    0.415729
     5  H    0.152590
     6  H    0.152590
 Sum of Mulliken charges =  -0.00000
 Mulliken charges with hydrogens summed into heavy atoms:
               1
     1  C    0.226160
     2  O   -0.226160
 Electronic spatial extent (au):  <R**2>=             83.4027
 Charge=             -0.0000 electrons
 Dipole moment (field-independent basis, Debye):
    X=              1.4570    Y=              0.8815    Z=              0.0000  Tot=              1.7029
 Quadrupole moment (field-independent basis, Debye-Ang):
   XX=            -11.4827   YY=            -12.9626   ZZ=            -13.5685
   XY=             -2.1451   XZ=              0.0000   YZ=             -0.0000
 Traceless Quadrupole moment (field-independent basis, Debye-Ang):
   XX=              1.1886   YY=             -0.2913   ZZ=             -0.8972
   XY=             -2.1451   XZ=              0.0000   YZ=             -0.0000
 Octapole moment (field-independent basis, Debye-Ang**2):
  XXX=              1.1636  YYY=             -3.9767  ZZZ=              0.0000  XYY=              2.2289
  XXY=             -2.2773  XXZ=             -0.0000  XZZ=              0.6285  YZZ=             -0.5247
  YYZ=             -0.0000  XYZ=              0.0000
 Hexadecapole moment (field-independent basis, Debye-Ang**3):
 XXXX=            -18.2129 YYYY=            -59.9678 ZZZZ=            -18.9809 XXXY=             -1.1895
 XXXZ=              0.0000 YYYX=             -1.2367 YYYZ=              0.0000 ZZZX=              0.0000
 ZZZY=              0.0000 XXYY=            -11.7403 XXZZ=             -6.5832 YYZZ=            -13.4379
 XXYZ=              0.0000 YYXZ=             -0.0000 ZZXY=              0.7864
 N-N= 4.041893050277D+01 E-N=-3.522013592116D+02  KE= 1.149858106877D+02
 No NMR shielding tensors so no spin-rotation constants.
 Leave Link  601 at Wed Oct  7 14:30:58 2020, MaxMem=  2684354560 cpu:               2.8 elap:               0.6
 (Enter /udrive/faculty/rpeverati/g16/g16/l9999.exe)

 Test job not archived.
 1\1\GINC-NODE56\FOpt\RPBE1PBE\6-31G(d)\C1H4O1\RPEVERATI\07-Oct-2020\0\
 \#P Opt(MaxCyc=100) PBE1PBE/6-31G* 5D 7F Integral=UltraFineGrid SCF=(N
 oSymm,XQC,MaxCyc=120) EmpiricalDispersion=GD3BJ IOp(1/33=1)\\TS search
  on BH76.\\0,1\C,-0.0449297343,0.6519971151,0.\O,-0.0539499654,-0.7550
 660273,0.\H,-1.0892369972,0.9755810465,0.\H,0.8635985262,-1.0545104588
 ,0.\H,0.4407979662,1.0760466648,0.8926909254\H,0.4407979662,1.07604666
 48,-0.8926909254\\Version=ES64L-G16RevA.03\State=1-A'\HF=-115.5788344\
 RMSD=3.450e-09\RMSF=8.568e-05\Dipole=0.5754478,0.3431212,0.\Quadrupole
 =0.863173,-0.1961143,-0.6670587,-1.6017703,0.,0.\PG=CS [SG(C1H2O1),X(H
 2)]\\@


 Not by the face shall a man be known, but by the mask.
                               -- Karen Blixen
 Job cpu time:       0 days  0 hours  3 minutes 18.1 seconds.
 Elapsed time:       0 days  0 hours  0 minutes 37.6 seconds.
 File lengths (MBytes):  RWF=      5 Int=      0 D2E=      0 Chk=      1 Scr=      1
 Normal termination of Gaussian 16 at Wed Oct  7 14:31:00 2020.
