 Entering Gaussian System, Link 0=g16
 Input=MN_28_clch3clts_BH76_PBE0DBJ_631Gs.in
 Output=MN_28_clch3clts_BH76_PBE0DBJ_631Gs.log
 Initial command:
 /udrive/faculty/rpeverati/g16/g16/l1.exe "/udrive/scratch-directories/gaussian09/rpeverati/Gau-18402.inp" -scrdir="/udrive/scratch-directories/gaussian09/rpeverati/"
 Entering Link 1 = /udrive/faculty/rpeverati/g16/g16/l1.exe PID=     18419.
  
 Copyright (c) 1988,1990,1992,1993,1995,1998,2003,2009,2016,
            Gaussian, Inc.  All Rights Reserved.
  
 This is part of the Gaussian(R) 16 program.  It is based on
 the Gaussian(R) 09 system (copyright 2009, Gaussian, Inc.),
 the Gaussian(R) 03 system (copyright 2003, Gaussian, Inc.),
 the Gaussian(R) 98 system (copyright 1998, Gaussian, Inc.),
 the Gaussian(R) 94 system (copyright 1995, Gaussian, Inc.),
 the Gaussian 92(TM) system (copyright 1992, Gaussian, Inc.),
 the Gaussian 90(TM) system (copyright 1990, Gaussian, Inc.),
 the Gaussian 88(TM) system (copyright 1988, Gaussian, Inc.),
 the Gaussian 86(TM) system (copyright 1986, Carnegie Mellon
 University), and the Gaussian 82(TM) system (copyright 1983,
 Carnegie Mellon University). Gaussian is a federally registered
 trademark of Gaussian, Inc.
  
 This software contains proprietary and confidential information,
 including trade secrets, belonging to Gaussian, Inc.
  
 This software is provided under written license and may be
 used, copied, transmitted, or stored only in accord with that
 written license.
  
 The following legend is applicable only to US Government
 contracts under FAR:
  
                    RESTRICTED RIGHTS LEGEND
  
 Use, reproduction and disclosure by the US Government is
 subject to restrictions as set forth in subparagraphs (a)
 and (c) of the Commercial Computer Software - Restricted
 Rights clause in FAR 52.227-19.
  
 Gaussian, Inc.
 340 Quinnipiac St., Bldg. 40, Wallingford CT 06492
  
  
 ---------------------------------------------------------------
 Warning -- This program may not be used in any manner that
 competes with the business of Gaussian, Inc. or will provide
 assistance to any competitor of Gaussian, Inc.  The licensee
 of this program is prohibited from giving any competitor of
 Gaussian, Inc. access to this program.  By using this program,
 the user acknowledges that Gaussian, Inc. is engaged in the
 business of creating and licensing software in the field of
 computational chemistry and represents and warrants to the
 licensee that it is not a competitor of Gaussian, Inc. and that
 it will not use this program in any manner prohibited above.
 ---------------------------------------------------------------
  

 Cite this work as:
 Gaussian 16, Revision A.03,
 M. J. Frisch, G. W. Trucks, H. B. Schlegel, G. E. Scuseria, 
 M. A. Robb, J. R. Cheeseman, G. Scalmani, V. Barone, 
 G. A. Petersson, H. Nakatsuji, X. Li, M. Caricato, A. V. Marenich, 
 J. Bloino, B. G. Janesko, R. Gomperts, B. Mennucci, H. P. Hratchian, 
 J. V. Ortiz, A. F. Izmaylov, J. L. Sonnenberg, D. Williams-Young, 
 F. Ding, F. Lipparini, F. Egidi, J. Goings, B. Peng, A. Petrone, 
 T. Henderson, D. Ranasinghe, V. G. Zakrzewski, J. Gao, N. Rega, 
 G. Zheng, W. Liang, M. Hada, M. Ehara, K. Toyota, R. Fukuda, 
 J. Hasegawa, M. Ishida, T. Nakajima, Y. Honda, O. Kitao, H. Nakai, 
 T. Vreven, K. Throssell, J. A. Montgomery, Jr., J. E. Peralta, 
 F. Ogliaro, M. J. Bearpark, J. J. Heyd, E. N. Brothers, K. N. Kudin, 
 V. N. Staroverov, T. A. Keith, R. Kobayashi, J. Normand, 
 K. Raghavachari, A. P. Rendell, J. C. Burant, S. S. Iyengar, 
 J. Tomasi, M. Cossi, J. M. Millam, M. Klene, C. Adamo, R. Cammi, 
 J. W. Ochterski, R. L. Martin, K. Morokuma, O. Farkas, 
 J. B. Foresman, and D. J. Fox, Gaussian, Inc., Wallingford CT, 2016.
 
 ******************************************
 Gaussian 16:  ES64L-G16RevA.03 25-Dec-2016
                 7-Oct-2020 
 ******************************************
 %NoSave
 %nproc=12
 Will use up to   12 processors via shared memory.
 %mem=20GB
 %chk=MN_28_clch3clts_BH76_PBE0DBJ_631Gs
 ----------------------------------------------------------------------
 #P Opt(TS,MaxCyc=50,NoEigenTest,MaxStep=10,AddRedundant) PBE1PBE/6-31G
 * 5D 7F Integral=UltraFineGrid SCF=(NoSymm,XQC,MaxCyc=120) EmpiricalDi
 spersion=GD3BJ IOp(1/33=1)
 ----------------------------------------------------------------------
 1/5=1,6=50,8=10,11=1,18=120,26=4,33=1,38=1/1,3;
 2/9=110,12=2,17=6,18=5,40=1/2;
 3/5=1,6=6,7=1,8=11,11=2,25=1,30=1,71=1,74=-13,75=-5,124=41/1,2,3;
 4/9=2/1;
 5/5=2,7=120,8=3,13=1,38=5/2,8;
 6/7=2,8=2,9=2,10=2,28=1/1;
 7//1,2,3,16;
 1/5=1,6=50,8=10,11=1,18=20,26=4,33=1/3(2);
 2/9=110/2;
 99//99;
 2/9=110/2;
 3/5=1,6=6,7=1,8=11,11=2,25=1,30=1,71=1,74=-13,75=-5,124=41/1,2,3;
 4/5=5,9=2,16=3,69=1/1;
 5/5=2,7=120,8=3,13=1,38=5/2,8;
 7//1,2,3,16;
 1/5=1,6=50,8=10,11=1,18=20,26=4,33=1/3(-5);
 2/9=110/2;
 6/7=2,8=2,9=2,10=2,19=2,28=1/1;
 99/9=1/99;
 Leave Link    1 at Wed Oct  7 14:31:06 2020, MaxMem=  2684354560 cpu:               2.6 elap:               0.3
 (Enter /udrive/faculty/rpeverati/g16/g16/l101.exe)
 ONIOM data not found on unit 2.
 ------------------
 TS search on BH76.
 ------------------
 TstMul:  ICh=    -1
 TstMul:  Mul=     1
 TstMul:  ICh=    -1
 TstMul:  Mul=     1
 Symbolic Z-matrix:
 Charge = -1 Multiplicity = 1
 Cl                    0.00003   0.01953   2.3225 
 C                     0.00051   0.00049  -0.00009 
 H                     0.76128  -0.75073   0.00638 
 H                    -1.03045  -0.28272   0.00215 
 H                     0.27073   1.03493  -0.0087 
 Cl                   -0.0003   -0.01978  -2.32246 
 
 RdStrC is calling ZToCFu for IStruc=1 NZ=     6.
 PrtBox:  NBox=     2 Levels=  1 BoxLen=    8.00 SMaxX=        8.78
          Shift=            1.947270            1.418680            4.388810
 Box      1 Number                   0 centers from      1 to      5:
 Box      2 Number                   1 centers from      6 to      6:
 After GenITR:
 ITRead=  0  0  0  0  0  0
 MicOpt= -1 -1 -1 -1 -1 -1
 Add virtual bond connecting atoms Cl6        and C2         Dist= 4.39D+00.
 Add virtual bond connecting atoms C2         and Cl1        Dist= 4.39D+00.
 The following ModRedundant input section has been read:
 
 ITRead=  0  0  0  0  0  0
 MicOpt= -1 -1 -1 -1 -1 -1
 NAtoms=      6 NQM=        6 NQMF=       0 NMMI=      0 NMMIF=      0
                NMic=       0 NMicF=      0.
                    Isotopes and Nuclear Properties:
 (Nuclear quadrupole moments (NQMom) in fm**2, nuclear magnetic moments (NMagM)
  in nuclear magnetons)

  Atom         1           2           3           4           5           6
 IAtWgt=          35          12           1           1           1          35
 AtmWgt=  34.9688527  12.0000000   1.0078250   1.0078250   1.0078250  34.9688527
 NucSpn=           3           0           1           1           1           3
 AtZEff=   0.0000000   0.0000000   0.0000000   0.0000000   0.0000000   0.0000000
 NQMom=   -8.1650000   0.0000000   0.0000000   0.0000000   0.0000000  -8.1650000
 NMagM=    0.8218740   0.0000000   2.7928460   2.7928460   2.7928460   0.8218740
 AtZNuc=  17.0000000   6.0000000   1.0000000   1.0000000   1.0000000  17.0000000
 No MM parameters found.
 Leave Link  101 at Wed Oct  7 14:31:07 2020, MaxMem=  2684354560 cpu:               9.4 elap:               0.9
 (Enter /udrive/faculty/rpeverati/g16/g16/l103.exe)

 GradGradGradGradGradGradGradGradGradGradGradGradGradGradGradGradGradGrad
 Berny optimization.
 Optmz: redundant internal coordinate code flag= 1
 Initialization pass.
                           ----------------------------
                           !    Initial Parameters    !
                           ! (Angstroms and Degrees)  !
 --------------------------                            --------------------------
 ! Name  Definition              Value          Derivative Info.                !
 --------------------------------------------------------------------------------
 ! R1    R(1,2)                  2.3227         estimate D2E/DX2                !
 ! R2    R(2,3)                  1.0692         estimate D2E/DX2                !
 ! R3    R(2,4)                  1.0692         estimate D2E/DX2                !
 ! R4    R(2,5)                  1.0692         estimate D2E/DX2                !
 ! R5    R(2,6)                  2.3225         estimate D2E/DX2                !
 ! A1    A(1,2,3)               89.9921         estimate D2E/DX2                !
 ! A2    A(1,2,4)               89.993          estimate D2E/DX2                !
 ! A3    A(1,2,5)               90.0099         estimate D2E/DX2                !
 ! A4    A(3,2,4)              119.9998         estimate D2E/DX2                !
 ! A5    A(3,2,5)              120.0002         estimate D2E/DX2                !
 ! A6    A(3,2,6)               90.0094         estimate D2E/DX2                !
 ! A7    A(4,2,5)              120.0            estimate D2E/DX2                !
 ! A8    A(4,2,6)               89.9681         estimate D2E/DX2                !
 ! A9    A(5,2,6)               90.0276         estimate D2E/DX2                !
 ! A10   L(1,2,6,3,-1)         180.0014         estimate D2E/DX2                !
 ! A11   L(1,2,6,3,-2)         179.9559         estimate D2E/DX2                !
 ! D1    D(3,2,5,4)           -179.9942         estimate D2E/DX2                !
 ! D2    D(3,2,6,4)            119.9998         estimate D2E/DX2                !
 ! D3    D(3,2,6,5)           -120.0002         estimate D2E/DX2                !
 ! D4    D(4,2,6,5)            120.0            estimate D2E/DX2                !
 --------------------------------------------------------------------------------
 Maximum allowed force set to 1.00D+20.
 Trust Radius=1.00D-01 FncErr=1.00D-07 GrdErr=1.00D-06 EigMax=2.50D+02 EigMin=1.00D-04
 Number of steps in this run=     50 maximum allowed number of steps=    100.
 Search for a saddle point of order  1.
 GradGradGradGradGradGradGradGradGradGradGradGradGradGradGradGradGradGrad

 Leave Link  103 at Wed Oct  7 14:31:07 2020, MaxMem=  2684354560 cpu:               0.9 elap:               0.3
 (Enter /udrive/faculty/rpeverati/g16/g16/l202.exe)
                          Input orientation:                          
 ---------------------------------------------------------------------
 Center     Atomic      Atomic             Coordinates (Angstroms)
 Number     Number       Type             X           Y           Z
 ---------------------------------------------------------------------
      1         17           0        0.000025    0.019526    2.322501
      2          6           0        0.000513    0.000486   -0.000089
      3          1           0        0.761280   -0.750733    0.006377
      4          1           0       -1.030451   -0.282724    0.002147
      5          1           0        0.270728    1.034928   -0.008697
      6         17           0       -0.000297   -0.019784   -2.322458
 ---------------------------------------------------------------------
                    Distance matrix (angstroms):
                    1          2          3          4          5
     1  Cl   0.000000
     2  C    2.322668   0.000000
     3  H    2.556802   1.069176   0.000000
     4  H    2.556810   1.069158   1.851850   0.000000
     5  H    2.557108   1.069187   1.851878   1.851861   0.000000
     6  Cl   4.645125   2.322458   2.556904   2.556197   2.557218
                    6
     6  Cl   0.000000
 This structure is nearly, but not quite of a higher symmetry.
 Consider Symm=Loose if the higher symmetry is desired.
 Stoichiometry    CH3Cl2(1-)
 Framework group  C1[X(CH3Cl2)]
 Deg. of freedom    12
 Full point group                 C1      NOp   1
 Largest Abelian subgroup         C1      NOp   1
 Largest concise Abelian subgroup C1      NOp   1
                         Standard orientation:                         
 ---------------------------------------------------------------------
 Center     Atomic      Atomic             Coordinates (Angstroms)
 Number     Number       Type             X           Y           Z
 ---------------------------------------------------------------------
      1         17           0        2.322582   -0.000129    0.000605
      2          6           0       -0.000085    0.000479   -0.000520
      3          1           0        0.000226   -0.762113   -0.749914
      4          1           0       -0.000525   -0.267219    1.034582
      5          1           0        0.000138    1.030780   -0.286246
      6         17           0       -2.322543   -0.000126   -0.000329
 ---------------------------------------------------------------------
 Rotational constants (GHZ):         146.2220977           1.3334790           1.3334788
 Leave Link  202 at Wed Oct  7 14:31:08 2020, MaxMem=  2684354560 cpu:               0.6 elap:               0.3
 (Enter /udrive/faculty/rpeverati/g16/g16/l301.exe)
 Standard basis: 6-31G(d) (5D, 7F)
 Ernie: Thresh=  0.10000D-02 Tol=  0.10000D-05 Strict=F.
 There are    59 symmetry adapted cartesian basis functions of A   symmetry.
 There are    56 symmetry adapted basis functions of A   symmetry.
    56 basis functions,   144 primitive gaussians,    59 cartesian basis functions
    22 alpha electrons       22 beta electrons
       nuclear repulsion energy       110.2795721056 Hartrees.
 IExCor= 1009 DFT=T Ex+Corr=PBE1PBE ExCW=0 ScaHFX=  0.250000
 ScaDFX=  0.750000  0.750000  1.000000  1.000000 ScalE2=  1.000000  1.000000
 IRadAn=      5 IRanWt=     -1 IRanGd=            0 ICorTp=0 IEmpDi=141
 NAtoms=    6 NActive=    6 NUniq=    6 SFac= 1.00D+00 NAtFMM=   60 NAOKFM=F Big=F
 Integral buffers will be    131072 words long.
 Raffenetti 2 integral format.
 Two-electron integral symmetry is turned on.
 R6Disp:  Grimme-D3(BJ) Dispersion energy=       -0.0032033554 Hartrees.
 Nuclear repulsion after empirical dispersion term =      110.2763687502 Hartrees.
 Leave Link  301 at Wed Oct  7 14:31:08 2020, MaxMem=  2684354560 cpu:               1.4 elap:               0.4
 (Enter /udrive/faculty/rpeverati/g16/g16/l302.exe)
 NPDir=0 NMtPBC=     1 NCelOv=     1 NCel=       1 NClECP=     1 NCelD=      1
         NCelK=      1 NCelE2=     1 NClLst=     1 CellRange=     0.0.
 One-electron integrals computed using PRISM.
 One-electron integral symmetry used in STVInt
 NBasis=    56 RedAO= T EigKep=  2.37D-02  NBF=    56
 NBsUse=    56 1.00D-06 EigRej= -1.00D+00 NBFU=    56
 Precomputing XC quadrature grid using
 IXCGrd= 4 IRadAn=           5 IRanWt=          -1 IRanGd=           0 AccXCQ= 0.00D+00.
 Generated NRdTot=       0 NPtTot=           0 NUsed=           0 NTot=          32
 NSgBfM=    59    59    59    59    59 MxSgAt=     6 MxSgA2=     6.
 Leave Link  302 at Wed Oct  7 14:31:09 2020, MaxMem=  2684354560 cpu:               4.1 elap:               0.6
 (Enter /udrive/faculty/rpeverati/g16/g16/l303.exe)
 DipDrv:  MaxL=1.
 Leave Link  303 at Wed Oct  7 14:31:10 2020, MaxMem=  2684354560 cpu:               1.5 elap:               0.4
 (Enter /udrive/faculty/rpeverati/g16/g16/l401.exe)
 SCF N**3 symmetry information disabled.
 ExpMin= 1.43D-01 ExpMax= 2.52D+04 ExpMxC= 3.78D+03 IAcc=3 IRadAn=         5 AccDes= 0.00D+00
 Harris functional with IExCor= 1009 and IRadAn=       5 diagonalized for initial guess.
 HarFok:  IExCor= 1009 AccDes= 0.00D+00 IRadAn=         5 IDoV= 1 UseB2=F ITyADJ=14
 ICtDFT=  3500011 ScaDFX=  1.000000  1.000000  1.000000  1.000000
 FoFCou: FMM=F IPFlag=           0 FMFlag=      100000 FMFlg1=           0
         NFxFlg=           0 DoJE=T BraDBF=F KetDBF=T FulRan=T
         wScrn=  0.000000 ICntrl=       500 IOpCl=  0 I1Cent=   200000004 NGrid=           0
         NMat0=    1 NMatS0=      1 NMatT0=    0 NMatD0=    1 NMtDS0=    0 NMtDT0=    0
 Petite list used in FoFCou.
 Harris En= -959.875147938950    
 JPrj=0 DoOrth=F DoCkMO=F.
 Leave Link  401 at Wed Oct  7 14:31:11 2020, MaxMem=  2684354560 cpu:               6.8 elap:               0.9
 (Enter /udrive/faculty/rpeverati/g16/g16/l502.exe)
 Keep R1 ints in memory in canonical form, NReq=11831782.
 FoFCou: FMM=F IPFlag=           0 FMFlag=           0 FMFlg1=           0
         NFxFlg=           0 DoJE=F BraDBF=F KetDBF=F FulRan=T
         wScrn=  0.000000 ICntrl=       600 IOpCl=  0 I1Cent=           0 NGrid=           0
         NMat0=    1 NMatS0=   1596 NMatT0=    0 NMatD0=    1 NMtDS0=    0 NMtDT0=    0
 Symmetry not used in FoFCou.
 Two-electron integral symmetry not used.
 Closed shell SCF:
 Using DIIS extrapolation, IDIIS=  1040.
 NGot=  2684354560 LenX=  2683071684 LenY=  2683067762
 Requested convergence on RMS density matrix=1.00D-08 within 120 cycles.
 Requested convergence on MAX density matrix=1.00D-06.
 Requested convergence on             energy=1.00D-06.
 No special actions if energy rises.
 Integral accuracy reduced to 1.0D-05 until final iterations.

 Cycle   1  Pass 0  IDiag  1:
 E= -959.927388503515    
 DIIS: error= 4.05D-02 at cycle   1 NSaved=   1.
 NSaved= 1 IEnMin= 1 EnMin= -959.927388503515     IErMin= 1 ErrMin= 4.05D-02
 ErrMax= 4.05D-02  0.00D+00 EMaxC= 1.00D-01 BMatC= 4.07D-02 BMatP= 4.07D-02
 IDIUse=3 WtCom= 5.95D-01 WtEn= 4.05D-01
 Coeff-Com:  0.100D+01
 Coeff-En:   0.100D+01
 Coeff:      0.100D+01
 Gap=     0.288 Goal=   None    Shift=    0.000
 GapD=    0.288 DampG=1.000 DampE=0.500 DampFc=0.5000 IDamp=-1.
 Damping current iteration by 5.00D-01
 RMSDP=7.23D-03 MaxDP=9.93D-02              OVMax= 2.14D-01

 Cycle   2  Pass 0  IDiag  1:
 E= -959.948817808068     Delta-E=       -0.021429304553 Rises=F Damp=T
 DIIS: error= 7.37D-03 at cycle   2 NSaved=   2.
 NSaved= 2 IEnMin= 2 EnMin= -959.948817808068     IErMin= 2 ErrMin= 7.37D-03
 ErrMax= 7.37D-03  0.00D+00 EMaxC= 1.00D-01 BMatC= 3.97D-03 BMatP= 4.07D-02
 IDIUse=3 WtCom= 9.26D-01 WtEn= 7.37D-02
 Coeff-Com:  0.654D-01 0.935D+00
 Coeff-En:   0.986D-01 0.901D+00
 Coeff:      0.678D-01 0.932D+00
 Gap=     0.228 Goal=   None    Shift=    0.000
 RMSDP=1.65D-03 MaxDP=2.38D-02 DE=-2.14D-02 OVMax= 1.20D-01

 Cycle   3  Pass 0  IDiag  1:
 E= -959.973789422725     Delta-E=       -0.024971614657 Rises=F Damp=F
 DIIS: error= 2.77D-03 at cycle   3 NSaved=   3.
 NSaved= 3 IEnMin= 3 EnMin= -959.973789422725     IErMin= 3 ErrMin= 2.77D-03
 ErrMax= 2.77D-03  0.00D+00 EMaxC= 1.00D-01 BMatC= 7.22D-04 BMatP= 3.97D-03
 IDIUse=3 WtCom= 9.72D-01 WtEn= 2.77D-02
 Coeff-Com: -0.285D-01 0.252D+00 0.777D+00
 Coeff-En:   0.000D+00 0.000D+00 0.100D+01
 Coeff:     -0.277D-01 0.245D+00 0.783D+00
 Gap=     0.236 Goal=   None    Shift=    0.000
 RMSDP=9.29D-04 MaxDP=1.47D-02 DE=-2.50D-02 OVMax= 2.31D-02

 Cycle   4  Pass 0  IDiag  1:
 E= -959.974512550348     Delta-E=       -0.000723127623 Rises=F Damp=F
 DIIS: error= 1.36D-03 at cycle   4 NSaved=   4.
 NSaved= 4 IEnMin= 4 EnMin= -959.974512550348     IErMin= 4 ErrMin= 1.36D-03
 ErrMax= 1.36D-03  0.00D+00 EMaxC= 1.00D-01 BMatC= 1.74D-04 BMatP= 7.22D-04
 IDIUse=3 WtCom= 9.86D-01 WtEn= 1.36D-02
 Coeff-Com: -0.251D-02 0.151D-01 0.338D+00 0.649D+00
 Coeff-En:   0.000D+00 0.000D+00 0.164D+00 0.836D+00
 Coeff:     -0.247D-02 0.149D-01 0.336D+00 0.652D+00
 Gap=     0.234 Goal=   None    Shift=    0.000
 RMSDP=3.22D-04 MaxDP=4.79D-03 DE=-7.23D-04 OVMax= 6.33D-03

 Cycle   5  Pass 0  IDiag  1:
 E= -959.974729884838     Delta-E=       -0.000217334491 Rises=F Damp=F
 DIIS: error= 1.20D-04 at cycle   5 NSaved=   5.
 NSaved= 5 IEnMin= 5 EnMin= -959.974729884838     IErMin= 5 ErrMin= 1.20D-04
 ErrMax= 1.20D-04  0.00D+00 EMaxC= 1.00D-01 BMatC= 6.38D-07 BMatP= 1.74D-04
 IDIUse=3 WtCom= 9.99D-01 WtEn= 1.20D-03
 Coeff-Com:  0.258D-03-0.123D-02 0.702D-01 0.143D+00 0.787D+00
 Coeff-En:   0.000D+00 0.000D+00 0.000D+00 0.000D+00 0.100D+01
 Coeff:      0.258D-03-0.123D-02 0.702D-01 0.143D+00 0.788D+00
 Gap=     0.234 Goal=   None    Shift=    0.000
 RMSDP=1.91D-05 MaxDP=2.36D-04 DE=-2.17D-04 OVMax= 2.39D-04

 Cycle   6  Pass 0  IDiag  1:
 E= -959.974730545607     Delta-E=       -0.000000660769 Rises=F Damp=F
 DIIS: error= 2.98D-05 at cycle   6 NSaved=   6.
 NSaved= 6 IEnMin= 6 EnMin= -959.974730545607     IErMin= 6 ErrMin= 2.98D-05
 ErrMax= 2.98D-05  0.00D+00 EMaxC= 1.00D-01 BMatC= 5.67D-08 BMatP= 6.38D-07
 IDIUse=1 WtCom= 1.00D+00 WtEn= 0.00D+00
 Coeff-Com:  0.498D-03-0.169D-02-0.109D-01-0.261D-01 0.160D+00 0.878D+00
 Coeff:      0.498D-03-0.169D-02-0.109D-01-0.261D-01 0.160D+00 0.878D+00
 Gap=     0.234 Goal=   None    Shift=    0.000
 RMSDP=5.69D-06 MaxDP=7.33D-05 DE=-6.61D-07 OVMax= 5.20D-05

 Initial convergence to 1.0D-05 achieved.  Increase integral accuracy.
 Cycle   7  Pass 1  IDiag  1:
 E= -959.974701001089     Delta-E=        0.000029544519 Rises=F Damp=F
 DIIS: error= 5.81D-06 at cycle   1 NSaved=   1.
 NSaved= 1 IEnMin= 1 EnMin= -959.974701001089     IErMin= 1 ErrMin= 5.81D-06
 ErrMax= 5.81D-06  0.00D+00 EMaxC= 1.00D-01 BMatC= 1.57D-09 BMatP= 1.57D-09
 IDIUse=1 WtCom= 1.00D+00 WtEn= 0.00D+00
 Coeff-Com:  0.100D+01
 Coeff:      0.100D+01
 Gap=     0.234 Goal=   None    Shift=    0.000
 RMSDP=5.69D-06 MaxDP=7.33D-05 DE= 2.95D-05 OVMax= 2.59D-05

 Cycle   8  Pass 1  IDiag  1:
 E= -959.974701002704     Delta-E=       -0.000000001615 Rises=F Damp=F
 DIIS: error= 4.60D-06 at cycle   2 NSaved=   2.
 NSaved= 2 IEnMin= 2 EnMin= -959.974701002704     IErMin= 2 ErrMin= 4.60D-06
 ErrMax= 4.60D-06  0.00D+00 EMaxC= 1.00D-01 BMatC= 8.09D-10 BMatP= 1.57D-09
 IDIUse=1 WtCom= 1.00D+00 WtEn= 0.00D+00
 Coeff-Com:  0.394D+00 0.606D+00
 Coeff:      0.394D+00 0.606D+00
 Gap=     0.234 Goal=   None    Shift=    0.000
 RMSDP=7.23D-07 MaxDP=1.10D-05 DE=-1.62D-09 OVMax= 2.43D-05

 Cycle   9  Pass 1  IDiag  1:
 E= -959.974701003461     Delta-E=       -0.000000000758 Rises=F Damp=F
 DIIS: error= 2.53D-06 at cycle   3 NSaved=   3.
 NSaved= 3 IEnMin= 3 EnMin= -959.974701003461     IErMin= 3 ErrMin= 2.53D-06
 ErrMax= 2.53D-06  0.00D+00 EMaxC= 1.00D-01 BMatC= 1.86D-10 BMatP= 8.09D-10
 IDIUse=1 WtCom= 1.00D+00 WtEn= 0.00D+00
 Coeff-Com:  0.361D-01 0.322D+00 0.642D+00
 Coeff:      0.361D-01 0.322D+00 0.642D+00
 Gap=     0.234 Goal=   None    Shift=    0.000
 RMSDP=2.51D-07 MaxDP=3.49D-06 DE=-7.58D-10 OVMax= 7.99D-06

 Cycle  10  Pass 1  IDiag  1:
 E= -959.974701003676     Delta-E=       -0.000000000215 Rises=F Damp=F
 DIIS: error= 2.76D-07 at cycle   4 NSaved=   4.
 NSaved= 4 IEnMin= 4 EnMin= -959.974701003676     IErMin= 4 ErrMin= 2.76D-07
 ErrMax= 2.76D-07  0.00D+00 EMaxC= 1.00D-01 BMatC= 3.90D-12 BMatP= 1.86D-10
 IDIUse=1 WtCom= 1.00D+00 WtEn= 0.00D+00
 Coeff-Com: -0.138D-01 0.686D-01 0.206D+00 0.739D+00
 Coeff:     -0.138D-01 0.686D-01 0.206D+00 0.739D+00
 Gap=     0.234 Goal=   None    Shift=    0.000
 RMSDP=3.49D-08 MaxDP=3.78D-07 DE=-2.15D-10 OVMax= 7.90D-07

 Cycle  11  Pass 1  IDiag  1:
 E= -959.974701003677     Delta-E=       -0.000000000001 Rises=F Damp=F
 DIIS: error= 3.07D-08 at cycle   5 NSaved=   5.
 NSaved= 5 IEnMin= 5 EnMin= -959.974701003677     IErMin= 5 ErrMin= 3.07D-08
 ErrMax= 3.07D-08  0.00D+00 EMaxC= 1.00D-01 BMatC= 4.58D-14 BMatP= 3.90D-12
 IDIUse=1 WtCom= 1.00D+00 WtEn= 0.00D+00
 Coeff-Com: -0.309D-02 0.109D-01 0.299D-01 0.163D+00 0.799D+00
 Coeff:     -0.309D-02 0.109D-01 0.299D-01 0.163D+00 0.799D+00
 Gap=     0.234 Goal=   None    Shift=    0.000
 RMSDP=6.95D-09 MaxDP=1.13D-07 DE=-1.14D-12 OVMax= 1.76D-07

 SCF Done:  E(RPBE1PBE) =  -959.974701004     A.U. after   11 cycles
            NFock= 11  Conv=0.70D-08     -V/T= 2.0016
 KE= 9.584023859014D+02 PE=-2.512027042343D+03 EE= 4.833735866875D+02
 Leave Link  502 at Wed Oct  7 14:31:14 2020, MaxMem=  2684354560 cpu:              24.8 elap:               2.6
 (Enter /udrive/faculty/rpeverati/g16/g16/l508.exe)
 QCSCF skips out because SCF is already converged.
 Leave Link  508 at Wed Oct  7 14:31:14 2020, MaxMem=  2684354560 cpu:               0.3 elap:               0.4
 (Enter /udrive/faculty/rpeverati/g16/g16/l601.exe)
 Copying SCF densities to generalized density rwf, IOpCl= 0 IROHF=0.

 **********************************************************************

            Population analysis using the SCF density.

 **********************************************************************

 Orbital symmetries:
       Occupied  (A) (A) (A) (A) (A) (A) (A) (A) (A) (A) (A) (A)
                 (A) (A) (A) (A) (A) (A) (A) (A) (A) (A)
       Virtual   (A) (A) (A) (A) (A) (A) (A) (A) (A) (A) (A) (A)
                 (A) (A) (A) (A) (A) (A) (A) (A) (A) (A) (A) (A)
                 (A) (A) (A) (A) (A) (A) (A) (A) (A) (A)
 The electronic state is 1-A.
 Alpha  occ. eigenvalues -- -101.45262-101.45259 -10.13053  -9.27993  -9.27989
 Alpha  occ. eigenvalues --   -7.01186  -7.01182  -7.00771  -7.00771  -7.00767
 Alpha  occ. eigenvalues --   -7.00767  -0.61280  -0.57741  -0.52272  -0.30136
 Alpha  occ. eigenvalues --   -0.30136  -0.17540  -0.10466  -0.10466  -0.09659
 Alpha  occ. eigenvalues --   -0.09658  -0.08460
 Alpha virt. eigenvalues --    0.14928   0.26904   0.33580   0.33583   0.59296
 Alpha virt. eigenvalues --    0.59812   0.65498   0.65502   0.66226   0.66227
 Alpha virt. eigenvalues --    0.69953   0.74187   0.74193   0.76772   0.91573
 Alpha virt. eigenvalues --    0.94358   1.07153   1.07153   1.11399   1.11399
 Alpha virt. eigenvalues --    1.12639   1.12640   1.14318   1.14319   1.15616
 Alpha virt. eigenvalues --    1.16777   1.16778   1.45763   1.52005   1.82870
 Alpha virt. eigenvalues --    1.82870   2.19378   2.38412   2.38415
          Condensed to atoms (all electrons):
               1          2          3          4          5          6
     1  Cl  17.648031   0.064750  -0.028504  -0.028516  -0.028476   0.007864
     2  C    0.064750   5.161340   0.390933   0.390968   0.390903   0.064772
     3  H   -0.028504   0.390933   0.462884  -0.020698  -0.020716  -0.028505
     4  H   -0.028516   0.390968  -0.020698   0.462841  -0.020706  -0.028554
     5  H   -0.028476   0.390903  -0.020716  -0.020706   0.462922  -0.028478
     6  Cl   0.007864   0.064772  -0.028505  -0.028554  -0.028478  17.647908
 Mulliken charges:
               1
     1  Cl  -0.635149
     2  C   -0.463666
     3  H    0.244605
     4  H    0.244665
     5  H    0.244553
     6  Cl  -0.635007
 Sum of Mulliken charges =  -1.00000
 Mulliken charges with hydrogens summed into heavy atoms:
               1
     1  Cl  -0.635149
     2  C    0.270156
     6  Cl  -0.635007
 Electronic spatial extent (au):  <R**2>=            773.1984
 Charge=             -1.0000 electrons
 Dipole moment (field-independent basis, Debye):
    X=             -0.0016    Y=              0.0013    Z=             -0.0015  Tot=              0.0025
 Quadrupole moment (field-independent basis, Debye-Ang):
   XX=            -71.6804   YY=            -35.4445   ZZ=            -35.4443
   XY=              0.0002   XZ=             -0.0079   YZ=             -0.0000
 Traceless Quadrupole moment (field-independent basis, Debye-Ang):
   XX=            -24.1573   YY=             12.0786   ZZ=             12.0787
   XY=              0.0002   XZ=             -0.0079   YZ=             -0.0000
 Octapole moment (field-independent basis, Debye-Ang**2):
  XXX=             -0.0124  YYY=              0.7234  ZZZ=              0.7582  XYY=             -0.0005
  XXY=              0.0017  XXZ=             -0.0019  XZZ=             -0.0014  YZZ=             -0.7208
  YYZ=             -0.7610  XYZ=              0.0003
 Hexadecapole moment (field-independent basis, Debye-Ang**3):
 XXXX=          -1144.3855 YYYY=            -46.8984 ZZZZ=            -46.9004 XXXY=              0.0007
 XXXZ=             -0.1260 YYYX=              0.0002 YYYZ=             -0.0014 ZZZX=             -0.0957
 ZZZY=              0.0014 XXYY=           -174.2857 XXZZ=           -174.2857 YYZZ=            -15.6330
 XXYZ=             -0.0000 YYXZ=             -0.0318 ZZXY=              0.0001
 N-N= 1.102763687502D+02 E-N=-2.512027042471D+03  KE= 9.584023859014D+02
 No NMR shielding tensors so no spin-rotation constants.
 Leave Link  601 at Wed Oct  7 14:31:15 2020, MaxMem=  2684354560 cpu:               3.9 elap:               0.7
 (Enter /udrive/faculty/rpeverati/g16/g16/l701.exe)
 ... and contract with generalized density number  0.
 Compute integral first derivatives.
 R6Disp: Adding Grimme-D3(BJ) dispersion energy 1st derivatives to the gradient.
 Leave Link  701 at Wed Oct  7 14:31:16 2020, MaxMem=  2684354560 cpu:               3.8 elap:               0.7
 (Enter /udrive/faculty/rpeverati/g16/g16/l702.exe)
 L702 exits ... SP integral derivatives will be done elsewhere.
 Leave Link  702 at Wed Oct  7 14:31:17 2020, MaxMem=  2684354560 cpu:               1.3 elap:               0.5
 (Enter /udrive/faculty/rpeverati/g16/g16/l703.exe)
 Integral derivatives from FoFJK, PRISM(SPDF).
 Compute integral first derivatives, UseDBF=F ICtDFT=           0.
 Calling FoFJK, ICntrl=      2127 FMM=F ISym2X=0 I1Cent= 0 IOpClX= 0 NMat=1 NMatS=1 NMatT=0.
 FoFJK:  IHMeth= 1 ICntrl=    2127 DoSepK=F KAlg= 0 I1Cent=           0 FoldK=F
 IRaf=         0 NMat=       1 IRICut=       1 DoRegI=T DoRafI=F ISym2E= 0 IDoP0=0 IntGTp=1.
 FoFCou: FMM=F IPFlag=           0 FMFlag=      100000 FMFlg1=         800
         NFxFlg=           0 DoJE=F BraDBF=F KetDBF=F FulRan=T
         wScrn=  0.000000 ICntrl=      2127 IOpCl=  0 I1Cent=           0 NGrid=           0
         NMat0=    1 NMatS0=      1 NMatT0=    0 NMatD0=    1 NMtDS0=    0 NMtDT0=    0
 Symmetry not used in FoFCou.
 Leave Link  703 at Wed Oct  7 14:31:19 2020, MaxMem=  2684354560 cpu:              12.0 elap:               1.4
 (Enter /udrive/faculty/rpeverati/g16/g16/l716.exe)
 Dipole        =-6.10971724D-04 5.27649593D-04-5.74654536D-04
 ***** Axes restored to original set *****
 -------------------------------------------------------------------
 Center     Atomic                   Forces (Hartrees/Bohr)
 Number     Number              X              Y              Z
 -------------------------------------------------------------------
      1       17           0.000006925    0.000005780   -0.000523589
      2        6          -0.000019847   -0.000022722   -0.000012750
      3        1           0.003341054   -0.003298274    0.000024083
      4        1          -0.004534445   -0.001245624    0.000032188
      5        1           0.001187446    0.004542847   -0.000042377
      6       17           0.000018867    0.000017994    0.000522445
 -------------------------------------------------------------------
 Cartesian Forces:  Max     0.004542847 RMS     0.001925759
 Leave Link  716 at Wed Oct  7 14:31:19 2020, MaxMem=  2684354560 cpu:               1.5 elap:               0.5
 (Enter /udrive/faculty/rpeverati/g16/g16/l103.exe)

 GradGradGradGradGradGradGradGradGradGradGradGradGradGradGradGradGradGrad
 Berny optimization.
 Optmz: redundant internal coordinate code flag= 1
 FormGI is forming the generalized inverse of G from B-inverse, IUseBI=4.
 Internal  Forces:  Max     0.004702479 RMS     0.001826963
 Search for a saddle point.
 Step number   1 out of a maximum of   50
 All quantities printed in internal units (Hartrees-Bohrs-Radians)
 Swapping is turned off.
 Second derivative matrix not updated -- first step.
 The second derivative matrix:
                          R1        R2        R3        R4        R5
           R1           0.07357
           R2           0.00000   0.37334
           R3           0.00000   0.00000   0.37337
           R4           0.00000   0.00000   0.00000   0.37333
           R5           0.00000   0.00000   0.00000   0.00000   0.07360
           A1           0.00000   0.00000   0.00000   0.00000   0.00000
           A2           0.00000   0.00000   0.00000   0.00000   0.00000
           A3           0.00000   0.00000   0.00000   0.00000   0.00000
           A4           0.00000   0.00000   0.00000   0.00000   0.00000
           A5           0.00000   0.00000   0.00000   0.00000   0.00000
           A6           0.00000   0.00000   0.00000   0.00000   0.00000
           A7           0.00000   0.00000   0.00000   0.00000   0.00000
           A8           0.00000   0.00000   0.00000   0.00000   0.00000
           A9           0.00000   0.00000   0.00000   0.00000   0.00000
           A10          0.00000   0.00000   0.00000   0.00000   0.00000
           A11          0.00000   0.00000   0.00000   0.00000   0.00000
           D1           0.00000   0.00000   0.00000   0.00000   0.00000
           D2           0.00000   0.00000   0.00000   0.00000   0.00000
           D3           0.00000   0.00000   0.00000   0.00000   0.00000
           D4           0.00000   0.00000   0.00000   0.00000   0.00000
                          A1        A2        A3        A4        A5
           A1           0.16000
           A2           0.00000   0.16000
           A3           0.00000   0.00000   0.16000
           A4           0.00000   0.00000   0.00000   0.16000
           A5           0.00000   0.00000   0.00000   0.00000   0.16000
           A6           0.00000   0.00000   0.00000   0.00000   0.00000
           A7           0.00000   0.00000   0.00000   0.00000   0.00000
           A8           0.00000   0.00000   0.00000   0.00000   0.00000
           A9           0.00000   0.00000   0.00000   0.00000   0.00000
           A10          0.00000   0.00000   0.00000   0.00000   0.00000
           A11          0.00000   0.00000   0.00000   0.00000   0.00000
           D1           0.00000   0.00000   0.00000   0.00000   0.00000
           D2           0.00000   0.00000   0.00000   0.00000   0.00000
           D3           0.00000   0.00000   0.00000   0.00000   0.00000
           D4           0.00000   0.00000   0.00000   0.00000   0.00000
                          A6        A7        A8        A9        A10
           A6           0.16000
           A7           0.00000   0.16000
           A8           0.00000   0.00000   0.16000
           A9           0.00000   0.00000   0.00000   0.16000
           A10          0.00000   0.00000   0.00000   0.00000   0.00230
           A11          0.00000   0.00000   0.00000   0.00000   0.00000
           D1           0.00000   0.00000   0.00000   0.00000   0.00000
           D2           0.00000   0.00000   0.00000   0.00000   0.00000
           D3           0.00000   0.00000   0.00000   0.00000   0.00000
           D4           0.00000   0.00000   0.00000   0.00000   0.00000
                          A11       D1        D2        D3        D4
           A11          0.00230
           D1           0.00000   0.00510
           D2           0.00000   0.00000   0.00230
           D3           0.00000   0.00000   0.00000   0.00230
           D4           0.00000   0.00000   0.00000   0.00000   0.00230
 ITU=  0
 Eigenvectors of the second derivative matrix:
                           1         2         3         4         5
     Eigenvalues --     0.05673   0.06989   0.06989   0.07357   0.07360
   1         R1         0.00000   0.00000   0.00000   1.00000  -0.00000
   2         R2         0.00000  -0.00000  -0.00000   0.00000   0.00000
   3         R3        -0.00000   0.00000   0.00000  -0.00000   0.00000
   4         R4         0.00000  -0.00000  -0.00000   0.00000  -0.00000
   5         R5         0.00000   0.00000   0.00000   0.00000   1.00000
   6         A1         0.23570   0.26552   0.26899  -0.00000  -0.00000
   7         A2         0.23570  -0.36571   0.09545   0.00000  -0.00000
   8         A3         0.23570   0.10019  -0.36444   0.00000   0.00000
   9         A4         0.00034   0.00001  -0.00038   0.00000   0.00000
  10         A5        -0.00040   0.00059  -0.00033   0.00000   0.00000
  11         A6        -0.23570   0.26552   0.26899  -0.00000  -0.00000
  12         A7         0.00014  -0.00060   0.00071  -0.00000  -0.00000
  13         A8        -0.23570  -0.36571   0.09545   0.00000   0.00000
  14         A9        -0.23570   0.10019  -0.36444   0.00000   0.00000
  15         A10       -0.00000   0.53104   0.53798  -0.00000  -0.00000
  16         A11        0.00000  -0.53798   0.53104  -0.00000   0.00000
  17         D1        -0.81650  -0.00000   0.00000   0.00000   0.00000
  18         D2         0.00050  -0.00009  -0.00054   0.00000   0.00000
  19         D3         0.00066  -0.00081   0.00033  -0.00000  -0.00000
  20         D4         0.00017  -0.00072   0.00087  -0.00000  -0.00000
                           6         7         8         9        10
     Eigenvalues --     0.08115   0.08115   0.16000   0.16000   0.37333
   1         R1         0.00000   0.00000  -0.00000   0.00000  -0.00000
   2         R2         0.00000  -0.00000  -0.00000   0.00000  -0.00000
   3         R3         0.00000   0.00000  -0.00000  -0.00000  -0.00000
   4         R4        -0.00000  -0.00000   0.00000   0.00000  -1.00000
   5         R5         0.00000   0.00000   0.00000  -0.00000   0.00000
   6         A1        -0.00021   0.00000  -0.44203  -0.37141  -0.00000
   7         A2        -0.00015  -0.00093   0.54266  -0.19710   0.00000
   8         A3         0.00063   0.00039  -0.10064   0.56851   0.00000
   9         A4        -0.55770   0.14936   0.00017   0.00023   0.00000
  10         A5         0.14950  -0.55766  -0.00033   0.00002   0.00000
  11         A6        -0.00024   0.00027   0.44203   0.37141  -0.00000
  12         A7         0.40820   0.40830   0.00016  -0.00025  -0.00000
  13         A8        -0.00041  -0.00014  -0.54266   0.19710   0.00000
  14         A9         0.00012   0.00069   0.10064  -0.56851   0.00000
  15         A10       -0.00045   0.00027   0.00000  -0.00000  -0.00000
  16         A11       -0.00068  -0.00114  -0.00000   0.00000  -0.00000
  17         D1        -0.00038   0.00064  -0.00000  -0.00000  -0.00000
  18         D2        -0.55770   0.14936   0.00000   0.00000   0.00000
  19         D3        -0.14950   0.55766  -0.00000   0.00000  -0.00000
  20         D4         0.40820   0.40830  -0.00000   0.00000  -0.00000
                          11        12
     Eigenvalues --     0.37334   0.37337
   1         R1        -0.00000   0.00000
   2         R2         1.00000   0.00000
   3         R3        -0.00000   1.00000
   4         R4        -0.00000  -0.00000
   5         R5        -0.00000  -0.00000
   6         A1         0.00000  -0.00000
   7         A2         0.00000   0.00000
   8         A3        -0.00000   0.00000
   9         A4         0.00000   0.00000
  10         A5         0.00000   0.00000
  11         A6         0.00000  -0.00000
  12         A7        -0.00000  -0.00000
  13         A8        -0.00000   0.00000
  14         A9         0.00000   0.00000
  15         A10        0.00000  -0.00000
  16         A11       -0.00000  -0.00000
  17         D1         0.00000  -0.00000
  18         D2         0.00000   0.00000
  19         D3        -0.00000  -0.00000
  20         D4        -0.00000  -0.00000
 Eigenvalue     1 is   5.67D-02 should be less than     0.000000 Eigenvector:
                          D1        A9        A3        A6        A2
   1                   -0.81650  -0.23570   0.23570  -0.23570   0.23570
                          A1        A8        D3        D2        A5
   1                    0.23570  -0.23570   0.00066   0.00050  -0.00040
 RLam0= 5.67D-02.
 Iter=   1 RLamda= 0.00000000D+00 Sum=-1.84816480D-04.
 Iter=   2 RLamda=-1.84816480D-04 Sum=-1.84709978D-04.
 Iter=   3 RLamda=-1.84709978D-04 Sum=-1.84710040D-04.
 RFO step:  Lambda0=5.673418267D-02 Lambda=-1.84709978D-04.
 Linear search not attempted -- option 19 set.
 Iteration  1 RMS(Cart)=  0.00621801 RMS(Int)=  0.00004148
 Iteration  2 RMS(Cart)=  0.00002319 RMS(Int)=  0.00002147
 Iteration  3 RMS(Cart)=  0.00000000 RMS(Int)=  0.00002147
 ITry= 1 IFail=0 DXMaxC= 1.28D-02 DCOld= 1.00D+10 DXMaxT= 1.00D-01 DXLimC= 3.00D+00 Rises=F
 Variable       Old X    -DE/DX   Delta X   Delta X   Delta X     New X
                                 (Linear)    (Quad)   (Total)
    R1        4.38921  -0.00052   0.00000  -0.00710  -0.00710   4.38211
    R2        2.02045   0.00469   0.00000   0.01257   0.01257   2.03302
    R3        2.02042   0.00470   0.00000   0.01259   0.01259   2.03300
    R4        2.02047   0.00470   0.00000   0.01257   0.01257   2.03304
    R5        4.38881  -0.00052   0.00000  -0.00708  -0.00708   4.38173
    A1        1.57066   0.00001   0.00000   0.00570   0.00570   1.57635
    A2        1.57067  -0.00000   0.00000   0.00582   0.00582   1.57649
    A3        1.57097  -0.00001   0.00000   0.00545   0.00545   1.57642
    A4        2.09439   0.00000   0.00000   0.00001  -0.00004   2.09435
    A5        2.09440  -0.00000   0.00000  -0.00002  -0.00007   2.09433
    A6        1.57096  -0.00001   0.00000  -0.00573  -0.00573   1.56523
    A7        2.09440   0.00000   0.00000   0.00001  -0.00005   2.09435
    A8        1.57024   0.00004   0.00000  -0.00527  -0.00527   1.56497
    A9        1.57128  -0.00003   0.00000  -0.00597  -0.00597   1.56530
   A10        3.14162  -0.00000   0.00000  -0.00003  -0.00003   3.14159
   A11        3.14082   0.00004   0.00000   0.00062   0.00062   3.14144
    D1       -3.14149   0.00001   0.00000  -0.01959  -0.01959   3.12210
    D2        2.09439   0.00000   0.00000   0.00001   0.00001   2.09440
    D3       -2.09440   0.00000   0.00000   0.00002   0.00002  -2.09438
    D4        2.09440   0.00000   0.00000   0.00001   0.00001   2.09440
         Item               Value     Threshold  Converged?
 Maximum Force            0.004702     0.000450     NO 
 RMS     Force            0.001827     0.000300     NO 
 Maximum Displacement     0.012828     0.001800     NO 
 RMS     Displacement     0.006218     0.001200     NO 
 Predicted change in Energy=-7.592090D-05
 Lowest energy point so far.  Saving SCF results.
 Largest change from initial coordinates is atom    4       0.007 Angstoms.
 GradGradGradGradGradGradGradGradGradGradGradGradGradGradGradGradGradGrad

 Leave Link  103 at Wed Oct  7 14:31:20 2020, MaxMem=  2684354560 cpu:               3.0 elap:               0.6
 (Enter /udrive/faculty/rpeverati/g16/g16/l202.exe)
                          Input orientation:                          
 ---------------------------------------------------------------------
 Center     Atomic      Atomic             Coordinates (Angstroms)
 Number     Number       Type             X           Y           Z
 ---------------------------------------------------------------------
      1         17           0        0.000342    0.019834    2.321785
      2          6           0        0.000335    0.000348    0.002956
      3          1           0        0.765830   -0.755577    0.003326
      4          1           0       -1.037036   -0.284671   -0.000775
      5          1           0        0.272236    1.041156   -0.011843
      6         17           0        0.000091   -0.019391   -2.315670
 ---------------------------------------------------------------------
                    Distance matrix (angstroms):
                    1          2          3          4          5
     1  Cl   0.000000
     2  C    2.318911   0.000000
     3  H    2.561735   1.075827   0.000000
     4  H    2.561866   1.075820   1.863356   0.000000
     5  H    2.561805   1.075839   1.863360   1.863366   0.000000
     6  Cl   4.637621   2.318710   2.550699   2.550440   2.550773
                    6
     6  Cl   0.000000
 Stoichiometry    CH3Cl2(1-)
 Framework group  C1[X(CH3Cl2)]
 Deg. of freedom    12
 Full point group                 C1      NOp   1
 RotChk:  IX=2 Diff= 7.75D-01
 Largest Abelian subgroup         C1      NOp   1
 Largest concise Abelian subgroup C1      NOp   1
                         Standard orientation:                         
 ---------------------------------------------------------------------
 Center     Atomic      Atomic             Coordinates (Angstroms)
 Number     Number       Type             X           Y           Z
 ---------------------------------------------------------------------
      1         17           0        2.319254   -0.000038    0.000010
      2          6           0        0.000343    0.000134   -0.000029
      3          1           0       -0.005639   -0.254395   -1.045296
      4          1           0       -0.005856   -0.777818    0.743034
      5          1           0       -0.005637    1.032643    0.302163
      6         17           0       -2.318367   -0.000034    0.000006
 ---------------------------------------------------------------------
 Rotational constants (GHZ):         144.4235892           1.3377016           1.3377015
 Leave Link  202 at Wed Oct  7 14:31:21 2020, MaxMem=  2684354560 cpu:               1.2 elap:               0.4
 (Enter /udrive/faculty/rpeverati/g16/g16/l301.exe)
 Standard basis: 6-31G(d) (5D, 7F)
 Ernie: Thresh=  0.10000D-02 Tol=  0.10000D-05 Strict=F.
 There are    59 symmetry adapted cartesian basis functions of A   symmetry.
 There are    56 symmetry adapted basis functions of A   symmetry.
    56 basis functions,   144 primitive gaussians,    59 cartesian basis functions
    22 alpha electrons       22 beta electrons
       nuclear repulsion energy       110.3528807420 Hartrees.
 IExCor= 1009 DFT=T Ex+Corr=PBE1PBE ExCW=0 ScaHFX=  0.250000
 ScaDFX=  0.750000  0.750000  1.000000  1.000000 ScalE2=  1.000000  1.000000
 IRadAn=      5 IRanWt=     -1 IRanGd=            0 ICorTp=0 IEmpDi=141
 NAtoms=    6 NActive=    6 NUniq=    6 SFac= 1.00D+00 NAtFMM=   60 NAOKFM=F Big=F
 Integral buffers will be    131072 words long.
 Raffenetti 2 integral format.
 Two-electron integral symmetry is turned on.
 R6Disp:  Grimme-D3(BJ) Dispersion energy=       -0.0032049471 Hartrees.
 Nuclear repulsion after empirical dispersion term =      110.3496757948 Hartrees.
 Leave Link  301 at Wed Oct  7 14:31:22 2020, MaxMem=  2684354560 cpu:               1.8 elap:               0.6
 (Enter /udrive/faculty/rpeverati/g16/g16/l302.exe)
 NPDir=0 NMtPBC=     1 NCelOv=     1 NCel=       1 NClECP=     1 NCelD=      1
         NCelK=      1 NCelE2=     1 NClLst=     1 CellRange=     0.0.
 One-electron integrals computed using PRISM.
 One-electron integral symmetry used in STVInt
 NBasis=    56 RedAO= T EigKep=  2.41D-02  NBF=    56
 NBsUse=    56 1.00D-06 EigRej= -1.00D+00 NBFU=    56
 Precomputing XC quadrature grid using
 IXCGrd= 4 IRadAn=           5 IRanWt=          -1 IRanGd=           0 AccXCQ= 0.00D+00.
 Generated NRdTot=       0 NPtTot=           0 NUsed=           0 NTot=          32
 NSgBfM=    59    59    59    59    59 MxSgAt=     6 MxSgA2=     6.
 Leave Link  302 at Wed Oct  7 14:31:22 2020, MaxMem=  2684354560 cpu:               3.6 elap:               0.6
 (Enter /udrive/faculty/rpeverati/g16/g16/l303.exe)
 DipDrv:  MaxL=1.
 Leave Link  303 at Wed Oct  7 14:31:23 2020, MaxMem=  2684354560 cpu:               1.5 elap:               0.5
 (Enter /udrive/faculty/rpeverati/g16/g16/l401.exe)
 Initial guess from the checkpoint file:  "MN_28_clch3clts_BH76_PBE0DBJ_631Gs.chk"
 SCF N**3 symmetry information disabled.
 B after Tr=    -0.000000    0.000000    0.000000
         Rot=    0.961708   -0.274077   -0.000096   -0.000028 Ang= -31.81 deg.
 Guess basis will be translated and rotated to current coordinates.
 JPrj=2 DoOrth=T DoCkMO=T.
 Leave Link  401 at Wed Oct  7 14:31:24 2020, MaxMem=  2684354560 cpu:               2.3 elap:               0.6
 (Enter /udrive/faculty/rpeverati/g16/g16/l502.exe)
 Keep R1 ints in memory in canonical form, NReq=11831782.
 FoFCou: FMM=F IPFlag=           0 FMFlag=           0 FMFlg1=           0
         NFxFlg=           0 DoJE=F BraDBF=F KetDBF=F FulRan=T
         wScrn=  0.000000 ICntrl=       600 IOpCl=  0 I1Cent=           0 NGrid=           0
         NMat0=    1 NMatS0=   1596 NMatT0=    0 NMatD0=    1 NMtDS0=    0 NMtDT0=    0
 Symmetry not used in FoFCou.
 Two-electron integral symmetry not used.
 Closed shell SCF:
 Using DIIS extrapolation, IDIIS=  1040.
 NGot=  2684354560 LenX=  2683071684 LenY=  2683067762
 Requested convergence on RMS density matrix=1.00D-08 within 120 cycles.
 Requested convergence on MAX density matrix=1.00D-06.
 Requested convergence on             energy=1.00D-06.
 No special actions if energy rises.

 Cycle   1  Pass 1  IDiag  1:
 E= -959.974744108557    
 DIIS: error= 9.19D-04 at cycle   1 NSaved=   1.
 NSaved= 1 IEnMin= 1 EnMin= -959.974744108557     IErMin= 1 ErrMin= 9.19D-04
 ErrMax= 9.19D-04  0.00D+00 EMaxC= 1.00D-01 BMatC= 2.27D-05 BMatP= 2.27D-05
 IDIUse=3 WtCom= 9.91D-01 WtEn= 9.19D-03
 Coeff-Com:  0.100D+01
 Coeff-En:   0.100D+01
 Coeff:      0.100D+01
 Gap=     0.537 Goal=   None    Shift=    0.000
 RMSDP=1.47D-04 MaxDP=2.34D-03              OVMax= 2.31D-03

 Cycle   2  Pass 1  IDiag  1:
 E= -959.974758333975     Delta-E=       -0.000014225418 Rises=F Damp=F
 DIIS: error= 7.63D-04 at cycle   2 NSaved=   2.
 NSaved= 2 IEnMin= 2 EnMin= -959.974758333975     IErMin= 2 ErrMin= 7.63D-04
 ErrMax= 7.63D-04  0.00D+00 EMaxC= 1.00D-01 BMatC= 1.47D-05 BMatP= 2.27D-05
 IDIUse=3 WtCom= 9.92D-01 WtEn= 7.63D-03
 Coeff-Com:  0.434D+00 0.566D+00
 Coeff-En:   0.261D+00 0.739D+00
 Coeff:      0.433D+00 0.567D+00
 Gap=     0.234 Goal=   None    Shift=    0.000
 RMSDP=8.66D-05 MaxDP=1.29D-03 DE=-1.42D-05 OVMax= 3.06D-03

 Cycle   3  Pass 1  IDiag  1:
 E= -959.974773384947     Delta-E=       -0.000015050972 Rises=F Damp=F
 DIIS: error= 2.81D-04 at cycle   3 NSaved=   3.
 NSaved= 3 IEnMin= 3 EnMin= -959.974773384947     IErMin= 3 ErrMin= 2.81D-04
 ErrMax= 2.81D-04  0.00D+00 EMaxC= 1.00D-01 BMatC= 2.36D-06 BMatP= 1.47D-05
 IDIUse=3 WtCom= 9.97D-01 WtEn= 2.81D-03
 Coeff-Com:  0.286D-01 0.287D+00 0.685D+00
 Coeff-En:   0.000D+00 0.114D+00 0.886D+00
 Coeff:      0.285D-01 0.286D+00 0.685D+00
 Gap=     0.235 Goal=   None    Shift=    0.000
 RMSDP=2.88D-05 MaxDP=4.38D-04 DE=-1.51D-05 OVMax= 8.14D-04

 Cycle   4  Pass 1  IDiag  1:
 E= -959.974776071219     Delta-E=       -0.000002686272 Rises=F Damp=F
 DIIS: error= 2.03D-05 at cycle   4 NSaved=   4.
 NSaved= 4 IEnMin= 4 EnMin= -959.974776071219     IErMin= 4 ErrMin= 2.03D-05
 ErrMax= 2.03D-05  0.00D+00 EMaxC= 1.00D-01 BMatC= 4.52D-08 BMatP= 2.36D-06
 IDIUse=1 WtCom= 1.00D+00 WtEn= 0.00D+00
 Coeff-Com: -0.999D-02 0.766D-01 0.224D+00 0.709D+00
 Coeff:     -0.999D-02 0.766D-01 0.224D+00 0.709D+00
 Gap=     0.235 Goal=   None    Shift=    0.000
 RMSDP=6.20D-06 MaxDP=9.51D-05 DE=-2.69D-06 OVMax= 1.09D-04

 Cycle   5  Pass 1  IDiag  1:
 E= -959.974776125585     Delta-E=       -0.000000054366 Rises=F Damp=F
 DIIS: error= 4.65D-06 at cycle   5 NSaved=   5.
 NSaved= 5 IEnMin= 5 EnMin= -959.974776125585     IErMin= 5 ErrMin= 4.65D-06
 ErrMax= 4.65D-06  0.00D+00 EMaxC= 1.00D-01 BMatC= 1.99D-09 BMatP= 4.52D-08
 IDIUse=1 WtCom= 1.00D+00 WtEn= 0.00D+00
 Coeff-Com: -0.436D-02 0.119D-01 0.292D-01 0.200D+00 0.763D+00
 Coeff:     -0.436D-02 0.119D-01 0.292D-01 0.200D+00 0.763D+00
 Gap=     0.235 Goal=   None    Shift=    0.000
 RMSDP=1.28D-06 MaxDP=2.48D-05 DE=-5.44D-08 OVMax= 1.46D-05

 Cycle   6  Pass 1  IDiag  1:
 E= -959.974776127959     Delta-E=       -0.000000002374 Rises=F Damp=F
 DIIS: error= 1.14D-06 at cycle   6 NSaved=   6.
 NSaved= 6 IEnMin= 6 EnMin= -959.974776127959     IErMin= 6 ErrMin= 1.14D-06
 ErrMax= 1.14D-06  0.00D+00 EMaxC= 1.00D-01 BMatC= 1.39D-10 BMatP= 1.99D-09
 IDIUse=1 WtCom= 1.00D+00 WtEn= 0.00D+00
 Coeff-Com: -0.109D-02 0.635D-03-0.177D-02 0.393D-01 0.282D+00 0.681D+00
 Coeff:     -0.109D-02 0.635D-03-0.177D-02 0.393D-01 0.282D+00 0.681D+00
 Gap=     0.235 Goal=   None    Shift=    0.000
 RMSDP=4.30D-07 MaxDP=8.09D-06 DE=-2.37D-09 OVMax= 1.23D-05

 Cycle   7  Pass 1  IDiag  1:
 E= -959.974776128112     Delta-E=       -0.000000000153 Rises=F Damp=F
 DIIS: error= 5.27D-07 at cycle   7 NSaved=   7.
 NSaved= 7 IEnMin= 7 EnMin= -959.974776128112     IErMin= 7 ErrMin= 5.27D-07
 ErrMax= 5.27D-07  0.00D+00 EMaxC= 1.00D-01 BMatC= 2.46D-11 BMatP= 1.39D-10
 IDIUse=1 WtCom= 1.00D+00 WtEn= 0.00D+00
 Coeff-Com: -0.855D-04-0.962D-03-0.407D-02-0.161D-02 0.564D-01 0.341D+00
 Coeff-Com:  0.609D+00
 Coeff:     -0.855D-04-0.962D-03-0.407D-02-0.161D-02 0.564D-01 0.341D+00
 Coeff:      0.609D+00
 Gap=     0.235 Goal=   None    Shift=    0.000
 RMSDP=1.53D-07 MaxDP=2.80D-06 DE=-1.53D-10 OVMax= 4.42D-06

 Cycle   8  Pass 1  IDiag  1:
 E= -959.974776128154     Delta-E=       -0.000000000041 Rises=F Damp=F
 DIIS: error= 7.78D-08 at cycle   8 NSaved=   8.
 NSaved= 8 IEnMin= 8 EnMin= -959.974776128154     IErMin= 8 ErrMin= 7.78D-08
 ErrMax= 7.78D-08  0.00D+00 EMaxC= 1.00D-01 BMatC= 6.22D-13 BMatP= 2.46D-11
 IDIUse=1 WtCom= 1.00D+00 WtEn= 0.00D+00
 Coeff-Com:  0.308D-04-0.318D-03-0.108D-02-0.229D-02 0.271D-02 0.726D-01
 Coeff-Com:  0.206D+00 0.722D+00
 Coeff:      0.308D-04-0.318D-03-0.108D-02-0.229D-02 0.271D-02 0.726D-01
 Coeff:      0.206D+00 0.722D+00
 Gap=     0.235 Goal=   None    Shift=    0.000
 RMSDP=2.23D-08 MaxDP=3.27D-07 DE=-4.14D-11 OVMax= 3.64D-07

 Cycle   9  Pass 1  IDiag  1:
 E= -959.974776128150     Delta-E=        0.000000000004 Rises=F Damp=F
 DIIS: error= 9.94D-09 at cycle   9 NSaved=   9.
 NSaved= 9 IEnMin= 8 EnMin= -959.974776128154     IErMin= 9 ErrMin= 9.94D-09
 ErrMax= 9.94D-09  0.00D+00 EMaxC= 1.00D-01 BMatC= 7.90D-15 BMatP= 6.22D-13
 IDIUse=1 WtCom= 1.00D+00 WtEn= 0.00D+00
 Coeff-Com:  0.798D-05-0.169D-04-0.172D-04-0.234D-03-0.162D-02-0.117D-02
 Coeff-Com:  0.139D-01 0.130D+00 0.859D+00
 Coeff:      0.798D-05-0.169D-04-0.172D-04-0.234D-03-0.162D-02-0.117D-02
 Coeff:      0.139D-01 0.130D+00 0.859D+00
 Gap=     0.235 Goal=   None    Shift=    0.000
 RMSDP=1.95D-09 MaxDP=2.75D-08 DE= 4.09D-12 OVMax= 3.75D-08

 SCF Done:  E(RPBE1PBE) =  -959.974776128     A.U. after    9 cycles
            NFock=  9  Conv=0.20D-08     -V/T= 2.0017
 KE= 9.583783715881D+02 PE=-2.512168248966D+03 EE= 4.834654254548D+02
 Leave Link  502 at Wed Oct  7 14:31:27 2020, MaxMem=  2684354560 cpu:              25.7 elap:               2.5
 (Enter /udrive/faculty/rpeverati/g16/g16/l508.exe)
 QCSCF skips out because SCF is already converged.
 Leave Link  508 at Wed Oct  7 14:31:27 2020, MaxMem=  2684354560 cpu:               0.2 elap:               0.4
 (Enter /udrive/faculty/rpeverati/g16/g16/l701.exe)
 ... and contract with generalized density number  0.
 Compute integral first derivatives.
 R6Disp: Adding Grimme-D3(BJ) dispersion energy 1st derivatives to the gradient.
 Leave Link  701 at Wed Oct  7 14:31:28 2020, MaxMem=  2684354560 cpu:               3.2 elap:               0.5
 (Enter /udrive/faculty/rpeverati/g16/g16/l702.exe)
 L702 exits ... SP integral derivatives will be done elsewhere.
 Leave Link  702 at Wed Oct  7 14:31:28 2020, MaxMem=  2684354560 cpu:               0.9 elap:               0.3
 (Enter /udrive/faculty/rpeverati/g16/g16/l703.exe)
 Integral derivatives from FoFJK, PRISM(SPDF).
 Compute integral first derivatives, UseDBF=F ICtDFT=           0.
 Calling FoFJK, ICntrl=      2127 FMM=F ISym2X=0 I1Cent= 0 IOpClX= 0 NMat=1 NMatS=1 NMatT=0.
 FoFJK:  IHMeth= 1 ICntrl=    2127 DoSepK=F KAlg= 0 I1Cent=           0 FoldK=F
 IRaf=         0 NMat=       1 IRICut=       1 DoRegI=T DoRafI=F ISym2E= 0 IDoP0=0 IntGTp=1.
 FoFCou: FMM=F IPFlag=           0 FMFlag=      100000 FMFlg1=         800
         NFxFlg=           0 DoJE=F BraDBF=F KetDBF=F FulRan=T
         wScrn=  0.000000 ICntrl=      2127 IOpCl=  0 I1Cent=           0 NGrid=           0
         NMat0=    1 NMatS0=      1 NMatT0=    0 NMatD0=    1 NMtDS0=    0 NMtDT0=    0
 Symmetry not used in FoFCou.
 Leave Link  703 at Wed Oct  7 14:31:30 2020, MaxMem=  2684354560 cpu:              11.7 elap:               1.2
 (Enter /udrive/faculty/rpeverati/g16/g16/l716.exe)
 Dipole        = 4.86293205D-03 1.51326682D-04-3.37885162D-05
 ***** Axes restored to original set *****
 -------------------------------------------------------------------
 Center     Atomic                   Forces (Hartrees/Bohr)
 Number     Number              X              Y              Z
 -------------------------------------------------------------------
      1       17          -0.000001070   -0.000003288   -0.000594157
      2        6           0.000002325    0.000001685   -0.000200842
      3        1          -0.000314306    0.000312595    0.000463113
      4        1           0.000422190    0.000120130    0.000479310
      5        1          -0.000114344   -0.000429381    0.000469307
      6       17           0.000005206   -0.000001741   -0.000616731
 -------------------------------------------------------------------
 Cartesian Forces:  Max     0.000616731 RMS     0.000335398
 Leave Link  716 at Wed Oct  7 14:31:30 2020, MaxMem=  2684354560 cpu:               0.9 elap:               0.4
 (Enter /udrive/faculty/rpeverati/g16/g16/l103.exe)

 GradGradGradGradGradGradGradGradGradGradGradGradGradGradGradGradGradGrad
 Berny optimization.
 Optmz: redundant internal coordinate code flag= 1
 Red2BG:  D1=  2.58D-01 OD1=  2.49D-02 B2RMS=  0.00D+00 IAprox=0
 FormGI is forming the generalized inverse of G from B-inverse, IUseBI=4.
 Internal  Forces:  Max     0.000616723 RMS     0.000298353
 Search for a saddle point.
 Step number   2 out of a maximum of   50
 All quantities printed in internal units (Hartrees-Bohrs-Radians)
 Swapping is turned off.
 Update second derivatives using D2CorX and points    1    2
 The second derivative matrix:
                          R1        R2        R3        R4        R5
           R1           0.06626
           R2           0.00377   0.38304
           R3           0.00379   0.00967   0.38302
           R4           0.00372   0.00978   0.00976   0.38319
           R5           0.00013  -0.00948  -0.00947  -0.00953   0.08121
           A1           0.00755  -0.00604  -0.00607  -0.00601   0.00161
           A2           0.00770  -0.00615  -0.00618  -0.00612   0.00163
           A3           0.00726  -0.00585  -0.00587  -0.00581   0.00157
           A4          -0.00006   0.00005   0.00005   0.00005  -0.00002
           A5          -0.00008   0.00004   0.00004   0.00004  -0.00000
           A6          -0.00758   0.00605   0.00608   0.00601  -0.00160
           A7          -0.00005   0.00003   0.00003   0.00003  -0.00000
           A8          -0.00707   0.00575   0.00577   0.00571  -0.00158
           A9          -0.00787   0.00625   0.00627   0.00621  -0.00163
           A10          0.00000  -0.00004  -0.00004  -0.00004   0.00003
           A11          0.00011   0.00061   0.00061   0.00061  -0.00054
           D1          -0.00740  -0.01237  -0.01234  -0.01250   0.01323
           D2          -0.00001   0.00003   0.00003   0.00003  -0.00002
           D3          -0.00000   0.00003   0.00003   0.00003  -0.00003
           D4           0.00001  -0.00000  -0.00000  -0.00000  -0.00000
                          A1        A2        A3        A4        A5
           A1           0.15259
           A2          -0.00756   0.15228
           A3          -0.00712  -0.00727   0.15316
           A4           0.00006   0.00006   0.00006   0.16000
           A5           0.00008   0.00008   0.00008  -0.00000   0.16000
           A6           0.00744   0.00759   0.00715  -0.00006  -0.00008
           A7           0.00005   0.00005   0.00005  -0.00000  -0.00000
           A8           0.00692   0.00707   0.00665  -0.00006  -0.00007
           A9           0.00773   0.00789   0.00743  -0.00006  -0.00008
           A10          0.00001   0.00001   0.00001  -0.00000   0.00000
           A11         -0.00024  -0.00024  -0.00023   0.00000   0.00000
           D1           0.01064   0.01084   0.01029  -0.00009  -0.00008
           D2           0.00000   0.00000   0.00000  -0.00000  -0.00000
           D3          -0.00000  -0.00000  -0.00000   0.00000  -0.00000
           D4          -0.00001  -0.00001  -0.00001   0.00000   0.00000
                          A6        A7        A8        A9        A10
           A6           0.15253
           A7          -0.00005   0.16000
           A8          -0.00695  -0.00005   0.15353
           A9          -0.00776  -0.00005  -0.00722   0.15193
           A10         -0.00001   0.00000  -0.00001  -0.00001   0.00230
           A11          0.00024   0.00000   0.00023   0.00025  -0.00000
           D1          -0.01066  -0.00005  -0.01009  -0.01102   0.00006
           D2          -0.00000  -0.00000  -0.00000  -0.00001  -0.00000
           D3           0.00000  -0.00000   0.00000   0.00000  -0.00000
           D4           0.00001   0.00000   0.00001   0.00001  -0.00000
                          A11       D1        D2        D3        D4
           A11          0.00234
           D1          -0.00081   0.02013
           D2           0.00000  -0.00005   0.00230
           D3           0.00000  -0.00005   0.00000   0.00230
           D4           0.00000   0.00000   0.00000   0.00000   0.00230
 ITU=  0  0
 Eigenvectors of the second derivative matrix:
                           1         2         3         4         5
     Eigenvalues --     0.02038   0.06986   0.06988   0.07169   0.08115
   1         R1        -0.33921  -0.06836  -0.00294  -0.91945  -0.00160
   2         R2         0.00274   0.00043  -0.00000   0.00497   0.00135
   3         R3         0.00294   0.00043  -0.00000   0.00499   0.00135
   4         R4         0.00230   0.00043  -0.00000   0.00495   0.00136
   5         R5         0.13263   0.00110   0.00130  -0.24364   0.04291
   6         A1         0.22045  -0.01224  -0.37810  -0.06902  -0.00241
   7         A2         0.22328   0.31648   0.18698  -0.09618   0.00978
   8         A3         0.21468  -0.33568   0.19024  -0.04606  -0.00826
   9         A4        -0.00583  -0.00870   0.00573   0.00757   0.43065
  10         A5        -0.00370   0.00923   0.00540  -0.00229  -0.54748
  11         A6        -0.22058   0.00867  -0.37762   0.07148  -0.00074
  12         A7        -0.00330   0.00008  -0.01111  -0.00116   0.11685
  13         A8        -0.21144   0.33761   0.18762   0.04526   0.00514
  14         A9        -0.22640  -0.31486   0.19088   0.09451  -0.00344
  15         A10       -0.00012  -0.00357  -0.75572   0.00246  -0.00315
  16         A11        0.01360   0.75324  -0.00378  -0.05737   0.01537
  17         D1        -0.76020   0.03619   0.00107   0.24398   0.00584
  18         D2        -0.00157  -0.01209   0.00765   0.00641   0.43063
  19         D3        -0.00058  -0.01217  -0.00717   0.00388   0.54747
  20         D4         0.00099  -0.00008  -0.01482  -0.00254   0.11684
                           6         7         8         9        10
     Eigenvalues --     0.08115   0.08207   0.16000   0.16000   0.37334
   1         R1         0.00165  -0.18565  -0.00165   0.00000  -0.00019
   2         R2         0.00062   0.03155  -0.00047   0.00000  -0.61553
   3         R3         0.00062   0.03151  -0.00047   0.00000  -0.16219
   4         R4         0.00062   0.03177  -0.00046   0.00000   0.77124
   5         R5         0.01865   0.95825  -0.00021   0.00000   0.00007
   6         A1         0.01199  -0.04762  -0.28259   0.50299   0.00008
   7         A2        -0.00276  -0.05606   0.57812  -0.00612   0.00008
   8         A3        -0.00664  -0.04077  -0.29319  -0.49693   0.00008
   9         A4         0.38347  -0.02402  -0.00284  -0.00494  -0.00000
  10         A5         0.18173   0.02089   0.00550  -0.00004  -0.00000
  11         A6         0.00471   0.04910   0.28258  -0.50299  -0.00008
  12         A7        -0.56524   0.00595  -0.00271   0.00498  -0.00000
  13         A8        -0.00275   0.03970  -0.57804   0.00612  -0.00007
  14         A9        -0.00452   0.05565   0.29311   0.49693  -0.00009
  15         A10        0.01669   0.00148  -0.00000   0.00000  -0.00000
  16         A11        0.00323  -0.01804   0.00009  -0.00000   0.00001
  17         D1         0.00137   0.16651  -0.00275   0.00000  -0.00028
  18         D2         0.38347  -0.02490   0.00001  -0.00000   0.00000
  19         D3        -0.18174  -0.01989   0.00001  -0.00000   0.00000
  20         D4        -0.56521   0.00501  -0.00000  -0.00000  -0.00000
                          11        12
     Eigenvalues --     0.37336   0.40356
   1         R1         0.00013   0.01972
   2         R2        -0.53787   0.57513
   3         R3         0.80171   0.57440
   4         R4        -0.26069   0.57982
   5         R5        -0.00004  -0.05118
   6         A1        -0.00006   0.00196
   7         A2        -0.00006   0.00308
   8         A3        -0.00006   0.00168
   9         A4         0.00000  -0.00014
  10         A5         0.00000  -0.00002
  11         A6         0.00006  -0.00207
  12         A7         0.00000   0.00003
  13         A8         0.00005  -0.00232
  14         A9         0.00006  -0.00234
  15         A10        0.00000  -0.00011
  16         A11       -0.00001   0.00082
  17         D1         0.00020  -0.00777
  18         D2        -0.00000  -0.00009
  19         D3        -0.00000  -0.00002
  20         D4         0.00000   0.00008
 Eigenvalue     1 is   2.04D-02 should be less than     0.000000 Eigenvector:
                          D1        R1        A9        A2        A6
   1                   -0.76020  -0.33921  -0.22640   0.22328  -0.22058
                          A1        A3        A8        R5        A11
   1                    0.22045   0.21468  -0.21144   0.13263   0.01360
 RLam0= 2.04D-02.
 Iter=   1 RLamda= 0.00000000D+00 Sum=-1.43443910D-05.
 Iter=   2 RLamda=-1.43443910D-05 Sum=-1.43419902D-05.
 RFO step:  Lambda0=2.038193382D-02 Lambda=-1.43443910D-05.
 Linear search not attempted -- option 19 set.
 Iteration  1 RMS(Cart)=  0.00252258 RMS(Int)=  0.00000255
 Iteration  2 RMS(Cart)=  0.00000136 RMS(Int)=  0.00000212
 Iteration  3 RMS(Cart)=  0.00000000 RMS(Int)=  0.00000212
 ITry= 1 IFail=0 DXMaxC= 8.24D-03 DCOld= 1.00D+10 DXMaxT= 1.00D-01 DXLimC= 3.00D+00 Rises=F
 Variable       Old X    -DE/DX   Delta X   Delta X   Delta X     New X
                                 (Linear)    (Quad)   (Total)
    R1        4.38211  -0.00059   0.00000  -0.01387  -0.01387   4.36824
    R2        2.03302  -0.00044   0.00000  -0.00078  -0.00078   2.03224
    R3        2.03300  -0.00044   0.00000  -0.00077  -0.00077   2.03223
    R4        2.03304  -0.00045   0.00000  -0.00081  -0.00081   2.03224
    R5        4.38173   0.00062   0.00000   0.00913   0.00913   4.39086
    A1        1.57635  -0.00015   0.00000   0.00182   0.00182   1.57818
    A2        1.57649  -0.00017   0.00000   0.00186   0.00186   1.57835
    A3        1.57642  -0.00016   0.00000   0.00164   0.00164   1.57806
    A4        2.09435   0.00000   0.00000  -0.00008  -0.00009   2.09426
    A5        2.09433   0.00000   0.00000  -0.00001  -0.00001   2.09431
    A6        1.56523   0.00015   0.00000  -0.00182  -0.00182   1.56342
    A7        2.09435   0.00000   0.00000  -0.00001  -0.00002   2.09433
    A8        1.56497   0.00017   0.00000  -0.00151  -0.00151   1.56347
    A9        1.56530   0.00015   0.00000  -0.00200  -0.00200   1.56330
   A10        3.14159   0.00000   0.00000   0.00001   0.00001   3.14159
   A11        3.14144   0.00001   0.00000   0.00041   0.00041   3.14186
    D1        3.12210   0.00055   0.00000  -0.00615  -0.00615   3.11595
    D2        2.09440  -0.00000   0.00000  -0.00005  -0.00005   2.09435
    D3       -2.09438  -0.00000   0.00000  -0.00003  -0.00003  -2.09441
    D4        2.09440   0.00000   0.00000   0.00002   0.00002   2.09443
         Item               Value     Threshold  Converged?
 Maximum Force            0.000617     0.000450     NO 
 RMS     Force            0.000298     0.000300     YES
 Maximum Displacement     0.008238     0.001800     NO 
 RMS     Displacement     0.002523     0.001200     NO 
 Predicted change in Energy=-9.852174D-07
 Lowest energy point so far.  Saving SCF results.
 Largest change from initial coordinates is atom    5       0.002 Angstoms.
 GradGradGradGradGradGradGradGradGradGradGradGradGradGradGradGradGradGrad

 Leave Link  103 at Wed Oct  7 14:31:31 2020, MaxMem=  2684354560 cpu:               2.0 elap:               0.4
 (Enter /udrive/faculty/rpeverati/g16/g16/l202.exe)
                          Input orientation:                          
 ---------------------------------------------------------------------
 Center     Atomic      Atomic             Coordinates (Angstroms)
 Number     Number       Type             X           Y           Z
 ---------------------------------------------------------------------
      1         17           0        0.000537    0.020029    2.317426
      2          6           0        0.000229    0.000268    0.005939
      3          1           0        0.765401   -0.755394    0.004357
      4          1           0       -1.036730   -0.284680    0.000385
      5          1           0        0.272017    1.040635   -0.010807
      6         17           0        0.000344   -0.019159   -2.317521
 ---------------------------------------------------------------------
                    Distance matrix (angstroms):
                    1          2          3          4          5
     1  Cl   0.000000
     2  C    2.311572   0.000000
     3  H    2.556674   1.075414   0.000000
     4  H    2.556843   1.075411   1.862595   0.000000
     5  H    2.556561   1.075413   1.862626   1.862633   0.000000
     6  Cl   4.635112   2.323541   2.553129   2.553177   2.553017
                    6
     6  Cl   0.000000
 Stoichiometry    CH3Cl2(1-)
 Framework group  C1[X(CH3Cl2)]
 Deg. of freedom    12
 Full point group                 C1      NOp   1
 RotChk:  IX=2 Diff= 2.73D-01
 Largest Abelian subgroup         C1      NOp   1
 Largest concise Abelian subgroup C1      NOp   1
                         Standard orientation:                         
 ---------------------------------------------------------------------
 Center     Atomic      Atomic             Coordinates (Angstroms)
 Number     Number       Type             X           Y           Z
 ---------------------------------------------------------------------
      1         17           0        2.316859    0.000058   -0.000025
      2          6           0        0.005287   -0.000218    0.000100
      3          1           0       -0.002651   -0.450409   -0.976517
      4          1           0       -0.002719   -0.620933    0.878256
      5          1           0       -0.002650    1.070650    0.098544
      6         17           0       -2.318253    0.000059   -0.000027
 ---------------------------------------------------------------------
 Rotational constants (GHZ):         144.5387530           1.3391474           1.3391470
 Leave Link  202 at Wed Oct  7 14:31:31 2020, MaxMem=  2684354560 cpu:               0.8 elap:               0.3
 (Enter /udrive/faculty/rpeverati/g16/g16/l301.exe)
 Standard basis: 6-31G(d) (5D, 7F)
 Ernie: Thresh=  0.10000D-02 Tol=  0.10000D-05 Strict=F.
 There are    59 symmetry adapted cartesian basis functions of A   symmetry.
 There are    56 symmetry adapted basis functions of A   symmetry.
    56 basis functions,   144 primitive gaussians,    59 cartesian basis functions
    22 alpha electrons       22 beta electrons
       nuclear repulsion energy       110.4108177571 Hartrees.
 IExCor= 1009 DFT=T Ex+Corr=PBE1PBE ExCW=0 ScaHFX=  0.250000
 ScaDFX=  0.750000  0.750000  1.000000  1.000000 ScalE2=  1.000000  1.000000
 IRadAn=      5 IRanWt=     -1 IRanGd=            0 ICorTp=0 IEmpDi=141
 NAtoms=    6 NActive=    6 NUniq=    6 SFac= 1.00D+00 NAtFMM=   60 NAOKFM=F Big=F
 Integral buffers will be    131072 words long.
 Raffenetti 2 integral format.
 Two-electron integral symmetry is turned on.
 R6Disp:  Grimme-D3(BJ) Dispersion energy=       -0.0032058578 Hartrees.
 Nuclear repulsion after empirical dispersion term =      110.4076118993 Hartrees.
 Leave Link  301 at Wed Oct  7 14:31:32 2020, MaxMem=  2684354560 cpu:               1.4 elap:               0.4
 (Enter /udrive/faculty/rpeverati/g16/g16/l302.exe)
 NPDir=0 NMtPBC=     1 NCelOv=     1 NCel=       1 NClECP=     1 NCelD=      1
         NCelK=      1 NCelE2=     1 NClLst=     1 CellRange=     0.0.
 One-electron integrals computed using PRISM.
 One-electron integral symmetry used in STVInt
 NBasis=    56 RedAO= T EigKep=  2.40D-02  NBF=    56
 NBsUse=    56 1.00D-06 EigRej= -1.00D+00 NBFU=    56
 Precomputing XC quadrature grid using
 IXCGrd= 4 IRadAn=           5 IRanWt=          -1 IRanGd=           0 AccXCQ= 0.00D+00.
 Generated NRdTot=       0 NPtTot=           0 NUsed=           0 NTot=          32
 NSgBfM=    59    59    59    59    59 MxSgAt=     6 MxSgA2=     6.
 Leave Link  302 at Wed Oct  7 14:31:33 2020, MaxMem=  2684354560 cpu:               3.8 elap:               0.6
 (Enter /udrive/faculty/rpeverati/g16/g16/l303.exe)
 DipDrv:  MaxL=1.
 Leave Link  303 at Wed Oct  7 14:31:34 2020, MaxMem=  2684354560 cpu:               1.2 elap:               0.4
 (Enter /udrive/faculty/rpeverati/g16/g16/l401.exe)
 Initial guess from the checkpoint file:  "MN_28_clch3clts_BH76_PBE0DBJ_631Gs.chk"
 SCF N**3 symmetry information disabled.
 B after Tr=    -0.000000   -0.000000    0.000000
         Rot=    0.995345    0.096378   -0.000001   -0.000001 Ang=  11.06 deg.
 Guess basis will be translated and rotated to current coordinates.
 JPrj=2 DoOrth=T DoCkMO=T.
 Leave Link  401 at Wed Oct  7 14:31:34 2020, MaxMem=  2684354560 cpu:               2.3 elap:               0.5
 (Enter /udrive/faculty/rpeverati/g16/g16/l502.exe)
 Keep R1 ints in memory in canonical form, NReq=11831782.
 FoFCou: FMM=F IPFlag=           0 FMFlag=           0 FMFlg1=           0
         NFxFlg=           0 DoJE=F BraDBF=F KetDBF=F FulRan=T
         wScrn=  0.000000 ICntrl=       600 IOpCl=  0 I1Cent=           0 NGrid=           0
         NMat0=    1 NMatS0=   1596 NMatT0=    0 NMatD0=    1 NMtDS0=    0 NMtDT0=    0
 Symmetry not used in FoFCou.
 Two-electron integral symmetry not used.
 Closed shell SCF:
 Using DIIS extrapolation, IDIIS=  1040.
 NGot=  2684354560 LenX=  2683071684 LenY=  2683067762
 Requested convergence on RMS density matrix=1.00D-08 within 120 cycles.
 Requested convergence on MAX density matrix=1.00D-06.
 Requested convergence on             energy=1.00D-06.
 No special actions if energy rises.

 Cycle   1  Pass 1  IDiag  1:
 E= -959.974778114846    
 DIIS: error= 2.78D-04 at cycle   1 NSaved=   1.
 NSaved= 1 IEnMin= 1 EnMin= -959.974778114846     IErMin= 1 ErrMin= 2.78D-04
 ErrMax= 2.78D-04  0.00D+00 EMaxC= 1.00D-01 BMatC= 2.90D-06 BMatP= 2.90D-06
 IDIUse=3 WtCom= 9.97D-01 WtEn= 2.78D-03
 Coeff-Com:  0.100D+01
 Coeff-En:   0.100D+01
 Coeff:      0.100D+01
 Gap=     0.535 Goal=   None    Shift=    0.000
 RMSDP=9.30D-05 MaxDP=1.34D-03              OVMax= 2.76D-03

 Cycle   2  Pass 1  IDiag  1:
 E= -959.974785289009     Delta-E=       -0.000007174163 Rises=F Damp=F
 DIIS: error= 8.75D-05 at cycle   2 NSaved=   2.
 NSaved= 2 IEnMin= 2 EnMin= -959.974785289009     IErMin= 2 ErrMin= 8.75D-05
 ErrMax= 8.75D-05  0.00D+00 EMaxC= 1.00D-01 BMatC= 6.16D-07 BMatP= 2.90D-06
 IDIUse=1 WtCom= 1.00D+00 WtEn= 0.00D+00
 Coeff-Com:  0.158D+00 0.842D+00
 Coeff:      0.158D+00 0.842D+00
 Gap=     0.235 Goal=   None    Shift=    0.000
 RMSDP=4.09D-05 MaxDP=7.34D-04 DE=-7.17D-06 OVMax= 1.10D-03

 Cycle   3  Pass 1  IDiag  1:
 E= -959.974785413466     Delta-E=       -0.000000124458 Rises=F Damp=F
 DIIS: error= 7.20D-05 at cycle   3 NSaved=   3.
 NSaved= 3 IEnMin= 3 EnMin= -959.974785413466     IErMin= 3 ErrMin= 7.20D-05
 ErrMax= 7.20D-05  0.00D+00 EMaxC= 1.00D-01 BMatC= 5.48D-07 BMatP= 6.16D-07
 IDIUse=1 WtCom= 1.00D+00 WtEn= 0.00D+00
 Coeff-Com: -0.279D-01 0.498D+00 0.530D+00
 Coeff:     -0.279D-01 0.498D+00 0.530D+00
 Gap=     0.235 Goal=   None    Shift=    0.000
 RMSDP=1.96D-05 MaxDP=3.92D-04 DE=-1.24D-07 OVMax= 5.60D-04

 Cycle   4  Pass 1  IDiag  1:
 E= -959.974786197861     Delta-E=       -0.000000784395 Rises=F Damp=F
 DIIS: error= 7.29D-06 at cycle   4 NSaved=   4.
 NSaved= 4 IEnMin= 4 EnMin= -959.974786197861     IErMin= 4 ErrMin= 7.29D-06
 ErrMax= 7.29D-06  0.00D+00 EMaxC= 1.00D-01 BMatC= 3.09D-09 BMatP= 5.48D-07
 IDIUse=1 WtCom= 1.00D+00 WtEn= 0.00D+00
 Coeff-Com: -0.136D-01 0.118D+00 0.138D+00 0.758D+00
 Coeff:     -0.136D-01 0.118D+00 0.138D+00 0.758D+00
 Gap=     0.235 Goal=   None    Shift=    0.000
 RMSDP=1.53D-06 MaxDP=1.61D-05 DE=-7.84D-07 OVMax= 2.88D-05

 Cycle   5  Pass 1  IDiag  1:
 E= -959.974786200851     Delta-E=       -0.000000002990 Rises=F Damp=F
 DIIS: error= 2.70D-06 at cycle   5 NSaved=   5.
 NSaved= 5 IEnMin= 5 EnMin= -959.974786200851     IErMin= 5 ErrMin= 2.70D-06
 ErrMax= 2.70D-06  0.00D+00 EMaxC= 1.00D-01 BMatC= 4.70D-10 BMatP= 3.09D-09
 IDIUse=1 WtCom= 1.00D+00 WtEn= 0.00D+00
 Coeff-Com: -0.524D-02 0.336D-01 0.368D-01 0.317D+00 0.617D+00
 Coeff:     -0.524D-02 0.336D-01 0.368D-01 0.317D+00 0.617D+00
 Gap=     0.235 Goal=   None    Shift=    0.000
 RMSDP=5.35D-07 MaxDP=9.78D-06 DE=-2.99D-09 OVMax= 1.58D-05

 Cycle   6  Pass 1  IDiag  1:
 E= -959.974786201315     Delta-E=       -0.000000000464 Rises=F Damp=F
 DIIS: error= 1.05D-06 at cycle   6 NSaved=   6.
 NSaved= 6 IEnMin= 6 EnMin= -959.974786201315     IErMin= 6 ErrMin= 1.05D-06
 ErrMax= 1.05D-06  0.00D+00 EMaxC= 1.00D-01 BMatC= 7.56D-11 BMatP= 4.70D-10
 IDIUse=1 WtCom= 1.00D+00 WtEn= 0.00D+00
 Coeff-Com: -0.626D-03 0.324D-02 0.142D-02 0.737D-01 0.320D+00 0.602D+00
 Coeff:     -0.626D-03 0.324D-02 0.142D-02 0.737D-01 0.320D+00 0.602D+00
 Gap=     0.235 Goal=   None    Shift=    0.000
 RMSDP=2.00D-07 MaxDP=4.30D-06 DE=-4.64D-10 OVMax= 4.78D-06

 Cycle   7  Pass 1  IDiag  1:
 E= -959.974786201409     Delta-E=       -0.000000000094 Rises=F Damp=F
 DIIS: error= 1.55D-07 at cycle   7 NSaved=   7.
 NSaved= 7 IEnMin= 7 EnMin= -959.974786201409     IErMin= 7 ErrMin= 1.55D-07
 ErrMax= 1.55D-07  0.00D+00 EMaxC= 1.00D-01 BMatC= 1.77D-12 BMatP= 7.56D-11
 IDIUse=1 WtCom= 1.00D+00 WtEn= 0.00D+00
 Coeff-Com:  0.446D-04-0.117D-02-0.173D-02 0.356D-02 0.629D-01 0.201D+00
 Coeff-Com:  0.735D+00
 Coeff:      0.446D-04-0.117D-02-0.173D-02 0.356D-02 0.629D-01 0.201D+00
 Coeff:      0.735D+00
 Gap=     0.235 Goal=   None    Shift=    0.000
 RMSDP=3.34D-08 MaxDP=4.79D-07 DE=-9.44D-11 OVMax= 5.13D-07

 Cycle   8  Pass 1  IDiag  1:
 E= -959.974786201414     Delta-E=       -0.000000000005 Rises=F Damp=F
 DIIS: error= 1.49D-08 at cycle   8 NSaved=   8.
 NSaved= 8 IEnMin= 8 EnMin= -959.974786201414     IErMin= 8 ErrMin= 1.49D-08
 ErrMax= 1.49D-08  0.00D+00 EMaxC= 1.00D-01 BMatC= 2.45D-14 BMatP= 1.77D-12
 IDIUse=1 WtCom= 1.00D+00 WtEn= 0.00D+00
 Coeff-Com:  0.178D-04-0.270D-03-0.159D-03-0.897D-03 0.959D-03 0.168D-01
 Coeff-Com:  0.898D-01 0.894D+00
 Coeff:      0.178D-04-0.270D-03-0.159D-03-0.897D-03 0.959D-03 0.168D-01
 Coeff:      0.898D-01 0.894D+00
 Gap=     0.235 Goal=   None    Shift=    0.000
 RMSDP=5.13D-09 MaxDP=8.62D-08 DE=-4.55D-12 OVMax= 9.54D-08

 SCF Done:  E(RPBE1PBE) =  -959.974786201     A.U. after    8 cycles
            NFock=  8  Conv=0.51D-08     -V/T= 2.0017
 KE= 9.583816966749D+02 PE=-2.512288312155D+03 EE= 4.835242173796D+02
 Leave Link  502 at Wed Oct  7 14:31:37 2020, MaxMem=  2684354560 cpu:              24.6 elap:               2.4
 (Enter /udrive/faculty/rpeverati/g16/g16/l508.exe)
 QCSCF skips out because SCF is already converged.
 Leave Link  508 at Wed Oct  7 14:31:38 2020, MaxMem=  2684354560 cpu:               0.3 elap:               0.5
 (Enter /udrive/faculty/rpeverati/g16/g16/l701.exe)
 ... and contract with generalized density number  0.
 Compute integral first derivatives.
 R6Disp: Adding Grimme-D3(BJ) dispersion energy 1st derivatives to the gradient.
 Leave Link  701 at Wed Oct  7 14:31:39 2020, MaxMem=  2684354560 cpu:               4.3 elap:               0.8
 (Enter /udrive/faculty/rpeverati/g16/g16/l702.exe)
 L702 exits ... SP integral derivatives will be done elsewhere.
 Leave Link  702 at Wed Oct  7 14:31:39 2020, MaxMem=  2684354560 cpu:               1.2 elap:               0.5
 (Enter /udrive/faculty/rpeverati/g16/g16/l703.exe)
 Integral derivatives from FoFJK, PRISM(SPDF).
 Compute integral first derivatives, UseDBF=F ICtDFT=           0.
 Calling FoFJK, ICntrl=      2127 FMM=F ISym2X=0 I1Cent= 0 IOpClX= 0 NMat=1 NMatS=1 NMatT=0.
 FoFJK:  IHMeth= 1 ICntrl=    2127 DoSepK=F KAlg= 0 I1Cent=           0 FoldK=F
 IRaf=         0 NMat=       1 IRICut=       1 DoRegI=T DoRafI=F ISym2E= 0 IDoP0=0 IntGTp=1.
[...]
 Search for a local minimum.
 Step number   1 out of a maximum of    2
 All quantities printed in internal units (Hartrees-Bohrs-Radians)
 Second derivative matrix not updated -- analytic derivatives used.
 The second derivative matrix:
                          R1        R2        R3        R4        R5
           R1           0.04224
           R2          -0.00173   0.40133
           R3          -0.00172  -0.00053   0.40139
           R4          -0.00173  -0.00053  -0.00053   0.40133
           R5           0.02388  -0.00173  -0.00172  -0.00172   0.04221
           A1           0.00594  -0.00338   0.00168   0.00168  -0.00594
           A2           0.00594   0.00169  -0.00336   0.00168  -0.00594
           A3           0.00595   0.00169   0.00168  -0.00336  -0.00594
           A4           0.00000   0.00244   0.00244  -0.00489  -0.00000
           A5           0.00001   0.00245  -0.00489   0.00245  -0.00001
           A6          -0.00595  -0.00338   0.00168   0.00168   0.00593
           A7           0.00000  -0.00489   0.00245   0.00244  -0.00001
           A8          -0.00594   0.00169  -0.00336   0.00168   0.00596
           A9          -0.00594   0.00169   0.00168  -0.00336   0.00594
           A10         -0.00001  -0.00676   0.00336   0.00336  -0.00002
           A11         -0.00000   0.00000  -0.00582   0.00582   0.00001
           D1          -0.02058  -0.00000  -0.00000  -0.00000   0.02058
           D2          -0.00000   0.00244   0.00244  -0.00489   0.00000
           D3          -0.00000  -0.00245   0.00489  -0.00245   0.00000
           D4           0.00000  -0.00489   0.00244   0.00244  -0.00000
                          A1        A2        A3        A4        A5
           A1           0.03425
           A2          -0.01481   0.03427
           A3          -0.01481  -0.01483   0.03427
           A4           0.00001   0.00001  -0.00002   0.01569
           A5           0.00001  -0.00001   0.00001  -0.00784   0.01569
           A6          -0.01798   0.00667   0.00667   0.00001  -0.00000
           A7          -0.00001   0.00001   0.00001  -0.00785  -0.00784
           A8           0.00667  -0.01798   0.00667   0.00000  -0.00000
           A9           0.00667   0.00667  -0.01797  -0.00000  -0.00000
           A10          0.01627  -0.00814  -0.00814   0.00001   0.00001
           A11         -0.00000   0.01412  -0.01412   0.00002  -0.00001
           D1          -0.00535  -0.00535  -0.00535  -0.00000  -0.00001
           D2           0.00000   0.00000  -0.00001   0.01569  -0.00784
           D3          -0.00001   0.00001  -0.00001   0.00784  -0.01569
           D4          -0.00001   0.00000   0.00001  -0.00785  -0.00784
                          A6        A7        A8        A9        A10
           A6           0.03426
           A7          -0.00001   0.01569
           A8          -0.01482  -0.00000   0.03428
           A9          -0.01481   0.00000  -0.01483   0.03427
           A10          0.01628  -0.00002  -0.00814  -0.00814   0.03255
           A11         -0.00000  -0.00000   0.01413  -0.01412  -0.00000
           D1           0.00535  -0.00000   0.00535   0.00535  -0.00000
           D2           0.00001  -0.00785   0.00001  -0.00001   0.00001
           D3          -0.00001   0.00784   0.00002  -0.00001  -0.00001
           D4          -0.00001   0.01569   0.00001   0.00000  -0.00002
                          A11       D1        D2        D3        D4
           A11          0.03261
           D1           0.00000   0.01853
           D2           0.00002   0.00000   0.01569
           D3           0.00002   0.00000   0.00784   0.01569
           D4          -0.00000  -0.00000  -0.00785   0.00784   0.01569
 ITU=  0
 Eigenvectors of the second derivative matrix:
                           1         2         3         4         5
     Eigenvalues --    -0.01290   0.04675   0.04675   0.05663   0.05673
   1         R1         0.53175   0.00025   0.00033   0.00109   0.00116
   2         R2         0.00001   0.01600  -0.01890   0.02492  -0.00138
   3         R3         0.00001  -0.02434  -0.00439  -0.01117   0.02212
   4         R4         0.00001   0.00837   0.02329  -0.01354  -0.02076
   5         R5        -0.53192  -0.00016  -0.00048   0.00252  -0.00216
   6         A1        -0.15532   0.00922  -0.01076   0.37684  -0.02018
   7         A2        -0.15532  -0.01374  -0.00238  -0.17101   0.33782
   8         A3        -0.15536   0.00465   0.01347  -0.20670  -0.31566
   9         A4        -0.00011   0.19517   0.54266   0.01204   0.01822
  10         A5        -0.00012  -0.56755  -0.10232   0.00992  -0.01919
  11         A6         0.15528   0.00895  -0.01074   0.37704  -0.02124
  12         A7        -0.00011   0.37238  -0.44034  -0.02196   0.00097
  13         A8         0.15539  -0.01352  -0.00255  -0.17007   0.33578
  14         A9         0.15532   0.00447   0.01298  -0.20611  -0.31653
  15         A10       -0.00004   0.01817  -0.02151   0.75389  -0.04141
  16         A11        0.00007  -0.02099  -0.01812   0.04141   0.75390
  17         D1         0.53808  -0.00028  -0.00060   0.00100  -0.00230
  18         D2        -0.00002   0.19517   0.54266   0.01206   0.01833
  19         D3        -0.00004   0.56754   0.10232  -0.01001   0.01935
  20         D4        -0.00001   0.37238  -0.44034  -0.02207   0.00102
                           6         7         8         9        10
     Eigenvalues --     0.05903   0.06605   0.07372   0.07375   0.40035
   1         R1         0.46511  -0.70769  -0.00011   0.00077   0.00895
   2         R2         0.00004  -0.00726   0.00001   0.00000  -0.58265
   3         R3        -0.00010  -0.00734  -0.00001   0.00004  -0.56731
   4         R4         0.00001  -0.00732  -0.00001  -0.00000  -0.58182
   5         R5        -0.46686  -0.70640  -0.00065   0.00129   0.00894
   6         A1         0.17831   0.00122  -0.56950   0.09348   0.00011
   7         A2         0.17539  -0.00177   0.20372  -0.54004  -0.00017
   8         A3         0.17814  -0.00005   0.36603   0.44631   0.00005
   9         A4        -0.00048  -0.00003  -0.00012  -0.00019   0.00010
  10         A5         0.00055   0.00001  -0.00010   0.00026  -0.00021
  11         A6        -0.17695   0.00074   0.56973  -0.09368   0.00012
  12         A7         0.00030   0.00001   0.00022  -0.00007   0.00011
  13         A8        -0.17838   0.00043  -0.20392   0.54055  -0.00016
  14         A9        -0.17650  -0.00056  -0.36607  -0.44661   0.00006
  15         A10        0.00136   0.00196   0.00024  -0.00020   0.00022
  16         A11       -0.00267  -0.00042  -0.00009   0.00046  -0.00025
  17         D1        -0.61411   0.00070  -0.00030   0.00031   0.00002
  18         D2        -0.00058  -0.00003  -0.00007  -0.00002   0.00010
  19         D3        -0.00038  -0.00001  -0.00000   0.00001   0.00021
  20         D4         0.00020   0.00001   0.00006   0.00003   0.00011
                          11        12
     Eigenvalues --     0.40250   0.40254
   1         R1        -0.00001  -0.00010
   2         R2         0.70204  -0.40789
   3         R3         0.00796   0.82269
   4         R4        -0.71080  -0.39366
   5         R5        -0.00001  -0.00010
   6         A1        -0.01029   0.00607
   7         A2        -0.00010  -0.01190
   8         A3         0.01038   0.00583
   9         A4         0.01465   0.00827
  10         A5        -0.00017  -0.01683
  11         A6        -0.01028   0.00608
  12         A7        -0.01449   0.00856
  13         A8        -0.00009  -0.01191
  14         A9         0.01038   0.00583
  15         A10       -0.02057   0.01215
  16         A11       -0.01210  -0.02048
  17         D1        -0.00000  -0.00000
  18         D2         0.01465   0.00827
  19         D3         0.00017   0.01682
  20         D4        -0.01449   0.00856
 Eigenvalue     1 is  -1.29D-02 should be greater than     0.000000 Eigenvector:
                          D1        R5        R1        A8        A3
   1                    0.53808  -0.53192   0.53175   0.15539  -0.15536
                          A1        A2        A9        A6        A5
   1                   -0.15532  -0.15532   0.15532   0.15528  -0.00012
 Angle between quadratic step and forces=  52.28 degrees.
 Linear search not attempted -- first point.
 Iteration  1 RMS(Cart)=  0.00021456 RMS(Int)=  0.00000001
 Iteration  2 RMS(Cart)=  0.00000001 RMS(Int)=  0.00000000
 ITry= 1 IFail=0 DXMaxC= 4.75D-04 DCOld= 1.00D+10 DXMaxT= 3.00D-01 DXLimC= 3.00D+00 Rises=F
 Variable       Old X    -DE/DX   Delta X   Delta X   Delta X     New X
                                 (Linear)    (Quad)   (Total)
    R1        4.38228   0.00001   0.00000   0.00055   0.00055   4.38282
    R2        2.03225  -0.00014   0.00000  -0.00035  -0.00035   2.03190
    R3        2.03223  -0.00013   0.00000  -0.00033  -0.00033   2.03191
    R4        2.03227  -0.00014   0.00000  -0.00036  -0.00036   2.03191
    R5        4.38184  -0.00002   0.00000  -0.00074  -0.00074   4.38110
    A1        1.57054   0.00001   0.00000   0.00000   0.00000   1.57054
    A2        1.57068  -0.00000   0.00000  -0.00014  -0.00014   1.57054
    A3        1.57055   0.00001   0.00000   0.00000   0.00000   1.57055
    A4        2.09440  -0.00000   0.00000  -0.00001  -0.00001   2.09440
    A5        2.09439   0.00000   0.00000   0.00001   0.00001   2.09439
    A6        1.57107  -0.00001   0.00000  -0.00003  -0.00003   1.57104
    A7        2.09440   0.00000   0.00000   0.00000   0.00000   2.09440
    A8        1.57085   0.00001   0.00000   0.00020   0.00020   1.57104
    A9        1.57109  -0.00001   0.00000  -0.00003  -0.00003   1.57106
   A10        3.14161  -0.00000   0.00000  -0.00003  -0.00003   3.14159
   A11        3.14153   0.00000   0.00000   0.00005   0.00005   3.14158
    D1       -3.14088  -0.00001   0.00000   0.00016   0.00016  -3.14072
    D2        2.09440  -0.00000   0.00000  -0.00001  -0.00001   2.09440
    D3       -2.09439  -0.00000   0.00000  -0.00001  -0.00001  -2.09439
    D4        2.09440   0.00000   0.00000   0.00000   0.00000   2.09440
         Item               Value     Threshold  Converged?
 Maximum Force            0.000142     0.000450     YES
 RMS     Force            0.000054     0.000300     YES
 Maximum Displacement     0.000475     0.001800     YES
 RMS     Displacement     0.000215     0.001200     YES
 Predicted change in Energy=-9.154025D-08
 Optimization completed.
    -- Stationary point found.
                           ----------------------------
                           !   Optimized Parameters   !
                           ! (Angstroms and Degrees)  !
 --------------------------                            --------------------------
 ! Name  Definition              Value          Derivative Info.                !
 --------------------------------------------------------------------------------
 ! R1    R(1,2)                  2.319          -DE/DX =    0.0                 !
 ! R2    R(2,3)                  1.0754         -DE/DX =   -0.0001              !
 ! R3    R(2,4)                  1.0754         -DE/DX =   -0.0001              !
 ! R4    R(2,5)                  1.0754         -DE/DX =   -0.0001              !
 ! R5    R(2,6)                  2.3188         -DE/DX =    0.0                 !
 ! A1    A(1,2,3)               89.9853         -DE/DX =    0.0                 !
 ! A2    A(1,2,4)               89.9933         -DE/DX =    0.0                 !
 ! A3    A(1,2,5)               89.9859         -DE/DX =    0.0                 !
 ! A4    A(3,2,4)              120.0005         -DE/DX =    0.0                 !
 ! A5    A(3,2,5)              119.9994         -DE/DX =    0.0                 !
 ! A6    A(3,2,6)               90.0159         -DE/DX =    0.0                 !
 ! A7    A(4,2,5)              120.0            -DE/DX =    0.0                 !
 ! A8    A(4,2,6)               90.0028         -DE/DX =    0.0                 !
 ! A9    A(5,2,6)               90.0168         -DE/DX =    0.0                 !
 ! A10   L(1,2,6,3,-1)         180.0011         -DE/DX =    0.0                 !
 ! A11   L(1,2,6,3,-2)         179.9962         -DE/DX =    0.0                 !
 ! D1    D(3,2,5,4)           -179.9591         -DE/DX =    0.0                 !
 ! D2    D(3,2,6,4)            120.0005         -DE/DX =    0.0                 !
 ! D3    D(3,2,6,5)           -119.9994         -DE/DX =    0.0                 !
 ! D4    D(4,2,6,5)            120.0            -DE/DX =    0.0                 !
 --------------------------------------------------------------------------------
 GradGradGradGradGradGradGradGradGradGradGradGradGradGradGradGradGradGrad

 Leave Link  103 at Wed Oct  7 14:32:20 2020, MaxMem=  2684354560 cpu:               4.4 elap:               0.8
 (Enter /udrive/faculty/rpeverati/g16/g16/l9999.exe)

 ----------------------------------------------------------------------

 Electric dipole moment (input orientation):
 (Debye = 10**-18 statcoulomb cm , SI units = C m)
                  (au)            (Debye)         (10**-30 SI)
   Tot        0.850335D-03      0.216134D-02      0.720944D-02
   x          0.637419D-04      0.162016D-03      0.540426D-03
   y          0.280022D-04      0.711744D-04      0.237412D-03
   z         -0.847481D-03     -0.215408D-02     -0.718524D-02

 Dipole polarizability, Alpha (input orientation).
 (esu units = cm**3 , SI units = C**2 m**2 J**-1)
 Alpha(0;0):
               (au)            (10**-24 esu)      (10**-40 SI)
   iso        0.468650D+02      0.694468D+01      0.772699D+01
   aniso      0.735809D+02      0.109036D+02      0.121319D+02
   xx         0.223380D+02      0.331014D+01      0.368303D+01
   yx         0.976735D-04      0.144737D-04      0.161042D-04
   yy         0.223434D+02      0.331094D+01      0.368392D+01
   zx         0.433578D-02      0.642496D-03      0.714873D-03
   zy         0.622429D+00      0.922345D-01      0.102625D+00
   zz         0.959137D+02      0.142129D+02      0.158140D+02

 ----------------------------------------------------------------------

 Dipole orientation:
    17          0.32911532         -0.18181615         -4.36576773
     6          0.00057563         -0.00053862          0.00041430
     1          1.44526048          1.42793550          0.04928943
     1         -1.95251818          0.53489390         -0.16901643
     1          0.50911390         -1.96452940          0.11972148
    17         -0.32819437          0.18086458          4.36613308

 Electric dipole moment (dipole orientation):
 (Debye = 10**-18 statcoulomb cm , SI units = C m)
                  (au)            (Debye)         (10**-30 SI)
   Tot        0.850335D-03      0.216134D-02      0.720944D-02
   x          0.000000D+00      0.000000D+00      0.000000D+00
   y          0.000000D+00      0.000000D+00      0.000000D+00
   z          0.850335D-03      0.216134D-02      0.720944D-02

 Dipole polarizability, Alpha (dipole orientation).
 (esu units = cm**3 , SI units = C**2 m**2 J**-1)
 Alpha(0;0):
               (au)            (10**-24 esu)      (10**-40 SI)
   iso        0.468650D+02      0.694468D+01      0.772699D+01
   aniso      0.735809D+02      0.109036D+02      0.121319D+02
   xx         0.227519D+02      0.337149D+01      0.375128D+01
   yx        -0.228463D+00     -0.338547D-01     -0.376684D-01
   yy         0.224641D+02      0.332884D+01      0.370383D+01
   zx        -0.549876D+01     -0.814833D+00     -0.906624D+00
   zy         0.303389D+01      0.449576D+00      0.500221D+00
   zz         0.953789D+02      0.141337D+02      0.157259D+02

 ----------------------------------------------------------------------

 Test job not archived.
 1\1\GINC-NODE34\Freq\RPBE1PBE\6-31G(d)\C1H3Cl2(1-)\RPEVERATI\07-Oct-20
 20\0\\#P Freq PBE1PBE/6-31G* 5D 7F Integral=UltraFineGrid SCF=(NoSymm,
 XQC,MaxCyc=120) EmpiricalDispersion=GD3BJ IOp(1/33=1) Geom=Check Guess
 =Read\\TS search on BH76.\\-1,1\Cl,0.0003717013,0.0198667025,2.3187318
 399\C,0.000319834,0.0002917136,-0.0001862808\H,0.7655359491,-0.7553071
 425,0.0064512755\H,-1.0366748483,-0.2845678222,0.0023664818\H,0.272117
 0618,1.0407727699,-0.0087115921\Cl,0.0001281414,-0.0193576644,-2.31887
 14102\\Version=ES64L-G16RevA.03\State=1-A\HF=-959.9747849\RMSD=3.045e-
 10\RMSF=5.654e-05\ZeroPoint=0.0377814\Thermal=0.0423577\Dipole=0.00006
 37,0.000028,-0.0008475\DipoleDeriv=-0.6249047,0.0000019,-0.0000432,0.0
 000015,-0.6249926,-0.0105252,-0.0000487,-0.0105431,-1.8716261,0.078154
 1,-0.0000004,0.0000963,-0.000001,0.0784113,0.0271288,0.0001722,0.02715
 04,3.2881264,0.0568756,0.0219095,-0.0001193,0.0219099,0.0574059,-0.002
 0668,-0.0002143,-0.0020122,-0.1815358,0.0383126,-0.0111933,0.00007,-0.
 0111928,0.0759629,-0.002181,0.0000872,-0.0021766,-0.1815596,0.0762638,
 -0.010719,0.0001218,-0.0107191,0.0380026,-0.0017771,0.0000681,-0.00187
 35,-0.1815283,-0.6247014,0.0000013,-0.0001257,0.0000015,-0.6247901,-0.
 0105788,-0.0000646,-0.010545,-1.8718767\Polar=22.3379511,0.0000977,22.
 3433639,0.0043358,0.6224293,95.9136625\Quadrupole=8.9644012,8.962454,-
 17.9268552,-0.0000062,-0.0011854,-0.2273785\PG=C01 [X(C1H3Cl2)]\NImag=
 1\\0.00807138,0.00000893,0.00807274,0.00000503,0.00028155,0.04223422,-
 0.01444167,-0.00000010,0.00000182,0.70500508,-0.00000018,-0.01443731,0
 .00041212,-0.00000188,0.70491991,0.00000235,0.00041304,0.03427534,0.00
 002346,-0.00638823,-0.05245276,0.00137490,-0.00135023,-0.00121868,-0.2
 2749339,0.16936627,-0.00148554,0.22572338,-0.00129021,0.00130069,0.001
 05597,0.16936718,-0.22321882,0.00189082,-0.17781688,0.22123996,0.00589
 733,-0.00597332,-0.01750494,-0.00148951,0.00189984,-0.00537700,0.00155
 706,-0.00160550,0.03733991,0.00249456,0.00069487,0.00165461,-0.3710044
 8,-0.08653722,0.00077202,-0.01013117,-0.00826054,0.00007356,0.37642488
 ,0.00061324,0.00018608,0.00030791,-0.08653842,-0.07974795,0.00063944,0
 .01914959,0.00928916,-0.00006844,0.09086263,0.07061827,-0.00799090,-0.
 00234191,-0.01752642,0.00078072,0.00064187,-0.00535951,-0.00016679,-0.
 00006601,0.00156000,-0.00081047,-0.00029291,0.03733554,0.00018491,0.00
 064654,-0.00044014,-0.07760734,-0.08282685,0.00067769,0.00914945,0.019
 39206,-0.00016070,-0.00028037,-0.02483549,0.00020491,0.06836846,0.0006
 6822,0.00256387,-0.00183547,-0.08282667,-0.37306209,0.00303149,-0.0080
 1720,-0.00999068,0.00009297,0.00257310,-0.00056176,0.00001590,0.086968
 54,0.37859055,0.00208776,0.00784209,-0.01759808,0.00067884,0.00302172,
 -0.00538405,0.00006796,0.00010296,0.00155831,-0.00002006,0.00002257,0.
 00155582,-0.00071315,-0.00280709,0.03735248,0.00231591,-0.00000001,-0.
 00000263,-0.01445820,-0.00000014,0.00001002,0.00137683,-0.00139161,-0.
 00587773,0.00249657,0.00074845,0.00798253,0.00018488,0.00063400,-0.002
 10136,0.00808400,0.,0.00231392,-0.00022208,-0.00000010,-0.01445375,0.0
 0041344,-0.00133155,0.00137969,0.00565445,0.00066715,0.00021619,0.0020
 4305,0.00065520,0.00246010,-0.00818225,0.00000930,0.00808386,-0.000001
 57,-0.00022146,-0.02388012,0.00000467,0.00041268,0.03429797,0.00124599
 ,-0.00137825,-0.01757628,-0.00166966,-0.00060857,-0.01756543,0.0004314
 0,0.00150219,-0.01748448,-0.00001083,0.00029340,0.04220834\\0.00000179
 ,0.00000038,-0.00001364,-0.00000553,-0.00000605,0.00000837,0.00009829,
 -0.00009621,0.00001446,-0.00012628,-0.00003451,0.00000057,0.00003592,0
 .00013780,0.00001264,-0.00000420,-0.00000141,-0.00002240\\\@


 I think that all right-thinking people in this
 country are sick and tired of being told that
 ordinary, decent people are fed up in this country
 with being sick and tired.  I'm certainly not!
 But I'm sick and tired of being told that I am!
                               -- Monty Python
 Job cpu time:       0 days  0 hours  2 minutes 54.0 seconds.
 Elapsed time:       0 days  0 hours  0 minutes 20.9 seconds.
 File lengths (MBytes):  RWF=      7 Int=      0 D2E=      0 Chk=      1 Scr=      1
 Normal termination of Gaussian 16 at Wed Oct  7 14:32:21 2020.
