 Entering Gaussian System, Link 0=g16
 Input=MN_38_fch3fcomp_BH76_PBE0DBJ_631Gs.in
 Output=MN_38_fch3fcomp_BH76_PBE0DBJ_631Gs.log
 Initial command:
 /udrive/faculty/rpeverati/g16/g16/l1.exe "/udrive/scratch-directories/gaussian09/rpeverati/Gau-16421.inp" -scrdir="/udrive/scratch-directories/gaussian09/rpeverati/"
 Entering Link 1 = /udrive/faculty/rpeverati/g16/g16/l1.exe PID=     16422.
  
 Copyright (c) 1988,1990,1992,1993,1995,1998,2003,2009,2016,
            Gaussian, Inc.  All Rights Reserved.
  
 This is part of the Gaussian(R) 16 program.  It is based on
 the Gaussian(R) 09 system (copyright 2009, Gaussian, Inc.),
 the Gaussian(R) 03 system (copyright 2003, Gaussian, Inc.),
 the Gaussian(R) 98 system (copyright 1998, Gaussian, Inc.),
 the Gaussian(R) 94 system (copyright 1995, Gaussian, Inc.),
 the Gaussian 92(TM) system (copyright 1992, Gaussian, Inc.),
 the Gaussian 90(TM) system (copyright 1990, Gaussian, Inc.),
 the Gaussian 88(TM) system (copyright 1988, Gaussian, Inc.),
 the Gaussian 86(TM) system (copyright 1986, Carnegie Mellon
 University), and the Gaussian 82(TM) system (copyright 1983,
 Carnegie Mellon University). Gaussian is a federally registered
 trademark of Gaussian, Inc.
  
 This software contains proprietary and confidential information,
 including trade secrets, belonging to Gaussian, Inc.
  
 This software is provided under written license and may be
 used, copied, transmitted, or stored only in accord with that
 written license.
  
 The following legend is applicable only to US Government
 contracts under FAR:
  
                    RESTRICTED RIGHTS LEGEND
  
 Use, reproduction and disclosure by the US Government is
 subject to restrictions as set forth in subparagraphs (a)
 and (c) of the Commercial Computer Software - Restricted
 Rights clause in FAR 52.227-19.
  
 Gaussian, Inc.
 340 Quinnipiac St., Bldg. 40, Wallingford CT 06492
  
  
 ---------------------------------------------------------------
 Warning -- This program may not be used in any manner that
 competes with the business of Gaussian, Inc. or will provide
 assistance to any competitor of Gaussian, Inc.  The licensee
 of this program is prohibited from giving any competitor of
 Gaussian, Inc. access to this program.  By using this program,
 the user acknowledges that Gaussian, Inc. is engaged in the
 business of creating and licensing software in the field of
 computational chemistry and represents and warrants to the
 licensee that it is not a competitor of Gaussian, Inc. and that
 it will not use this program in any manner prohibited above.
 ---------------------------------------------------------------
  

 Cite this work as:
 Gaussian 16, Revision A.03,
 M. J. Frisch, G. W. Trucks, H. B. Schlegel, G. E. Scuseria, 
 M. A. Robb, J. R. Cheeseman, G. Scalmani, V. Barone, 
 G. A. Petersson, H. Nakatsuji, X. Li, M. Caricato, A. V. Marenich, 
 J. Bloino, B. G. Janesko, R. Gomperts, B. Mennucci, H. P. Hratchian, 
 J. V. Ortiz, A. F. Izmaylov, J. L. Sonnenberg, D. Williams-Young, 
 F. Ding, F. Lipparini, F. Egidi, J. Goings, B. Peng, A. Petrone, 
 T. Henderson, D. Ranasinghe, V. G. Zakrzewski, J. Gao, N. Rega, 
 G. Zheng, W. Liang, M. Hada, M. Ehara, K. Toyota, R. Fukuda, 
 J. Hasegawa, M. Ishida, T. Nakajima, Y. Honda, O. Kitao, H. Nakai, 
 T. Vreven, K. Throssell, J. A. Montgomery, Jr., J. E. Peralta, 
 F. Ogliaro, M. J. Bearpark, J. J. Heyd, E. N. Brothers, K. N. Kudin, 
 V. N. Staroverov, T. A. Keith, R. Kobayashi, J. Normand, 
 K. Raghavachari, A. P. Rendell, J. C. Burant, S. S. Iyengar, 
 J. Tomasi, M. Cossi, J. M. Millam, M. Klene, C. Adamo, R. Cammi, 
 J. W. Ochterski, R. L. Martin, K. Morokuma, O. Farkas, 
 J. B. Foresman, and D. J. Fox, Gaussian, Inc., Wallingford CT, 2016.
 
 ******************************************
 Gaussian 16:  ES64L-G16RevA.03 25-Dec-2016
                 7-Oct-2020 
 ******************************************
 %NoSave
 %nproc=12
 Will use up to   12 processors via shared memory.
 %mem=20GB
 %chk=MN_38_fch3fcomp_BH76_PBE0DBJ_631Gs
 ----------------------------------------------------------------------
 #P Opt(MaxCyc=100) PBE1PBE/6-31G* 5D 7F Integral=UltraFineGrid SCF=(No
 Symm,XQC,MaxCyc=120) EmpiricalDispersion=GD3BJ IOp(1/33=1)
 ----------------------------------------------------------------------
 1/6=100,18=20,19=15,26=4,33=1,38=1/1,3;
 2/9=110,12=2,17=6,18=5,40=1/2;
 3/5=1,6=6,7=1,8=11,11=2,25=1,30=1,71=1,74=-13,75=-5,124=41/1,2,3;
 4/9=2/1;
 5/5=2,7=120,8=3,13=1,38=5/2,8;
 6/7=2,8=2,9=2,10=2,28=1/1;
 7//1,2,3,16;
 1/6=100,18=20,19=15,26=4,33=1/3(2);
 2/9=110/2;
 99//99;
 2/9=110/2;
 3/5=1,6=6,7=1,8=11,11=2,25=1,30=1,71=1,74=-13,75=-5,124=41/1,2,3;
 4/5=5,9=2,16=3,69=1/1;
 5/5=2,7=120,8=3,13=1,38=5/2,8;
 7//1,2,3,16;
 1/6=100,18=20,19=15,26=4,33=1/3(-5);
 2/9=110/2;
 6/7=2,8=2,9=2,10=2,19=2,28=1/1;
 99/9=1/99;
 Leave Link    1 at Wed Oct  7 14:31:06 2020, MaxMem=  2684354560 cpu:               2.4 elap:               0.2
 (Enter /udrive/faculty/rpeverati/g16/g16/l101.exe)
 ONIOM data not found on unit 2.
 ------------------
 TS search on BH76.
 ------------------
 TstMul:  ICh=    -1
 TstMul:  Mul=     1
 TstMul:  ICh=    -1
 TstMul:  Mul=     1
 Symbolic Z-matrix:
 Charge = -1 Multiplicity = 1
 F                     0.        0.       -1.79137 
 C                     0.        0.       -0.36562 
 H                    -0.51179   0.88645  -0.01759 
 H                    -0.51179  -0.88645  -0.01759 
 H                     1.02358   0.       -0.01759 
 F                     0.        0.        2.20975 
 
 RdStrC is calling ZToCFu for IStruc=1 NZ=     6.
 PrtBox:  NBox=     1 Levels=  1 BoxLen=    8.00 SMaxX=        7.56
          Shift=            0.967145            1.675144            3.385201
 Box      1 Number                   0 centers from      1 to      6:
 After GenITR:
 ITRead=  0  0  0  0  0  0
 MicOpt= -1 -1 -1 -1 -1 -1
 Add virtual bond connecting atoms F6         and C2         Dist= 4.87D+00.
 Add virtual bond connecting atoms F6         and H3         Dist= 4.63D+00.
 Add virtual bond connecting atoms F6         and H4         Dist= 4.63D+00.
 Add virtual bond connecting atoms F6         and H5         Dist= 4.63D+00.
 Add atom      6 valence  4 ND=      0 dihedral       4      3      6      2
 Add atom      6 valence  4 ND=      0 dihedral       5      3      6      2
 Add atom      6 valence  4 ND=      0 dihedral       5      4      6      2
 ITRead=  0  0  0  0  0  0
 MicOpt= -1 -1 -1 -1 -1 -1
 NAtoms=      6 NQM=        6 NQMF=       0 NMMI=      0 NMMIF=      0
                NMic=       0 NMicF=      0.
                    Isotopes and Nuclear Properties:
 (Nuclear quadrupole moments (NQMom) in fm**2, nuclear magnetic moments (NMagM)
  in nuclear magnetons)

  Atom         1           2           3           4           5           6
 IAtWgt=          19          12           1           1           1          19
 AtmWgt=  18.9984033  12.0000000   1.0078250   1.0078250   1.0078250  18.9984033
 NucSpn=           1           0           1           1           1           1
 AtZEff=   0.0000000   0.0000000   0.0000000   0.0000000   0.0000000   0.0000000
 NQMom=    0.0000000   0.0000000   0.0000000   0.0000000   0.0000000   0.0000000
 NMagM=    2.6288670   0.0000000   2.7928460   2.7928460   2.7928460   2.6288670
 AtZNuc=   9.0000000   6.0000000   1.0000000   1.0000000   1.0000000   9.0000000
 No MM parameters found.
 Leave Link  101 at Wed Oct  7 14:31:07 2020, MaxMem=  2684354560 cpu:              13.5 elap:               1.2
 (Enter /udrive/faculty/rpeverati/g16/g16/l103.exe)

 GradGradGradGradGradGradGradGradGradGradGradGradGradGradGradGradGradGrad
 Berny optimization.
 Optmz: redundant internal coordinate code flag= 1
 Initialization pass.
                           ----------------------------
                           !    Initial Parameters    !
                           ! (Angstroms and Degrees)  !
 --------------------------                            --------------------------
 ! Name  Definition              Value          Derivative Info.                !
 --------------------------------------------------------------------------------
 ! R1    R(1,2)                  1.4258         estimate D2E/DX2                !
 ! R2    R(2,3)                  1.0811         estimate D2E/DX2                !
 ! R3    R(2,4)                  1.0811         estimate D2E/DX2                !
 ! R4    R(2,5)                  1.0811         estimate D2E/DX2                !
 ! R5    R(2,6)                  2.5754         estimate D2E/DX2                !
 ! R6    R(3,6)                  2.4513         estimate D2E/DX2                !
 ! R7    R(4,6)                  2.4513         estimate D2E/DX2                !
 ! R8    R(5,6)                  2.4513         estimate D2E/DX2                !
 ! A1    A(1,2,3)              108.7787         estimate D2E/DX2                !
 ! A2    A(1,2,4)              108.7787         estimate D2E/DX2                !
 ! A3    A(1,2,5)              108.7787         estimate D2E/DX2                !
 ! A4    A(3,2,4)              110.1548         estimate D2E/DX2                !
 ! A5    A(3,2,5)              110.1548         estimate D2E/DX2                !
 ! A6    A(4,2,5)              110.1548         estimate D2E/DX2                !
 ! A7    A(3,6,4)               42.4004         estimate D2E/DX2                !
 ! A8    A(3,6,5)               42.4004         estimate D2E/DX2                !
 ! A9    A(4,6,5)               42.4004         estimate D2E/DX2                !
 ! A10   L(1,2,6,3,-1)         180.0            estimate D2E/DX2                !
 ! A11   L(1,2,6,3,-2)         180.0            estimate D2E/DX2                !
 ! D1    D(3,2,5,4)            121.7146         estimate D2E/DX2                !
 ! D2    D(4,3,6,2)             32.4318         estimate D2E/DX2                !
 ! D3    D(5,3,6,2)            -32.4318         estimate D2E/DX2                !
 ! D4    D(5,4,6,2)             32.4318         estimate D2E/DX2                !
 --------------------------------------------------------------------------------
 Maximum allowed force set to 1.00D+20.
 Trust Radius=3.00D-01 FncErr=1.00D-07 GrdErr=1.00D-06 EigMax=2.50D+02 EigMin=1.00D-04
 Number of steps in this run=    100 maximum allowed number of steps=    100.
 GradGradGradGradGradGradGradGradGradGradGradGradGradGradGradGradGradGrad

 Leave Link  103 at Wed Oct  7 14:31:08 2020, MaxMem=  2684354560 cpu:               1.0 elap:               0.4
 (Enter /udrive/faculty/rpeverati/g16/g16/l202.exe)
                          Input orientation:                          
 ---------------------------------------------------------------------
 Center     Atomic      Atomic             Coordinates (Angstroms)
 Number     Number       Type             X           Y           Z
 ---------------------------------------------------------------------
      1          9           0        0.000000    0.000000   -1.791371
      2          6           0        0.000000    0.000000   -0.365617
      3          1           0       -0.511791    0.886448   -0.017587
      4          1           0       -0.511791   -0.886448   -0.017587
      5          1           0        1.023582    0.000000   -0.017587
      6          9           0        0.000000    0.000000    2.209748
 ---------------------------------------------------------------------
                    Distance matrix (angstroms):
                    1          2          3          4          5
     1  F    0.000000
     2  C    1.425754   0.000000
     3  H    2.047934   1.081132   0.000000
     4  H    2.047934   1.081132   1.772896   0.000000
     5  H    2.047934   1.081132   1.772896   1.772896   0.000000
     6  F    4.001119   2.575365   2.451273   2.451273   2.451273
                    6
     6  F    0.000000
 Stoichiometry    CH3F2(1-)
 Framework group  C3V[C3(FCF),3SGV(H)]
 Deg. of freedom     4
 Full point group                 C3V     NOp   6
 Largest Abelian subgroup         CS      NOp   2
 Largest concise Abelian subgroup CS      NOp   2
                         Standard orientation:                         
 ---------------------------------------------------------------------
 Center     Atomic      Atomic             Coordinates (Angstroms)
 Number     Number       Type             X           Y           Z
 ---------------------------------------------------------------------
      1          9           0        0.000000    0.000000   -1.847628
      2          6           0        0.000000    0.000000   -0.421874
      3          1           0       -0.000000    1.023582   -0.073843
      4          1           0       -0.886448   -0.511791   -0.073843
      5          1           0        0.886448   -0.511791   -0.073843
      6          9           0        0.000000    0.000000    2.153492
 ---------------------------------------------------------------------
 Rotational constants (GHZ):         159.5384480           3.2253044           3.2253044
 Leave Link  202 at Wed Oct  7 14:31:09 2020, MaxMem=  2684354560 cpu:               1.4 elap:               0.4
 (Enter /udrive/faculty/rpeverati/g16/g16/l301.exe)
 Standard basis: 6-31G(d) (5D, 7F)
 Ernie: Thresh=  0.10000D-02 Tol=  0.10000D-05 Strict=F.
 There are    37 symmetry adapted cartesian basis functions of A'  symmetry.
 There are    14 symmetry adapted cartesian basis functions of A"  symmetry.
 There are    34 symmetry adapted basis functions of A'  symmetry.
 There are    14 symmetry adapted basis functions of A"  symmetry.
    48 basis functions,    96 primitive gaussians,    51 cartesian basis functions
    14 alpha electrons       14 beta electrons
       nuclear repulsion energy        64.3622347508 Hartrees.
 IExCor= 1009 DFT=T Ex+Corr=PBE1PBE ExCW=0 ScaHFX=  0.250000
 ScaDFX=  0.750000  0.750000  1.000000  1.000000 ScalE2=  1.000000  1.000000
 IRadAn=      5 IRanWt=     -1 IRanGd=            0 ICorTp=0 IEmpDi=141
 NAtoms=    6 NActive=    6 NUniq=    4 SFac= 2.25D+00 NAtFMM=   60 NAOKFM=F Big=F
 Integral buffers will be    131072 words long.
 Raffenetti 2 integral format.
 Two-electron integral symmetry is turned on.
 R6Disp:  Grimme-D3(BJ) Dispersion energy=       -0.0015257592 Hartrees.
 Nuclear repulsion after empirical dispersion term =       64.3607089916 Hartrees.
 Leave Link  301 at Wed Oct  7 14:31:09 2020, MaxMem=  2684354560 cpu:               2.1 elap:               0.5
 (Enter /udrive/faculty/rpeverati/g16/g16/l302.exe)
 NPDir=0 NMtPBC=     1 NCelOv=     1 NCel=       1 NClECP=     1 NCelD=      1
         NCelK=      1 NCelE2=     1 NClLst=     1 CellRange=     0.0.
 One-electron integrals computed using PRISM.
 One-electron integral symmetry used in STVInt
 NBasis=    48 RedAO= T EigKep=  1.87D-02  NBF=    34    14
 NBsUse=    48 1.00D-06 EigRej= -1.00D+00 NBFU=    34    14
 Precomputing XC quadrature grid using
 IXCGrd= 4 IRadAn=           5 IRanWt=          -1 IRanGd=           0 AccXCQ= 0.00D+00.
 Generated NRdTot=       0 NPtTot=           0 NUsed=           0 NTot=          32
 NSgBfM=    51    51    51    51    51 MxSgAt=     6 MxSgA2=     6.
 Leave Link  302 at Wed Oct  7 14:31:10 2020, MaxMem=  2684354560 cpu:               3.5 elap:               0.6
 (Enter /udrive/faculty/rpeverati/g16/g16/l303.exe)
 DipDrv:  MaxL=1.
 Leave Link  303 at Wed Oct  7 14:31:11 2020, MaxMem=  2684354560 cpu:               1.9 elap:               0.5
 (Enter /udrive/faculty/rpeverati/g16/g16/l401.exe)
 SCF N**3 symmetry information disabled.
 ExpMin= 1.61D-01 ExpMax= 7.00D+03 ExpMxC= 1.05D+03 IAcc=3 IRadAn=         5 AccDes= 0.00D+00
 Harris functional with IExCor= 1009 and IRadAn=       5 diagonalized for initial guess.
 HarFok:  IExCor= 1009 AccDes= 0.00D+00 IRadAn=         5 IDoV= 1 UseB2=F ITyADJ=14
 ICtDFT=  3500011 ScaDFX=  1.000000  1.000000  1.000000  1.000000
 FoFCou: FMM=F IPFlag=           0 FMFlag=      100000 FMFlg1=           0
         NFxFlg=           0 DoJE=T BraDBF=F KetDBF=T FulRan=T
         wScrn=  0.000000 ICntrl=       500 IOpCl=  0 I1Cent=   200000004 NGrid=           0
         NMat0=    1 NMatS0=      1 NMatT0=    0 NMatD0=    1 NMtDS0=    0 NMtDT0=    0
 Petite list used in FoFCou.
 Harris En= -239.574255219607    
 JPrj=0 DoOrth=F DoCkMO=F.
 Initial guess orbital symmetries:
       Occupied  (A1) (A1) (A1) (A1) (A1) (A1) (A1) (E) (E) (E)
                 (E) (A1) (E) (E)
       Virtual   (A1) (A1) (E) (E) (A1) (E) (E) (E) (E) (A1) (A1)
                 (E) (E) (A1) (E) (E) (A1) (E) (E) (A1) (E) (E)
                 (E) (E) (E) (E) (A1) (A1) (A1) (E) (E) (E) (E)
                 (A1)
 The electronic state of the initial guess is 1-A1.
 Leave Link  401 at Wed Oct  7 14:31:12 2020, MaxMem=  2684354560 cpu:               5.5 elap:               1.0
 (Enter /udrive/faculty/rpeverati/g16/g16/l502.exe)
 Keep R1 ints in memory in symmetry-blocked form, NReq=11153107.
 FoFCou: FMM=F IPFlag=           0 FMFlag=           0 FMFlg1=           0
         NFxFlg=           0 DoJE=F BraDBF=F KetDBF=F FulRan=T
         wScrn=  0.000000 ICntrl=       600 IOpCl=  0 I1Cent=           0 NGrid=           0
         NMat0=    1 NMatS0=   1176 NMatT0=    0 NMatD0=    1 NMtDS0=    0 NMtDT0=    0
 Petite list used in FoFCou.
 Closed shell SCF:
 Using DIIS extrapolation, IDIIS=  1040.
 NGot=  2684354560 LenX=  2683985987 LenY=  2683982945
 Requested convergence on RMS density matrix=1.00D-08 within 120 cycles.
 Requested convergence on MAX density matrix=1.00D-06.
 Requested convergence on             energy=1.00D-06.
 No special actions if energy rises.
 Integral accuracy reduced to 1.0D-05 until final iterations.

 Cycle   1  Pass 0  IDiag  1:
 E= -239.151233079124    
 DIIS: error= 9.50D-02 at cycle   1 NSaved=   1.
 NSaved= 1 IEnMin= 1 EnMin= -239.151233079124     IErMin= 1 ErrMin= 9.50D-02
 ErrMax= 9.50D-02  0.00D+00 EMaxC= 1.00D-01 BMatC= 1.90D-01 BMatP= 1.90D-01
 IDIUse=3 WtCom= 4.99D-02 WtEn= 9.50D-01
 Coeff-Com:  0.100D+01
 Coeff-En:   0.100D+01
 Coeff:      0.100D+01
 Gap=     0.239 Goal=   None    Shift=    0.000
 GapD=    0.239 DampG=1.000 DampE=0.500 DampFc=0.5000 IDamp=-1.
 Damping current iteration by 5.00D-01
 RMSDP=2.37D-02 MaxDP=2.11D-01              OVMax= 3.35D-01

 Cycle   2  Pass 0  IDiag  1:
 E= -239.188927061456     Delta-E=       -0.037693982332 Rises=F Damp=T
 DIIS: error= 2.19D-02 at cycle   2 NSaved=   2.
 NSaved= 2 IEnMin= 2 EnMin= -239.188927061456     IErMin= 2 ErrMin= 2.19D-02
 ErrMax= 2.19D-02  0.00D+00 EMaxC= 1.00D-01 BMatC= 1.61D-02 BMatP= 1.90D-01
 IDIUse=3 WtCom= 7.81D-01 WtEn= 2.19D-01
 Coeff-Com:  0.172D+00 0.828D+00
 Coeff-En:   0.326D+00 0.674D+00
 Coeff:      0.205D+00 0.795D+00
 Gap=     0.280 Goal=   None    Shift=    0.000
 RMSDP=6.94D-03 MaxDP=6.37D-02 DE=-3.77D-02 OVMax= 2.50D-01

 Cycle   3  Pass 0  IDiag  1:
 E= -239.280157273321     Delta-E=       -0.091230211866 Rises=F Damp=F
 DIIS: error= 1.47D-02 at cycle   3 NSaved=   3.
 NSaved= 3 IEnMin= 3 EnMin= -239.280157273321     IErMin= 3 ErrMin= 1.47D-02
 ErrMax= 1.47D-02  0.00D+00 EMaxC= 1.00D-01 BMatC= 8.47D-03 BMatP= 1.61D-02
 IDIUse=3 WtCom= 8.53D-01 WtEn= 1.47D-01
 Coeff-Com:  0.567D-01 0.433D+00 0.510D+00
 Coeff-En:   0.000D+00 0.000D+00 0.100D+01
 Coeff:      0.484D-01 0.370D+00 0.582D+00
 Gap=     0.253 Goal=   None    Shift=    0.000
 RMSDP=2.10D-03 MaxDP=2.25D-02 DE=-9.12D-02 OVMax= 3.08D-02

 Cycle   4  Pass 0  IDiag  1:
 E= -239.287458223372     Delta-E=       -0.007300950050 Rises=F Damp=F
 DIIS: error= 3.05D-03 at cycle   4 NSaved=   4.
 NSaved= 4 IEnMin= 4 EnMin= -239.287458223372     IErMin= 4 ErrMin= 3.05D-03
 ErrMax= 3.05D-03  0.00D+00 EMaxC= 1.00D-01 BMatC= 3.10D-04 BMatP= 8.47D-03
 IDIUse=3 WtCom= 9.70D-01 WtEn= 3.05D-02
 Coeff-Com: -0.824D-02 0.587D-01 0.175D+00 0.774D+00
 Coeff-En:   0.000D+00 0.000D+00 0.000D+00 0.100D+01
 Coeff:     -0.799D-02 0.569D-01 0.170D+00 0.781D+00
 Gap=     0.245 Goal=   None    Shift=    0.000
 RMSDP=2.96D-04 MaxDP=4.65D-03 DE=-7.30D-03 OVMax= 4.43D-03

 Cycle   5  Pass 0  IDiag  1:
 E= -239.287723725249     Delta-E=       -0.000265501877 Rises=F Damp=F
 DIIS: error= 3.31D-04 at cycle   5 NSaved=   5.
 NSaved= 5 IEnMin= 5 EnMin= -239.287723725249     IErMin= 5 ErrMin= 3.31D-04
 ErrMax= 3.31D-04  0.00D+00 EMaxC= 1.00D-01 BMatC= 6.31D-06 BMatP= 3.10D-04
 IDIUse=3 WtCom= 9.97D-01 WtEn= 3.31D-03
 Coeff-Com: -0.309D-02 0.486D-02 0.161D-01 0.167D+00 0.815D+00
 Coeff-En:   0.000D+00 0.000D+00 0.000D+00 0.000D+00 0.100D+01
 Coeff:     -0.308D-02 0.485D-02 0.161D-01 0.167D+00 0.815D+00
 Gap=     0.244 Goal=   None    Shift=    0.000
 RMSDP=7.77D-05 MaxDP=8.18D-04 DE=-2.66D-04 OVMax= 1.23D-03

 Cycle   6  Pass 0  IDiag  1:
 E= -239.287728521886     Delta-E=       -0.000004796637 Rises=F Damp=F
 DIIS: error= 1.67D-04 at cycle   6 NSaved=   6.
 NSaved= 6 IEnMin= 6 EnMin= -239.287728521886     IErMin= 6 ErrMin= 1.67D-04
 ErrMax= 1.67D-04  0.00D+00 EMaxC= 1.00D-01 BMatC= 1.48D-06 BMatP= 6.31D-06
 IDIUse=3 WtCom= 9.98D-01 WtEn= 1.67D-03
 Coeff-Com: -0.121D-02-0.959D-03 0.122D-02 0.500D-01 0.417D+00 0.533D+00
 Coeff-En:   0.000D+00 0.000D+00 0.000D+00 0.000D+00 0.000D+00 0.100D+01
 Coeff:     -0.121D-02-0.958D-03 0.122D-02 0.500D-01 0.417D+00 0.534D+00
 Gap=     0.244 Goal=   None    Shift=    0.000
 RMSDP=1.67D-05 MaxDP=2.57D-04 DE=-4.80D-06 OVMax= 3.36D-04

 Cycle   7  Pass 0  IDiag  1:
 E= -239.287729408656     Delta-E=       -0.000000886770 Rises=F Damp=F
 DIIS: error= 5.04D-05 at cycle   7 NSaved=   7.
 NSaved= 7 IEnMin= 7 EnMin= -239.287729408656     IErMin= 7 ErrMin= 5.04D-05
 ErrMax= 5.04D-05  0.00D+00 EMaxC= 1.00D-01 BMatC= 1.15D-07 BMatP= 1.48D-06
 IDIUse=1 WtCom= 1.00D+00 WtEn= 0.00D+00
 Coeff-Com:  0.269D-03-0.807D-03-0.395D-03-0.478D-02 0.530D-01 0.191D+00
 Coeff-Com:  0.762D+00
 Coeff:      0.269D-03-0.807D-03-0.395D-03-0.478D-02 0.530D-01 0.191D+00
 Coeff:      0.762D+00
 Gap=     0.244 Goal=   None    Shift=    0.000
 RMSDP=7.50D-06 MaxDP=6.86D-05 DE=-8.87D-07 OVMax= 7.59D-05

 Initial convergence to 1.0D-05 achieved.  Increase integral accuracy.
 Cycle   8  Pass 1  IDiag  1:
 E= -239.287725003896     Delta-E=        0.000004404760 Rises=F Damp=F
 DIIS: error= 1.01D-05 at cycle   1 NSaved=   1.
 NSaved= 1 IEnMin= 1 EnMin= -239.287725003896     IErMin= 1 ErrMin= 1.01D-05
 ErrMax= 1.01D-05  0.00D+00 EMaxC= 1.00D-01 BMatC= 1.85D-09 BMatP= 1.85D-09
 IDIUse=1 WtCom= 1.00D+00 WtEn= 0.00D+00
 Coeff-Com:  0.100D+01
 Coeff:      0.100D+01
 Gap=     0.244 Goal=   None    Shift=    0.000
 RMSDP=7.50D-06 MaxDP=6.86D-05 DE= 4.40D-06 OVMax= 2.86D-05

 Cycle   9  Pass 1  IDiag  1:
 E= -239.287725003119     Delta-E=        0.000000000777 Rises=F Damp=F
 DIIS: error= 1.23D-05 at cycle   2 NSaved=   2.
 NSaved= 2 IEnMin= 1 EnMin= -239.287725003896     IErMin= 1 ErrMin= 1.01D-05
 ErrMax= 1.23D-05  0.00D+00 EMaxC= 1.00D-01 BMatC= 3.54D-09 BMatP= 1.85D-09
 IDIUse=1 WtCom= 1.00D+00 WtEn= 0.00D+00
 Coeff-Com:  0.582D+00 0.418D+00
 Coeff:      0.582D+00 0.418D+00
 Gap=     0.244 Goal=   None    Shift=    0.000
 RMSDP=1.07D-06 MaxDP=1.19D-05 DE= 7.77D-10 OVMax= 1.96D-05

 Cycle  10  Pass 1  IDiag  1:
 E= -239.287725005401     Delta-E=       -0.000000002282 Rises=F Damp=F
 DIIS: error= 2.48D-07 at cycle   3 NSaved=   3.
 NSaved= 3 IEnMin= 3 EnMin= -239.287725005401     IErMin= 3 ErrMin= 2.48D-07
 ErrMax= 2.48D-07  0.00D+00 EMaxC= 1.00D-01 BMatC= 1.83D-12 BMatP= 1.85D-09
 IDIUse=1 WtCom= 1.00D+00 WtEn= 0.00D+00
 Coeff-Com: -0.514D-01-0.260D-01 0.108D+01
 Coeff:     -0.514D-01-0.260D-01 0.108D+01
 Gap=     0.244 Goal=   None    Shift=    0.000
 RMSDP=1.43D-07 MaxDP=1.89D-06 DE=-2.28D-09 OVMax= 1.59D-06

 Cycle  11  Pass 1  IDiag  1:
 E= -239.287725005404     Delta-E=       -0.000000000003 Rises=F Damp=F
 DIIS: error= 1.19D-07 at cycle   4 NSaved=   4.
 NSaved= 4 IEnMin= 4 EnMin= -239.287725005404     IErMin= 4 ErrMin= 1.19D-07
 ErrMax= 1.19D-07  0.00D+00 EMaxC= 1.00D-01 BMatC= 4.49D-13 BMatP= 1.83D-12
 IDIUse=1 WtCom= 1.00D+00 WtEn= 0.00D+00
 Coeff-Com: -0.304D-01-0.150D-01 0.371D+00 0.675D+00
 Coeff:     -0.304D-01-0.150D-01 0.371D+00 0.675D+00
 Gap=     0.244 Goal=   None    Shift=    0.000
 RMSDP=1.82D-08 MaxDP=1.53D-07 DE=-3.35D-12 OVMax= 1.55D-07

 Cycle  12  Pass 1  IDiag  1:
 E= -239.287725005405     Delta-E=       -0.000000000001 Rises=F Damp=F
 DIIS: error= 4.11D-08 at cycle   5 NSaved=   5.
 NSaved= 5 IEnMin= 5 EnMin= -239.287725005405     IErMin= 5 ErrMin= 4.11D-08
 ErrMax= 4.11D-08  0.00D+00 EMaxC= 1.00D-01 BMatC= 6.12D-14 BMatP= 4.49D-13
 IDIUse=1 WtCom= 1.00D+00 WtEn= 0.00D+00
 Coeff-Com: -0.791D-02-0.264D-02 0.555D-01 0.299D+00 0.656D+00
 Coeff:     -0.791D-02-0.264D-02 0.555D-01 0.299D+00 0.656D+00
 Gap=     0.244 Goal=   None    Shift=    0.000
 RMSDP=5.44D-09 MaxDP=4.98D-08 DE=-8.53D-13 OVMax= 6.70D-08

 SCF Done:  E(RPBE1PBE) =  -239.287725005     A.U. after   12 cycles
            NFock= 12  Conv=0.54D-08     -V/T= 2.0032
 KE= 2.385266271219D+02 PE=-7.069319952153D+02 EE= 1.647569340964D+02
 Leave Link  502 at Wed Oct  7 14:31:15 2020, MaxMem=  2684354560 cpu:              21.0 elap:               2.2
 (Enter /udrive/faculty/rpeverati/g16/g16/l508.exe)
 QCSCF skips out because SCF is already converged.
 Leave Link  508 at Wed Oct  7 14:31:16 2020, MaxMem=  2684354560 cpu:               0.6 elap:               0.5
 (Enter /udrive/faculty/rpeverati/g16/g16/l601.exe)
 Copying SCF densities to generalized density rwf, IOpCl= 0 IROHF=0.

 **********************************************************************

            Population analysis using the SCF density.

 **********************************************************************

 Orbital symmetries:
       Occupied  (A1) (A1) (A1) (A1) (A1) (A1) (A1) (E) (E) (E)
                 (E) (A1) (E) (E)
       Virtual   (A1) (A1) (E) (E) (E) (E) (A1) (E) (E) (A1) (A1)
                 (A1) (E) (E) (E) (E) (A1) (E) (E) (A1) (E) (E)
                 (A1) (A1) (E) (E) (E) (E) (E) (E) (A1) (E) (E)
                 (A1)
 The electronic state is 1-A1.
 Alpha  occ. eigenvalues --  -24.55146 -24.24895 -10.07856  -1.00229  -0.65968
 Alpha  occ. eigenvalues --   -0.50774  -0.28391  -0.28301  -0.28301  -0.15357
 Alpha  occ. eigenvalues --   -0.15357   0.06878   0.07310   0.07310
 Alpha virt. eigenvalues --    0.31732   0.36420   0.38599   0.38599   0.76053
 Alpha virt. eigenvalues --    0.76053   0.77451   1.08691   1.08691   1.11886
 Alpha virt. eigenvalues --    1.21676   1.45448   1.45954   1.45954   1.64519
 Alpha virt. eigenvalues --    1.64519   1.70552   1.72844   1.72844   1.96448
 Alpha virt. eigenvalues --    2.03737   2.03737   2.13723   2.26947   2.30647
 Alpha virt. eigenvalues --    2.30647   2.31383   2.31383   2.41755   2.41755
 Alpha virt. eigenvalues --    2.43700   2.60649   2.60649   3.21121
          Condensed to atoms (all electrons):
               1          2          3          4          5          6
     1  F    9.383989   0.132043  -0.029101  -0.029101  -0.029101   0.000089
     2  C    0.132043   4.919125   0.366921   0.366921   0.366921   0.027679
     3  H   -0.029101   0.366921   0.575124  -0.038758  -0.038758   0.011838
     4  H   -0.029101   0.366921  -0.038758   0.575124  -0.038758   0.011838
     5  H   -0.029101   0.366921  -0.038758  -0.038758   0.575124   0.011838
     6  F    0.000089   0.027679   0.011838   0.011838   0.011838   9.786493
 Mulliken charges:
               1
     1  F   -0.428817
     2  C   -0.179610
     3  H    0.152734
     4  H    0.152734
     5  H    0.152734
     6  F   -0.849776
 Sum of Mulliken charges =  -1.00000
 Mulliken charges with hydrogens summed into heavy atoms:
               1
     1  F   -0.428817
     2  C    0.278592
     6  F   -0.849776
 Electronic spatial extent (au):  <R**2>=            331.8912
 Charge=             -1.0000 electrons
 Dipole moment (field-independent basis, Debye):
    X=             -0.0000    Y=              0.0000    Z=             -6.1572  Tot=              6.1572
 Quadrupole moment (field-independent basis, Debye-Ang):
   XX=            -17.6403   YY=            -17.6403   ZZ=            -42.7731
   XY=             -0.0000   XZ=              0.0000   YZ=             -0.0000
 Traceless Quadrupole moment (field-independent basis, Debye-Ang):
   XX=              8.3776   YY=              8.3776   ZZ=            -16.7552
   XY=             -0.0000   XZ=              0.0000   YZ=             -0.0000
 Octapole moment (field-independent basis, Debye-Ang**2):
  XXX=             -0.0000  YYY=              0.4966  ZZZ=            -32.3495  XYY=              0.0000
  XXY=             -0.4966  XXZ=             -0.6519  XZZ=              0.0000  YZZ=              0.0000
  YYZ=             -0.6519  XYZ=             -0.0000
 Hexadecapole moment (field-independent basis, Debye-Ang**3):
 XXXX=            -19.7816 YYYY=            -19.7816 ZZZZ=           -377.3956 XXXY=              0.0000
 XXXZ=             -0.0000 YYYX=              0.0000 YYYZ=              0.0200 ZZZX=              0.0000
 ZZZY=              0.0000 XXYY=             -6.5939 XXZZ=            -49.3032 YYZZ=            -49.3032
 XXYZ=             -0.0200 YYXZ=             -0.0000 ZZXY=              0.0000
 N-N= 6.436070899159D+01 E-N=-7.069319934852D+02  KE= 2.385266271219D+02
 No NMR shielding tensors so no spin-rotation constants.
 Leave Link  601 at Wed Oct  7 14:31:17 2020, MaxMem=  2684354560 cpu:               3.6 elap:               0.8
 (Enter /udrive/faculty/rpeverati/g16/g16/l701.exe)
 ... and contract with generalized density number  0.
 Compute integral first derivatives.
 R6Disp: Adding Grimme-D3(BJ) dispersion energy 1st derivatives to the gradient.
 Leave Link  701 at Wed Oct  7 14:31:18 2020, MaxMem=  2684354560 cpu:               3.6 elap:               0.9
 (Enter /udrive/faculty/rpeverati/g16/g16/l702.exe)
 L702 exits ... SP integral derivatives will be done elsewhere.
 Leave Link  702 at Wed Oct  7 14:31:19 2020, MaxMem=  2684354560 cpu:               1.3 elap:               0.4
 (Enter /udrive/faculty/rpeverati/g16/g16/l703.exe)
 Integral derivatives from FoFJK, PRISM(SPDF).
 Compute integral first derivatives, UseDBF=F ICtDFT=           0.
 Calling FoFJK, ICntrl=      2127 FMM=F ISym2X=1 I1Cent= 0 IOpClX= 0 NMat=1 NMatS=1 NMatT=0.
 FoFJK:  IHMeth= 1 ICntrl=    2127 DoSepK=F KAlg= 0 I1Cent=           0 FoldK=F
 IRaf=         0 NMat=       1 IRICut=       1 DoRegI=T DoRafI=F ISym2E= 1 IDoP0=0 IntGTp=1.
 FoFCou: FMM=F IPFlag=           0 FMFlag=      100000 FMFlg1=         800
         NFxFlg=           0 DoJE=F BraDBF=F KetDBF=F FulRan=T
         wScrn=  0.000000 ICntrl=      2127 IOpCl=  0 I1Cent=           0 NGrid=           0
         NMat0=    1 NMatS0=      1 NMatT0=    0 NMatD0=    1 NMtDS0=    0 NMtDT0=    0
 Petite list used in FoFCou.
 Leave Link  703 at Wed Oct  7 14:31:20 2020, MaxMem=  2684354560 cpu:               5.2 elap:               0.7
 (Enter /udrive/faculty/rpeverati/g16/g16/l716.exe)
 Dipole        =-2.22044605D-16 1.11022302D-16-2.42244818D+00
 ***** Axes restored to original set *****
 -------------------------------------------------------------------
 Center     Atomic                   Forces (Hartrees/Bohr)
 Number     Number              X              Y              Z
 -------------------------------------------------------------------
      1        9          -0.000000000    0.000000000   -0.002221039
      2        6          -0.000000000   -0.000000000   -0.006622858
      3        1          -0.001461602    0.002531569    0.006039853
      4        1          -0.001461602   -0.002531569    0.006039853
      5        1           0.002923204    0.000000000    0.006039853
      6        9          -0.000000000    0.000000000   -0.009275663
 -------------------------------------------------------------------
 Cartesian Forces:  Max     0.009275663 RMS     0.003872324
 Leave Link  716 at Wed Oct  7 14:31:21 2020, MaxMem=  2684354560 cpu:               1.9 elap:               0.5
 (Enter /udrive/faculty/rpeverati/g16/g16/l103.exe)

 GradGradGradGradGradGradGradGradGradGradGradGradGradGradGradGradGradGrad
 Berny optimization.
 Optmz: redundant internal coordinate code flag= 1
 FormGI is forming the generalized inverse of G from B-inverse, IUseBI=4.
 Internal  Forces:  Max     0.004394411 RMS     0.002163982
 Search for a local minimum.
 Step number   1 out of a maximum of  100
 All quantities printed in internal units (Hartrees-Bohrs-Radians)
 RMS Force = .21640D-02 SwitMx=.10000D-02 MixMth= 1
 Mixed Optimization -- RFO/linear search
 Second derivative matrix not updated -- first step.
 The second derivative matrix:
                          R1        R2        R3        R4        R5
           R1           0.41605
           R2           0.00000   0.35858
           R3           0.00000   0.00000   0.35858
           R4           0.00000   0.00000   0.00000   0.35858
           R5           0.00000   0.00000   0.00000   0.00000   0.03206
           R6           0.00000   0.00000   0.00000   0.00000   0.00000
           R7           0.00000   0.00000   0.00000   0.00000   0.00000
           R8           0.00000   0.00000   0.00000   0.00000   0.00000
           A1           0.00000   0.00000   0.00000   0.00000   0.00000
           A2           0.00000   0.00000   0.00000   0.00000   0.00000
           A3           0.00000   0.00000   0.00000   0.00000   0.00000
           A4           0.00000   0.00000   0.00000   0.00000   0.00000
           A5           0.00000   0.00000   0.00000   0.00000   0.00000
           A6           0.00000   0.00000   0.00000   0.00000   0.00000
           A7           0.00000   0.00000   0.00000   0.00000   0.00000
           A8           0.00000   0.00000   0.00000   0.00000   0.00000
           A9           0.00000   0.00000   0.00000   0.00000   0.00000
           A10          0.00000   0.00000   0.00000   0.00000   0.00000
           A11          0.00000   0.00000   0.00000   0.00000   0.00000
           D1           0.00000   0.00000   0.00000   0.00000   0.00000
           D2           0.00000   0.00000   0.00000   0.00000   0.00000
           D3           0.00000   0.00000   0.00000   0.00000   0.00000
           D4           0.00000   0.00000   0.00000   0.00000   0.00000
                          R6        R7        R8        A1        A2
           R6           0.02211
           R7           0.00000   0.02211
           R8           0.00000   0.00000   0.02211
           A1           0.00000   0.00000   0.00000   0.16000
           A2           0.00000   0.00000   0.00000   0.00000   0.16000
           A3           0.00000   0.00000   0.00000   0.00000   0.00000
           A4           0.00000   0.00000   0.00000   0.00000   0.00000
           A5           0.00000   0.00000   0.00000   0.00000   0.00000
           A6           0.00000   0.00000   0.00000   0.00000   0.00000
           A7           0.00000   0.00000   0.00000   0.00000   0.00000
           A8           0.00000   0.00000   0.00000   0.00000   0.00000
           A9           0.00000   0.00000   0.00000   0.00000   0.00000
           A10          0.00000   0.00000   0.00000   0.00000   0.00000
           A11          0.00000   0.00000   0.00000   0.00000   0.00000
           D1           0.00000   0.00000   0.00000   0.00000   0.00000
           D2           0.00000   0.00000   0.00000   0.00000   0.00000
           D3           0.00000   0.00000   0.00000   0.00000   0.00000
           D4           0.00000   0.00000   0.00000   0.00000   0.00000
                          A3        A4        A5        A6        A7
           A3           0.16000
           A4           0.00000   0.16000
           A5           0.00000   0.00000   0.16000
           A6           0.00000   0.00000   0.00000   0.16000
           A7           0.00000   0.00000   0.00000   0.00000   0.16000
           A8           0.00000   0.00000   0.00000   0.00000   0.00000
           A9           0.00000   0.00000   0.00000   0.00000   0.00000
           A10          0.00000   0.00000   0.00000   0.00000   0.00000
           A11          0.00000   0.00000   0.00000   0.00000   0.00000
           D1           0.00000   0.00000   0.00000   0.00000   0.00000
           D2           0.00000   0.00000   0.00000   0.00000   0.00000
           D3           0.00000   0.00000   0.00000   0.00000   0.00000
           D4           0.00000   0.00000   0.00000   0.00000   0.00000
                          A8        A9        A10       A11       D1
           A8           0.16000
           A9           0.00000   0.16000
           A10          0.00000   0.00000   0.00230
           A11          0.00000   0.00000   0.00000   0.00230
           D1           0.00000   0.00000   0.00000   0.00000   0.00352
           D2           0.00000   0.00000   0.00000   0.00000   0.00000
           D3           0.00000   0.00000   0.00000   0.00000   0.00000
           D4           0.00000   0.00000   0.00000   0.00000   0.00000
                          D2        D3        D4
           D2           0.00230
           D3           0.00000   0.00230
           D4           0.00000   0.00000   0.00230
 ITU=  0
 Eigenvectors of the second derivative matrix:
                           1         2         3         4         5
     Eigenvalues --     0.01937   0.01957   0.02718   0.06332   0.10012
   1         R1        -0.00000  -0.00000   0.00000  -0.00000   0.00000
   2         R2        -0.00050   0.00294  -0.01151   0.00368  -0.00014
   3         R3         0.00388  -0.00003  -0.01126   0.01113  -0.01082
   4         R4        -0.00336  -0.00286  -0.01124  -0.00431   0.01086
   5         R5        -0.00030  -0.00049  -0.49552   0.38914   0.02315
   6         R6        -0.12003   0.72762  -0.49469  -0.09943  -0.00598
   7         R7         0.68591  -0.25935  -0.49378  -0.09494  -0.20605
   8         R8        -0.56526  -0.46864  -0.49371  -0.08258   0.19067
   9         A1        -0.00544   0.03181   0.02094   0.21705   0.00695
  10         A2         0.03289  -0.01097   0.02100   0.21784   0.56552
  11         A3        -0.02816  -0.02132   0.02101   0.22391  -0.53092
  12         A4         0.00768   0.00499  -0.02430  -0.41432   0.03489
  13         A5        -0.00736   0.00244  -0.01850  -0.11357  -0.07149
  14         A6         0.00037  -0.00697  -0.01850  -0.11376  -0.00388
  15         A7        -0.04466  -0.03731   0.07186  -0.09312   0.02512
  16         A8         0.05465  -0.02101   0.07343  -0.01564  -0.03279
  17         A9        -0.00990   0.05852   0.07340  -0.01465   0.00024
  18         A10       -0.06434   0.38993  -0.00034  -0.00606  -0.00633
  19         A11        0.41244   0.06903  -0.00003  -0.00789   0.55025
  20         D1         0.00502   0.00327  -0.05479  -0.66846  -0.00592
  21         D2         0.06788   0.08163   0.01140   0.12127  -0.05898
  22         D3         0.09105  -0.05482  -0.00774   0.06959  -0.06471
  23         D4         0.03607  -0.10125   0.00786  -0.06980  -0.00942
                           6         7         8         9        10
     Eigenvalues --     0.10324   0.11592   0.11812   0.32840   0.33561
   1         R1         0.00000  -0.00000   0.00000   0.00000   0.00000
   2         R2        -0.00357  -0.01043   0.01970  -0.16511   0.66405
   3         R3        -0.00368   0.04544  -0.01732   0.11063   0.67122
   4         R4         0.00704  -0.03131  -0.00219   0.92151   0.02186
   5         R5         0.01997  -0.22239  -0.01422  -0.00703  -0.00330
   6         R6        -0.21056   0.01817   0.08542   0.00778   0.01690
   7         R7         0.09234   0.04840  -0.07930   0.01619   0.01721
   8         R8         0.09950   0.14652   0.00748   0.02084   0.01310
   9         A1         0.65301  -0.07351  -0.09341  -0.00683   0.01933
  10         A2        -0.30240  -0.11020   0.07463  -0.00182   0.01986
  11         A3        -0.31462  -0.21926  -0.00699   0.02105   0.00181
  12         A4         0.03296  -0.47242  -0.03116  -0.02515   0.02443
  13         A5         0.03377   0.40117   0.60571   0.02293  -0.03177
  14         A6        -0.10178   0.46373  -0.54945  -0.00986  -0.03260
  15         A7         0.01745  -0.12687  -0.00850  -0.01916   0.25727
  16         A8         0.01910   0.08693   0.15958   0.14742   0.11911
  17         A9        -0.04299   0.11195  -0.14649   0.19018   0.12022
  18         A10        0.54065   0.03539  -0.04601   0.00849  -0.00448
  19         A11        0.00563   0.03469   0.02420   0.00968  -0.00780
  20         D1        -0.00350  -0.02223  -0.00199  -0.02289  -0.01178
  21         D2        -0.04899   0.38114   0.02174   0.06237   0.00102
  22         D3         0.04687   0.16997   0.36684  -0.15993   0.06598
  23         D4         0.08868  -0.21253   0.34150   0.14260  -0.06643
                          11        12
     Eigenvalues --     0.33920   0.41605
   1         R1         0.00000   1.00000
   2         R2         0.66583  -0.00000
   3         R3        -0.66525  -0.00000
   4         R4         0.19305  -0.00000
   5         R5        -0.01796   0.00000
   6         R6         0.03196   0.00000
   7         R7        -0.00513  -0.00000
   8         R8        -0.00334  -0.00000
   9         A1         0.00170  -0.00000
  10         A2        -0.02618   0.00000
  11         A3        -0.00137   0.00000
  12         A4        -0.07509  -0.00000
  13         A5        -0.02841  -0.00000
  14         A6         0.12868   0.00000
  15         A7        -0.02247  -0.00000
  16         A8         0.15297  -0.00000
  17         A9        -0.05409  -0.00000
  18         A10       -0.00823  -0.00000
  19         A11        0.01082   0.00000
  20         D1        -0.02803  -0.00000
  21         D2        -0.14246   0.00000
  22         D3         0.03695  -0.00000
  23         D4         0.04805  -0.00000
 Iter=   1 RLamda= 0.00000000D+00 Sum=-1.30707841D-03.
 Iter=   2 RLamda=-1.30707841D-03 Sum=-1.26024981D-03.
 Iter=   3 RLamda=-1.26024981D-03 Sum=-1.26185711D-03.
 Iter=   4 RLamda=-1.26185711D-03 Sum=-1.26180186D-03.
 Iter=   5 RLamda=-1.26180186D-03 Sum=-1.26180375D-03.
 RFO step:  Lambda=-1.26180186D-03 EMin= 1.93662982D-02
 Linear search not attempted -- first point.
 Iteration  1 RMS(Cart)=  0.01861207 RMS(Int)=  0.00024145
 Iteration  2 RMS(Cart)=  0.00014691 RMS(Int)=  0.00016300
 Iteration  3 RMS(Cart)=  0.00000002 RMS(Int)=  0.00016300
 ITry= 1 IFail=0 DXMaxC= 7.24D-02 DCOld= 1.00D+10 DXMaxT= 3.00D-01 DXLimC= 3.00D+00 Rises=F
 ClnCor:  largest displacement from symmetrization is 2.66D-04 for atom     4.
 Variable       Old X    -DE/DX   Delta X   Delta X   Delta X     New X
                                 (Linear)    (Quad)   (Total)
    R1        2.69428   0.00222   0.00000   0.00532   0.00532   2.69961
    R2        2.04304   0.00435   0.00000   0.01119   0.01119   2.05423
    R3        2.04304   0.00439   0.00000   0.01119   0.01119   2.05423
    R4        2.04304   0.00424   0.00000   0.01119   0.01119   2.05423
    R5        4.86673  -0.00103   0.00000  -0.06729  -0.06721   4.79953
    R6        4.63224  -0.00269   0.00000  -0.09242  -0.09241   4.53982
    R7        4.63224  -0.00269   0.00000  -0.09241  -0.09241   4.53982
    R8        4.63224  -0.00277   0.00000  -0.09251  -0.09241   4.53982
    A1        1.89855   0.00109   0.00000   0.01597   0.01599   1.91453
    A2        1.89855   0.00109   0.00000   0.01597   0.01599   1.91453
    A3        1.89855   0.00110   0.00000   0.01597   0.01599   1.91453
    A4        1.92256  -0.00042   0.00000  -0.01512  -0.01585   1.90672
    A5        1.92256  -0.00138   0.00000  -0.01577  -0.01585   1.90672
    A6        1.92256  -0.00139   0.00000  -0.01577  -0.01585   1.90672
    A7        0.74003   0.00200   0.00000   0.01563   0.01572   0.75575
    A8        0.74003   0.00171   0.00000   0.01546   0.01572   0.75575
    A9        0.74003   0.00172   0.00000   0.01546   0.01572   0.75575
   A10        3.14159   0.00001   0.00000   0.00001   0.00000   3.14159
   A11        3.14159   0.00001   0.00000   0.00003   0.00000   3.14159
    D1        2.12432  -0.00236   0.00000  -0.03970  -0.03944   2.08488
    D2        0.56604  -0.00017   0.00000   0.00165   0.00196   0.56801
    D3       -0.56604  -0.00041   0.00000  -0.00205  -0.00196  -0.56801
    D4        0.56604   0.00040   0.00000   0.00205   0.00196   0.56801
         Item               Value     Threshold  Converged?
 Maximum Force            0.004394     0.000450     NO 
 RMS     Force            0.002164     0.000300     NO 
 Maximum Displacement     0.072425     0.001800     NO 
 RMS     Displacement     0.018621     0.001200     NO 
 Predicted change in Energy=-6.497315D-04
 Lowest energy point so far.  Saving SCF results.
 Largest change from initial coordinates is atom    6       0.038 Angstoms.
 GradGradGradGradGradGradGradGradGradGradGradGradGradGradGradGradGradGrad

 Leave Link  103 at Wed Oct  7 14:31:22 2020, MaxMem=  2684354560 cpu:               4.2 elap:               0.9
 (Enter /udrive/faculty/rpeverati/g16/g16/l202.exe)
                          Input orientation:                          
 ---------------------------------------------------------------------
 Center     Atomic      Atomic             Coordinates (Angstroms)
 Number     Number       Type             X           Y           Z
 ---------------------------------------------------------------------
      1          9           0        0.000000    0.000000   -1.796948
      2          6           0        0.000000    0.000000   -0.368377
      3          1           0       -0.511732    0.886346   -0.002033
      4          1           0       -0.511732   -0.886346   -0.002033
      5          1           0        1.023464   -0.000000   -0.002033
      6          9           0        0.000000    0.000000    2.171422
 ---------------------------------------------------------------------
                    Distance matrix (angstroms):
                    1          2          3          4          5
     1  F    0.000000
     2  C    1.428571   0.000000
     3  H    2.066203   1.087054   0.000000
     4  H    2.066203   1.087054   1.772691   0.000000
     5  H    2.066203   1.087054   1.772691   1.772691   0.000000
     6  F    3.968370   2.539800   2.402372   2.402372   2.402372
                    6
     6  F    0.000000
 Stoichiometry    CH3F2(1-)
 Framework group  C3V[C3(FCF),3SGV(H)]
 Deg. of freedom     4
 Full point group                 C3V     NOp   6
 RotChk:  IX=0 Diff= 0.00D+00
 Largest Abelian subgroup         CS      NOp   2
 Largest concise Abelian subgroup CS      NOp   2
                         Standard orientation:                         
 ---------------------------------------------------------------------
 Center     Atomic      Atomic             Coordinates (Angstroms)
 Number     Number       Type             X           Y           Z
 ---------------------------------------------------------------------
      1          9           0        0.000000    0.000000   -1.839685
      2          6           0        0.000000    0.000000   -0.411115
      3          1           0       -0.000000    1.023464   -0.044771
      4          1           0       -0.886346   -0.511732   -0.044771
      5          1           0        0.886346   -0.511732   -0.044771
      6          9           0        0.000000    0.000000    2.128685
 ---------------------------------------------------------------------
 Rotational constants (GHZ):         159.5753544           3.2816635           3.2816635
 Leave Link  202 at Wed Oct  7 14:31:23 2020, MaxMem=  2684354560 cpu:               2.0 elap:               0.5
 (Enter /udrive/faculty/rpeverati/g16/g16/l301.exe)
 Standard basis: 6-31G(d) (5D, 7F)
 Ernie: Thresh=  0.10000D-02 Tol=  0.10000D-05 Strict=F.
 There are    37 symmetry adapted cartesian basis functions of A'  symmetry.
 There are    14 symmetry adapted cartesian basis functions of A"  symmetry.
 There are    34 symmetry adapted basis functions of A'  symmetry.
 There are    14 symmetry adapted basis functions of A"  symmetry.
    48 basis functions,    96 primitive gaussians,    51 cartesian basis functions
    14 alpha electrons       14 beta electrons
       nuclear repulsion energy        64.5755703406 Hartrees.
 IExCor= 1009 DFT=T Ex+Corr=PBE1PBE ExCW=0 ScaHFX=  0.250000
 ScaDFX=  0.750000  0.750000  1.000000  1.000000 ScalE2=  1.000000  1.000000
 IRadAn=      5 IRanWt=     -1 IRanGd=            0 ICorTp=0 IEmpDi=141
 NAtoms=    6 NActive=    6 NUniq=    4 SFac= 2.25D+00 NAtFMM=   60 NAOKFM=F Big=F
 Integral buffers will be    131072 words long.
 Raffenetti 2 integral format.
 Two-electron integral symmetry is turned on.
 R6Disp:  Grimme-D3(BJ) Dispersion energy=       -0.0015321684 Hartrees.
 Nuclear repulsion after empirical dispersion term =       64.5740381722 Hartrees.
 Leave Link  301 at Wed Oct  7 14:31:24 2020, MaxMem=  2684354560 cpu:               2.7 elap:               0.7
 (Enter /udrive/faculty/rpeverati/g16/g16/l302.exe)
 NPDir=0 NMtPBC=     1 NCelOv=     1 NCel=       1 NClECP=     1 NCelD=      1
         NCelK=      1 NCelE2=     1 NClLst=     1 CellRange=     0.0.
 One-electron integrals computed using PRISM.
 One-electron integral symmetry used in STVInt
 NBasis=    48 RedAO= T EigKep=  1.91D-02  NBF=    34    14
 NBsUse=    48 1.00D-06 EigRej= -1.00D+00 NBFU=    34    14
 Precomputing XC quadrature grid using
 IXCGrd= 4 IRadAn=           5 IRanWt=          -1 IRanGd=           0 AccXCQ= 0.00D+00.
 Generated NRdTot=       0 NPtTot=           0 NUsed=           0 NTot=          32
 NSgBfM=    51    51    51    51    51 MxSgAt=     6 MxSgA2=     6.
 Leave Link  302 at Wed Oct  7 14:31:25 2020, MaxMem=  2684354560 cpu:               3.9 elap:               0.6
 (Enter /udrive/faculty/rpeverati/g16/g16/l303.exe)
 DipDrv:  MaxL=1.
 Leave Link  303 at Wed Oct  7 14:31:25 2020, MaxMem=  2684354560 cpu:               1.6 elap:               0.5
 (Enter /udrive/faculty/rpeverati/g16/g16/l401.exe)
 Initial guess from the checkpoint file:  "MN_38_fch3fcomp_BH76_PBE0DBJ_631Gs.chk"
 SCF N**3 symmetry information disabled.
 B after Tr=    -0.000000   -0.000000   -0.000000
         Rot=    1.000000    0.000000    0.000000    0.000000 Ang=   0.00 deg.
 Guess basis will be translated and rotated to current coordinates.
 JPrj=2 DoOrth=T DoCkMO=T.
 Initial guess orbital symmetries:
       Occupied  (A1) (A1) (A1) (A1) (A1) (A1) (A1) (E) (E) (E)
                 (E) (A1) (E) (E)
       Virtual   (A1) (A1) (E) (E) (E) (E) (A1) (E) (E) (A1) (A1)
                 (A1) (E) (E) (E) (E) (A1) (E) (E) (A1) (E) (E)
                 (A1) (A1) (E) (E) (E) (E) (E) (E) (A1) (E) (E)
                 (A1)
 The electronic state of the initial guess is 1-A1.
 Generating alternative initial guess.
 ExpMin= 1.61D-01 ExpMax= 7.00D+03 ExpMxC= 1.05D+03 IAcc=2 IRadAn=         4 AccDes= 0.00D+00
 Harris functional with IExCor= 1009 and IRadAn=       4 diagonalized for initial guess.
 HarFok:  IExCor= 1009 AccDes= 0.00D+00 IRadAn=         4 IDoV= 1 UseB2=F ITyADJ=14
 ICtDFT=  3500011 ScaDFX=  1.000000  1.000000  1.000000  1.000000
 FoFCou: FMM=F IPFlag=           0 FMFlag=      100000 FMFlg1=           0
         NFxFlg=           0 DoJE=T BraDBF=F KetDBF=T FulRan=T
         wScrn=  0.000000 ICntrl=       500 IOpCl=  0 I1Cent=   200000004 NGrid=           0
         NMat0=    1 NMatS0=      1 NMatT0=    0 NMatD0=    1 NMtDS0=    0 NMtDT0=    0
 Petite list used in FoFCou.
 Harris En= -239.573927457898    
 Leave Link  401 at Wed Oct  7 14:31:27 2020, MaxMem=  2684354560 cpu:               7.6 elap:               1.0
 (Enter /udrive/faculty/rpeverati/g16/g16/l502.exe)
 Keep R1 ints in memory in symmetry-blocked form, NReq=11153107.
 FoFCou: FMM=F IPFlag=           0 FMFlag=           0 FMFlg1=           0
         NFxFlg=           0 DoJE=F BraDBF=F KetDBF=F FulRan=T
         wScrn=  0.000000 ICntrl=       600 IOpCl=  0 I1Cent=           0 NGrid=           0
         NMat0=    1 NMatS0=   1176 NMatT0=    0 NMatD0=    1 NMtDS0=    0 NMtDT0=    0
 Petite list used in FoFCou.
 Closed shell SCF:
 Using DIIS extrapolation, IDIIS=  1040.
 NGot=  2684354560 LenX=  2683985987 LenY=  2683982945
 Requested convergence on RMS density matrix=1.00D-08 within 120 cycles.
 Requested convergence on MAX density matrix=1.00D-06.
 Requested convergence on             energy=1.00D-06.
 No special actions if energy rises.
 Integral accuracy reduced to 1.0D-05 until final iterations.

 Cycle   1  Pass 0  IDiag  1:
 E= -239.288671399424    
 DIIS: error= 1.12D-03 at cycle   1 NSaved=   1.
 NSaved= 1 IEnMin= 1 EnMin= -239.288671399424     IErMin= 1 ErrMin= 1.12D-03
 ErrMax= 1.12D-03  0.00D+00 EMaxC= 1.00D-01 BMatC= 7.23D-05 BMatP= 7.23D-05
 IDIUse=3 WtCom= 9.89D-01 WtEn= 1.12D-02
 Coeff-Com:  0.100D+01
 Coeff-En:   0.100D+01
 Coeff:      0.100D+01
 Gap=     0.252 Goal=   None    Shift=    0.000
 GapD=    0.252 DampG=1.000 DampE=1.000 DampFc=1.0000 IDamp=-1.
 RMSDP=3.23D-04 MaxDP=2.77D-03              OVMax= 2.97D-03

 Cycle   2  Pass 0  IDiag  1:
 E= -239.288736972777     Delta-E=       -0.000065573353 Rises=F Damp=F
 DIIS: error= 8.07D-04 at cycle   2 NSaved=   2.
 NSaved= 2 IEnMin= 2 EnMin= -239.288736972777     IErMin= 2 ErrMin= 8.07D-04
 ErrMax= 8.07D-04  0.00D+00 EMaxC= 1.00D-01 BMatC= 3.16D-05 BMatP= 7.23D-05
 IDIUse=3 WtCom= 9.92D-01 WtEn= 8.07D-03
 Coeff-Com:  0.368D+00 0.632D+00
 Coeff-En:   0.000D+00 0.100D+01
 Coeff:      0.365D+00 0.635D+00
 Gap=     0.249 Goal=   None    Shift=    0.000
 RMSDP=1.52D-04 MaxDP=1.39D-03 DE=-6.56D-05 OVMax= 1.96D-03

 Cycle   3  Pass 0  IDiag  1:
 E= -239.288757784947     Delta-E=       -0.000020812171 Rises=F Damp=F
 DIIS: error= 4.52D-04 at cycle   3 NSaved=   3.
 NSaved= 3 IEnMin= 3 EnMin= -239.288757784947     IErMin= 3 ErrMin= 4.52D-04
 ErrMax= 4.52D-04  0.00D+00 EMaxC= 1.00D-01 BMatC= 8.45D-06 BMatP= 3.16D-05
 IDIUse=3 WtCom= 9.95D-01 WtEn= 4.52D-03
 Coeff-Com: -0.961D-02 0.336D+00 0.674D+00
 Coeff-En:   0.000D+00 0.180D+00 0.820D+00
 Coeff:     -0.957D-02 0.335D+00 0.674D+00
 Gap=     0.250 Goal=   None    Shift=    0.000
 RMSDP=4.33D-05 MaxDP=5.13D-04 DE=-2.08D-05 OVMax= 7.61D-04

 Cycle   4  Pass 0  IDiag  1:
 E= -239.288763827576     Delta-E=       -0.000006042629 Rises=F Damp=F
 DIIS: error= 7.15D-05 at cycle   4 NSaved=   4.
 NSaved= 4 IEnMin= 4 EnMin= -239.288763827576     IErMin= 4 ErrMin= 7.15D-05
 ErrMax= 7.15D-05  0.00D+00 EMaxC= 1.00D-01 BMatC= 1.73D-07 BMatP= 8.45D-06
 IDIUse=1 WtCom= 1.00D+00 WtEn= 0.00D+00
 Coeff-Com: -0.106D-01 0.142D+00 0.294D+00 0.574D+00
 Coeff:     -0.106D-01 0.142D+00 0.294D+00 0.574D+00
 Gap=     0.250 Goal=   None    Shift=    0.000
 RMSDP=7.75D-06 MaxDP=1.02D-04 DE=-6.04D-06 OVMax= 9.35D-05

 Initial convergence to 1.0D-05 achieved.  Increase integral accuracy.
 Cycle   5  Pass 1  IDiag  1:
 E= -239.288760015119     Delta-E=        0.000003812457 Rises=F Damp=F
 DIIS: error= 9.82D-06 at cycle   1 NSaved=   1.
 NSaved= 1 IEnMin= 1 EnMin= -239.288760015119     IErMin= 1 ErrMin= 9.82D-06
 ErrMax= 9.82D-06  0.00D+00 EMaxC= 1.00D-01 BMatC= 2.90D-09 BMatP= 2.90D-09
 IDIUse=1 WtCom= 1.00D+00 WtEn= 0.00D+00
 Coeff-Com:  0.100D+01
 Coeff:      0.100D+01
 Gap=     0.250 Goal=   None    Shift=    0.000
 RMSDP=7.75D-06 MaxDP=1.02D-04 DE= 3.81D-06 OVMax= 2.92D-05

 Cycle   6  Pass 1  IDiag  1:
 E= -239.288760015368     Delta-E=       -0.000000000249 Rises=F Damp=F
 DIIS: error= 1.22D-05 at cycle   2 NSaved=   2.
 NSaved= 2 IEnMin= 2 EnMin= -239.288760015368     IErMin= 1 ErrMin= 9.82D-06
 ErrMax= 1.22D-05  0.00D+00 EMaxC= 1.00D-01 BMatC= 3.35D-09 BMatP= 2.90D-09
 IDIUse=1 WtCom= 1.00D+00 WtEn= 0.00D+00
 Coeff-Com:  0.518D+00 0.482D+00
 Coeff:      0.518D+00 0.482D+00
 Gap=     0.250 Goal=   None    Shift=    0.000
 RMSDP=1.00D-06 MaxDP=1.10D-05 DE=-2.49D-10 OVMax= 1.28D-05

 Cycle   7  Pass 1  IDiag  1:
 E= -239.288760017540     Delta-E=       -0.000000002172 Rises=F Damp=F
 DIIS: error= 1.26D-06 at cycle   3 NSaved=   3.
 NSaved= 3 IEnMin= 3 EnMin= -239.288760017540     IErMin= 3 ErrMin= 1.26D-06
 ErrMax= 1.26D-06  0.00D+00 EMaxC= 1.00D-01 BMatC= 3.94D-11 BMatP= 2.90D-09
 IDIUse=1 WtCom= 1.00D+00 WtEn= 0.00D+00
 Coeff-Com:  0.173D+00 0.188D+00 0.639D+00
 Coeff:      0.173D+00 0.188D+00 0.639D+00
 Gap=     0.250 Goal=   None    Shift=    0.000
 RMSDP=1.76D-07 MaxDP=1.79D-06 DE=-2.17D-09 OVMax= 3.74D-06

 Cycle   8  Pass 1  IDiag  1:
 E= -239.288760017569     Delta-E=       -0.000000000029 Rises=F Damp=F
 DIIS: error= 3.62D-07 at cycle   4 NSaved=   4.
 NSaved= 4 IEnMin= 4 EnMin= -239.288760017569     IErMin= 4 ErrMin= 3.62D-07
 ErrMax= 3.62D-07  0.00D+00 EMaxC= 1.00D-01 BMatC= 5.98D-12 BMatP= 3.94D-11
 IDIUse=1 WtCom= 1.00D+00 WtEn= 0.00D+00
 Coeff-Com: -0.221D-01-0.101D-01 0.280D+00 0.752D+00
 Coeff:     -0.221D-01-0.101D-01 0.280D+00 0.752D+00
 Gap=     0.250 Goal=   None    Shift=    0.000
 RMSDP=8.93D-08 MaxDP=9.49D-07 DE=-2.90D-11 OVMax= 9.54D-07

 Cycle   9  Pass 1  IDiag  1:
 E= -239.288760017575     Delta-E=       -0.000000000006 Rises=F Damp=F
 DIIS: error= 4.59D-08 at cycle   5 NSaved=   5.
 NSaved= 5 IEnMin= 5 EnMin= -239.288760017575     IErMin= 5 ErrMin= 4.59D-08
 ErrMax= 4.59D-08  0.00D+00 EMaxC= 1.00D-01 BMatC= 5.85D-14 BMatP= 5.98D-12
 IDIUse=1 WtCom= 1.00D+00 WtEn= 0.00D+00
 Coeff-Com: -0.111D-01-0.943D-02 0.386D-01 0.151D+00 0.831D+00
 Coeff:     -0.111D-01-0.943D-02 0.386D-01 0.151D+00 0.831D+00
 Gap=     0.250 Goal=   None    Shift=    0.000
 RMSDP=1.25D-08 MaxDP=1.20D-07 DE=-6.14D-12 OVMax= 1.45D-07

 Cycle  10  Pass 1  IDiag  1:
 E= -239.288760017575     Delta-E=        0.000000000000 Rises=F Damp=F
 DIIS: error= 1.47D-08 at cycle   6 NSaved=   6.
 NSaved= 6 IEnMin= 5 EnMin= -239.288760017575     IErMin= 6 ErrMin= 1.47D-08
 ErrMax= 1.47D-08  0.00D+00 EMaxC= 1.00D-01 BMatC= 1.19D-14 BMatP= 5.85D-14
 IDIUse=1 WtCom= 1.00D+00 WtEn= 0.00D+00
 Coeff-Com: -0.481D-02-0.439D-02 0.118D-01 0.493D-01 0.404D+00 0.544D+00
 Coeff:     -0.481D-02-0.439D-02 0.118D-01 0.493D-01 0.404D+00 0.544D+00
 Gap=     0.250 Goal=   None    Shift=    0.000
 RMSDP=1.94D-09 MaxDP=2.57D-08 DE= 2.27D-13 OVMax= 3.55D-08

 SCF Done:  E(RPBE1PBE) =  -239.288760018     A.U. after   10 cycles
            NFock= 10  Conv=0.19D-08     -V/T= 2.0033
 KE= 2.384957921382D+02 PE=-7.073535332325D+02 EE= 1.649949429044D+02
 Leave Link  502 at Wed Oct  7 14:31:29 2020, MaxMem=  2684354560 cpu:              14.5 elap:               1.7
 (Enter /udrive/faculty/rpeverati/g16/g16/l508.exe)
 QCSCF skips out because SCF is already converged.
 Leave Link  508 at Wed Oct  7 14:31:29 2020, MaxMem=  2684354560 cpu:               0.2 elap:               0.5
 (Enter /udrive/faculty/rpeverati/g16/g16/l701.exe)
 ... and contract with generalized density number  0.
 Compute integral first derivatives.
 R6Disp: Adding Grimme-D3(BJ) dispersion energy 1st derivatives to the gradient.
 Leave Link  701 at Wed Oct  7 14:31:30 2020, MaxMem=  2684354560 cpu:               3.5 elap:               0.6
 (Enter /udrive/faculty/rpeverati/g16/g16/l702.exe)
 L702 exits ... SP integral derivatives will be done elsewhere.
 Leave Link  702 at Wed Oct  7 14:31:31 2020, MaxMem=  2684354560 cpu:               1.3 elap:               0.4
 (Enter /udrive/faculty/rpeverati/g16/g16/l703.exe)
 Integral derivatives from FoFJK, PRISM(SPDF).
 Compute integral first derivatives, UseDBF=F ICtDFT=           0.
 Calling FoFJK, ICntrl=      2127 FMM=F ISym2X=1 I1Cent= 0 IOpClX= 0 NMat=1 NMatS=1 NMatT=0.
 FoFJK:  IHMeth= 1 ICntrl=    2127 DoSepK=F KAlg= 0 I1Cent=           0 FoldK=F
 IRaf=         0 NMat=       1 IRICut=       1 DoRegI=T DoRafI=F ISym2E= 1 IDoP0=0 IntGTp=1.
 FoFCou: FMM=F IPFlag=           0 FMFlag=      100000 FMFlg1=         800
         NFxFlg=           0 DoJE=F BraDBF=F KetDBF=F FulRan=T
         wScrn=  0.000000 ICntrl=      2127 IOpCl=  0 I1Cent=           0 NGrid=           0
         NMat0=    1 NMatS0=      1 NMatT0=    0 NMatD0=    1 NMtDS0=    0 NMtDT0=    0
 Petite list used in FoFCou.
 Leave Link  703 at Wed Oct  7 14:31:32 2020, MaxMem=  2684354560 cpu:               5.2 elap:               0.8
 (Enter /udrive/faculty/rpeverati/g16/g16/l716.exe)
 Dipole        =-2.22044605D-16-1.11022302D-16-2.34636239D+00
 ***** Axes restored to original set *****
 -------------------------------------------------------------------
 Center     Atomic                   Forces (Hartrees/Bohr)
 Number     Number              X              Y              Z
 -------------------------------------------------------------------
      1        9          -0.000000000    0.000000000    0.001198648
      2        6          -0.000000000   -0.000000000   -0.001334959
      3        1           0.000118897   -0.000205935    0.002691928
      4        1           0.000118897    0.000205935    0.002691928
      5        1          -0.000237794   -0.000000000    0.002691928
      6        9          -0.000000000    0.000000000   -0.007939474
 -------------------------------------------------------------------
 Cartesian Forces:  Max     0.007939474 RMS     0.002213132
 Leave Link  716 at Wed Oct  7 14:31:33 2020, MaxMem=  2684354560 cpu:               1.5 elap:               0.5
 (Enter /udrive/faculty/rpeverati/g16/g16/l103.exe)

 GradGradGradGradGradGradGradGradGradGradGradGradGradGradGradGradGradGrad
 Berny optimization.
 Optmz: redundant internal coordinate code flag= 1
 Using GEDIIS/GDIIS optimizer.
 Red2BG:  D1=  5.20D-01 OD1=  6.24D-02 B2RMS=  0.00D+00 IAprox=0
 FormGI is forming the generalized inverse of G from B-inverse, IUseBI=4.
 Internal  Forces:  Max     0.002154616 RMS     0.000971692
 Search for a local minimum.
 Step number   2 out of a maximum of  100
 All quantities printed in internal units (Hartrees-Bohrs-Radians)
 RMS Force = .97169D-03 SwitMx=.10000D-02 MixMth= 2
 Mixed Optimization -- En-DIIS/RFO-DIIS
 Update second derivatives using D2CorX and points    1    2
 DE= -1.04D-03 DEPred=-6.50D-04 R= 1.59D+00
 TightC=F SS=  1.41D+00  RLast= 1.85D-01 DXNew= 5.0454D-01 5.5617D-01
 Trust test= 1.59D+00 RLast= 1.85D-01 DXMaxT set to 5.05D-01
 The second derivative matrix:
                          R1        R2        R3        R4        R5
           R1           0.43776
           R2           0.02025   0.37486
           R3           0.02057   0.01662   0.37554
           R4           0.01970   0.01569   0.01602   0.37369
           R5           0.01010   0.01370   0.01377   0.01356   0.02977
           R6          -0.00047   0.00224   0.00219   0.00233  -0.00460
           R7          -0.00049   0.00222   0.00217   0.00231  -0.00460
           R8          -0.00095   0.00173   0.00167   0.00183  -0.00471
           A1           0.00164  -0.00168  -0.00160  -0.00181   0.00601
           A2           0.00165  -0.00167  -0.00159  -0.00180   0.00601
           A3           0.00173  -0.00159  -0.00151  -0.00172   0.00603
           A4           0.00223   0.00578   0.00575   0.00583  -0.00503
           A5          -0.00332  -0.00015  -0.00025   0.00002  -0.00637
           A6          -0.00335  -0.00018  -0.00028  -0.00001  -0.00637
           A7           0.00587   0.00291   0.00303   0.00268   0.00694
           A8           0.00426   0.00119   0.00129   0.00100   0.00655
           A9           0.00432   0.00124   0.00135   0.00105   0.00656
           A10          0.00005   0.00005   0.00005   0.00005   0.00001
           A11          0.00006   0.00007   0.00007   0.00007   0.00002
           D1          -0.01346  -0.01421  -0.01438  -0.01392  -0.00355
           D2          -0.00110  -0.00119  -0.00120  -0.00116  -0.00026
           D3          -0.00219  -0.00233  -0.00236  -0.00229  -0.00054
           D4           0.00216   0.00230   0.00233   0.00226   0.00053
                          R6        R7        R8        A1        A2
           R6           0.01938
           R7          -0.00273   0.01939
           R8          -0.00266  -0.00265   0.01954
           A1           0.00325   0.00325   0.00314   0.15619
           A2           0.00325   0.00325   0.00313  -0.00381   0.15619
           A3           0.00324   0.00323   0.00312  -0.00379  -0.00379
           A4          -0.00385  -0.00384  -0.00380   0.00472   0.00472
           A5          -0.00295  -0.00294  -0.00280   0.00337   0.00336
           A6          -0.00294  -0.00294  -0.00280   0.00336   0.00336
           A7           0.00251   0.00250   0.00231  -0.00271  -0.00271
           A8           0.00277   0.00276   0.00261  -0.00311  -0.00310
           A9           0.00276   0.00275   0.00260  -0.00309  -0.00309
           A10         -0.00001  -0.00001  -0.00001   0.00001   0.00001
           A11         -0.00001  -0.00001  -0.00001   0.00002   0.00002
           D1           0.00199   0.00200   0.00224  -0.00305  -0.00305
           D2           0.00018   0.00019   0.00021  -0.00028  -0.00028
           D3           0.00035   0.00035   0.00039  -0.00053  -0.00053
           D4          -0.00034  -0.00035  -0.00038   0.00052   0.00052
                          A3        A4        A5        A6        A7
           A3           0.15623
           A4           0.00471   0.15497
           A5           0.00334  -0.00452   0.15718
           A6           0.00333  -0.00452  -0.00281   0.15720
           A7          -0.00268   0.00425   0.00200   0.00199   0.15906
           A8          -0.00308   0.00440   0.00250   0.00249  -0.00160
           A9          -0.00306   0.00439   0.00248   0.00247  -0.00157
           A10          0.00001  -0.00000  -0.00001  -0.00001   0.00002
           A11          0.00002  -0.00001  -0.00002  -0.00002   0.00003
           D1          -0.00309   0.00097   0.00393   0.00394  -0.00527
           D2          -0.00028   0.00011   0.00035   0.00035  -0.00045
           D3          -0.00053   0.00019   0.00067   0.00067  -0.00088
           D4           0.00053  -0.00019  -0.00066  -0.00066   0.00087
                          A8        A9        A10       A11       D1
           A8           0.15785
           A9          -0.00213   0.15789
           A10          0.00002   0.00002   0.00230
           A11          0.00002   0.00002   0.00000   0.00230
           D1          -0.00441  -0.00444  -0.00002  -0.00003   0.01081
           D2          -0.00038  -0.00039  -0.00000  -0.00000   0.00058
           D3          -0.00074  -0.00075  -0.00000  -0.00001   0.00117
           D4           0.00073   0.00074   0.00000   0.00001  -0.00115
                          D2        D3        D4
           D2           0.00235
           D3           0.00009   0.00249
           D4          -0.00009  -0.00019   0.00248
 ITU=  1  0
 Use linear search instead of GDIIS.
 Eigenvectors of the second derivative matrix:
                           1         2         3         4         5
     Eigenvalues --     0.00770   0.01940   0.01964   0.07001   0.09970
   1         R1        -0.00126  -0.00008   0.00005  -0.02835   0.00235
   2         R2         0.01480   0.00037   0.00332  -0.02383   0.00239
   3         R3         0.01487  -0.00431  -0.00014  -0.01277   0.01220
   4         R4         0.01485   0.00364  -0.00294  -0.03500  -0.00800
   5         R5        -0.44708   0.00013   0.00010   0.40975  -0.03003
   6         R6        -0.50048   0.10021   0.73107  -0.05173   0.00425
   7         R7        -0.50055  -0.67785  -0.27757  -0.04613   0.20525
   8         R8        -0.50136   0.57711  -0.45246  -0.02795  -0.19236
   9         A1         0.04781   0.00447   0.03194   0.19587  -0.00584
  10         A2         0.04781  -0.03291  -0.01178   0.19662  -0.56805
  11         A3         0.04780   0.02886  -0.02053   0.20958   0.52596
  12         A4        -0.05043  -0.00826   0.00524  -0.46067  -0.02327
  13         A5        -0.04707   0.00807   0.00291  -0.07306   0.07227
  14         A6        -0.04708  -0.00024  -0.00778  -0.07329  -0.00068
  15         A7         0.07905   0.04742  -0.03756  -0.12836  -0.02206
  16         A8         0.08006  -0.05617  -0.02347  -0.02499   0.03573
  17         A9         0.08008   0.00861   0.06104  -0.02341  -0.00051
  18         A10        0.00016   0.05341   0.38928  -0.00961   0.00941
  19         A11        0.00025  -0.41402   0.05773  -0.01404  -0.55221
  20         D1        -0.11767  -0.00536   0.00346  -0.64791   0.01452
  21         D2         0.01164  -0.07463   0.08163   0.15838   0.05557
  22         D3        -0.00936  -0.09441  -0.05784   0.09217   0.06565
  23         D4         0.00934  -0.03257  -0.10719  -0.09263   0.01430
                           6         7         8         9        10
     Eigenvalues --     0.10314   0.11702   0.11731   0.32992   0.33918
   1         R1         0.00195  -0.01979   0.01159  -0.02867   0.00685
   2         R2         0.00485  -0.00067   0.02318  -0.46449   0.58792
   3         R3         0.00553  -0.06595   0.01603  -0.19621  -0.74418
   4         R4        -0.00477   0.00802  -0.00492   0.80365   0.15286
   5         R5        -0.02487   0.24314  -0.14227   0.00099  -0.01858
   6         R6         0.20702   0.03138   0.08483   0.00101   0.02907
   7         R7        -0.09032  -0.07243  -0.05821   0.00886  -0.00748
   8         R8        -0.10191  -0.11939   0.06737   0.01337  -0.00663
   9         A1        -0.65326   0.04007  -0.13553  -0.01281  -0.00185
  10         A2         0.29628   0.15284   0.01278  -0.00853  -0.02739
  11         A3         0.31699   0.20553  -0.11045   0.01801  -0.00291
  12         A4        -0.02339   0.36196  -0.21314  -0.03161  -0.07470
  13         A5        -0.04199  -0.09678   0.72195   0.03343  -0.02510
  14         A6         0.10569  -0.66691  -0.27370   0.00154   0.13221
  15         A7        -0.01479   0.09274  -0.05482  -0.13744  -0.05314
  16         A8        -0.02101  -0.01816   0.19371   0.07370   0.13411
  17         A9         0.04674  -0.18239  -0.07580   0.11587  -0.07577
  18         A10       -0.54124  -0.05212  -0.03219   0.00910  -0.00707
  19         A11       -0.00952  -0.01610   0.03730   0.01122   0.01062
  20         D1         0.00966  -0.01651   0.00887  -0.01753  -0.02680
  21         D2         0.04534  -0.32209   0.18588   0.05620  -0.14341
  22         D3        -0.05405   0.02163   0.40178  -0.17324   0.03322
  23         D4        -0.09197   0.33702   0.21597   0.15713   0.04785
                          11        12
     Eigenvalues --     0.36384   0.45669
   1         R1        -0.44425   0.89467
   2         R2         0.53660   0.24599
   3         R3         0.49903   0.24511
   4         R4         0.40550   0.22512
   5         R5         0.03828   0.03889
   6         R6         0.03921   0.01603
   7         R7         0.03842   0.01602
   8         R8         0.03637   0.01423
   9         A1         0.02207   0.02092
  10         A2         0.02137   0.02090
  11         A3         0.01943   0.02086
  12         A4        -0.00238  -0.00541
  13         A5        -0.03269  -0.02894
  14         A6        -0.02831  -0.02884
  15         A7         0.19266   0.09057
  16         A8         0.16622   0.08023
  17         A9         0.16027   0.08009
  18         A10       -0.00094  -0.00002
  19         A11       -0.00089  -0.00002
  20         D1        -0.03939  -0.04115
  21         D2         0.00510   0.00068
  22         D3        -0.00953  -0.01242
  23         D4         0.01189   0.01247
 Iter=   1 RLamda= 0.00000000D+00 Sum=-1.02247818D-03.
 Iter=   2 RLamda=-1.02247818D-03 Sum=-9.67216834D-04.
 Iter=   3 RLamda=-9.67216834D-04 Sum=-9.69888110D-04.
 Iter=   4 RLamda=-9.69888110D-04 Sum=-9.69758247D-04.
 Iter=   5 RLamda=-9.69758247D-04 Sum=-9.69764558D-04.
 RFO step:  Lambda=-9.69758247D-04 EMin= 7.70066625D-03
 Quartic linear search produced a step of  1.76653.
 Iteration  1 RMS(Cart)=  0.04142402 RMS(Int)=  0.02539314
 Iteration  2 RMS(Cart)=  0.01210042 RMS(Int)=  0.00116670
 Iteration  3 RMS(Cart)=  0.00002640 RMS(Int)=  0.00116632
 Iteration  4 RMS(Cart)=  0.00000000 RMS(Int)=  0.00116632
 ITry= 1 IFail=0 DXMaxC= 2.26D-01 DCOld= 1.00D+10 DXMaxT= 5.05D-01 DXLimC= 3.00D+00 Rises=F
 ClnCor:  largest displacement from symmetrization is 4.16D-04 for atom     4.
 Variable       Old X    -DE/DX   Delta X   Delta X   Delta X     New X
                                 (Linear)    (Quad)   (Total)
    R1        2.69961  -0.00120   0.00940  -0.01312  -0.00372   2.69589
    R2        2.05423   0.00069   0.01977  -0.01006   0.00880   2.06304
    R3        2.05423   0.00069   0.01977  -0.01006   0.00880   2.06304
    R4        2.05423   0.00065   0.01977  -0.01006   0.00880   2.06304
    R5        4.79953  -0.00186  -0.11873  -0.11974  -0.23848   4.56104
    R6        4.53982  -0.00213  -0.16325  -0.10481  -0.26767   4.27215
    R7        4.53982  -0.00213  -0.16325  -0.10478  -0.26767   4.27215
    R8        4.53982  -0.00215  -0.16325  -0.10524  -0.26767   4.27215
    A1        1.91453   0.00026   0.02824  -0.00213   0.02642   1.94095
    A2        1.91453   0.00026   0.02824  -0.00213   0.02642   1.94095
    A3        1.91453   0.00026   0.02824  -0.00213   0.02642   1.94095
    A4        1.90672  -0.00011  -0.02799   0.00219  -0.02735   1.87937
    A5        1.90672  -0.00033  -0.02799   0.00212  -0.02735   1.87937
    A6        1.90672  -0.00033  -0.02799   0.00212  -0.02735   1.87937
    A7        0.75575   0.00061   0.02778   0.01506   0.04526   0.80101
    A8        0.75575   0.00054   0.02778   0.01508   0.04526   0.80101
    A9        0.75575   0.00054   0.02778   0.01507   0.04526   0.80101
   A10        3.14159   0.00000   0.00000   0.00006   0.00000   3.14159
   A11        3.14159   0.00000   0.00000   0.00013   0.00000   3.14159
    D1        2.08488  -0.00053  -0.06967   0.00521  -0.06276   2.02212
    D2        0.56801  -0.00002   0.00347   0.00192   0.00596   0.57397
    D3       -0.56801  -0.00011  -0.00347  -0.00190  -0.00596  -0.57397
    D4        0.56801   0.00011   0.00347   0.00191   0.00596   0.57397
         Item               Value     Threshold  Converged?
 Maximum Force            0.002155     0.000450     NO 
 RMS     Force            0.000972     0.000300     NO 
 Maximum Displacement     0.226360     0.001800     NO 
 RMS     Displacement     0.053206     0.001200     NO 
 Predicted change in Energy=-1.216992D-03
 Lowest energy point so far.  Saving SCF results.
 Largest change from initial coordinates is atom    6       0.145 Angstoms.
 GradGradGradGradGradGradGradGradGradGradGradGradGradGradGradGradGradGrad

 Leave Link  103 at Wed Oct  7 14:31:33 2020, MaxMem=  2684354560 cpu:               2.0 elap:               0.5
 (Enter /udrive/faculty/rpeverati/g16/g16/l202.exe)
                          Input orientation:                          
 ---------------------------------------------------------------------
 Center     Atomic      Atomic             Coordinates (Angstroms)
 Number     Number       Type             X           Y           Z
 ---------------------------------------------------------------------
      1          9           0        0.000000   -0.000000   -1.788566
      2          6           0        0.000000   -0.000000   -0.361963
      3          1           0       -0.508886    0.881417    0.032970
      4          1           0       -0.508886   -0.881417    0.032970
      5          1           0        1.017773   -0.000000    0.032970
      6          9           0        0.000000   -0.000000    2.051638
 ---------------------------------------------------------------------
                    Distance matrix (angstroms):
                    1          2          3          4          5
     1  F    0.000000
     2  C    1.426602   0.000000
     3  H    2.086589   1.091711   0.000000
     4  H    2.086589   1.091711   1.762834   0.000000
     5  H    2.086589   1.091711   1.762834   1.762834   0.000000
     6  F    3.840204   2.413601   2.260726   2.260726   2.260726
                    6
     6  F    0.000000
 Stoichiometry    CH3F2(1-)
 Framework group  C3V[C3(FCF),3SGV(H)]
 Deg. of freedom     4
 Full point group                 C3V     NOp   6
 RotChk:  IX=0 Diff= 0.00D+00
 Largest Abelian subgroup         CS      NOp   2
 Largest concise Abelian subgroup CS      NOp   2
                         Standard orientation:                         
 ---------------------------------------------------------------------
 Center     Atomic      Atomic             Coordinates (Angstroms)
 Number     Number       Type             X           Y           Z
 ---------------------------------------------------------------------
      1          9           0        0.000000    0.000000   -1.799483
      2          6           0        0.000000    0.000000   -0.372881
      3          1           0       -0.000000    1.017773    0.022052
      4          1           0       -0.881417   -0.508886    0.022052
      5          1           0        0.881417   -0.508886    0.022052
      6          9           0        0.000000    0.000000    2.040720
 ---------------------------------------------------------------------
 Rotational constants (GHZ):         161.3649930           3.5126401           3.5126401
 Leave Link  202 at Wed Oct  7 14:31:34 2020, MaxMem=  2684354560 cpu:               1.7 elap:               0.5
 (Enter /udrive/faculty/rpeverati/g16/g16/l301.exe)
 Standard basis: 6-31G(d) (5D, 7F)
 Ernie: Thresh=  0.10000D-02 Tol=  0.10000D-05 Strict=F.
 There are    37 symmetry adapted cartesian basis functions of A'  symmetry.
 There are    14 symmetry adapted cartesian basis functions of A"  symmetry.
 There are    34 symmetry adapted basis functions of A'  symmetry.
 There are    14 symmetry adapted basis functions of A"  symmetry.
    48 basis functions,    96 primitive gaussians,    51 cartesian basis functions
    14 alpha electrons       14 beta electrons
       nuclear repulsion energy        65.8246393711 Hartrees.
 IExCor= 1009 DFT=T Ex+Corr=PBE1PBE ExCW=0 ScaHFX=  0.250000
 ScaDFX=  0.750000  0.750000  1.000000  1.000000 ScalE2=  1.000000  1.000000
 IRadAn=      5 IRanWt=     -1 IRanGd=            0 ICorTp=0 IEmpDi=141
 NAtoms=    6 NActive=    6 NUniq=    4 SFac= 2.25D+00 NAtFMM=   60 NAOKFM=F Big=F
 Integral buffers will be    131072 words long.
 Raffenetti 2 integral format.
 Two-electron integral symmetry is turned on.
 R6Disp:  Grimme-D3(BJ) Dispersion energy=       -0.0015521350 Hartrees.
 Nuclear repulsion after empirical dispersion term =       65.8230872362 Hartrees.
 Leave Link  301 at Wed Oct  7 14:31:35 2020, MaxMem=  2684354560 cpu:               1.9 elap:               0.5
 (Enter /udrive/faculty/rpeverati/g16/g16/l302.exe)
 NPDir=0 NMtPBC=     1 NCelOv=     1 NCel=       1 NClECP=     1 NCelD=      1
         NCelK=      1 NCelE2=     1 NClLst=     1 CellRange=     0.0.
 One-electron integrals computed using PRISM.
 One-electron integral symmetry used in STVInt
 NBasis=    48 RedAO= T EigKep=  1.91D-02  NBF=    34    14
 NBsUse=    48 1.00D-06 EigRej= -1.00D+00 NBFU=    34    14
 Precomputing XC quadrature grid using
 IXCGrd= 4 IRadAn=           5 IRanWt=          -1 IRanGd=           0 AccXCQ= 0.00D+00.
 Generated NRdTot=       0 NPtTot=           0 NUsed=           0 NTot=          32
 NSgBfM=    51    51    51    51    51 MxSgAt=     6 MxSgA2=     6.
 Leave Link  302 at Wed Oct  7 14:31:36 2020, MaxMem=  2684354560 cpu:               3.3 elap:               0.6
 (Enter /udrive/faculty/rpeverati/g16/g16/l303.exe)
 DipDrv:  MaxL=1.
 Leave Link  303 at Wed Oct  7 14:31:36 2020, MaxMem=  2684354560 cpu:               1.7 elap:               0.6
 (Enter /udrive/faculty/rpeverati/g16/g16/l401.exe)
 Initial guess from the checkpoint file:  "MN_38_fch3fcomp_BH76_PBE0DBJ_631Gs.chk"
 SCF N**3 symmetry information disabled.
 B after Tr=     0.000000   -0.000000    0.000000
         Rot=    1.000000    0.000000    0.000000    0.000000 Ang=   0.00 deg.
 Guess basis will be translated and rotated to current coordinates.
 JPrj=2 DoOrth=T DoCkMO=T.
 Initial guess orbital symmetries:
       Occupied  (A1) (A1) (A1) (A1) (A1) (A1) (A1) (E) (E) (E)
                 (E) (A1) (E) (E)
[...]
           D4           0.00101   0.00102   0.00001   0.00001  -0.00182
                          D2        D3        D4
           D2           0.00250
           D3           0.00019   0.00261
           D4          -0.00019  -0.00030   0.00260
 ITU=  1  1  1  1  1  1  0
 Eigenvectors of the second derivative matrix:
                           1         2         3         4         5
     Eigenvalues --     0.00915   0.01962   0.01986   0.03581   0.09931
   1         R1         0.03552  -0.00098   0.00069  -0.20222  -0.01855
   2         R2        -0.00584   0.00099   0.00396   0.02104   0.00143
   3         R3        -0.00574  -0.00478  -0.00049   0.02244  -0.01550
   4         R4        -0.00566   0.00454  -0.00384   0.01744   0.01716
   5         R5        -0.52731   0.00224  -0.00117   0.38348   0.02680
   6         R6        -0.48063   0.12241   0.72648  -0.14213  -0.01208
   7         R7        -0.48101  -0.68534  -0.25447  -0.13934  -0.20291
   8         R8        -0.48092   0.56046  -0.46915  -0.14528   0.18253
   9         A1         0.00519   0.00681   0.03140   0.23830   0.02749
  10         A2         0.00518  -0.03276  -0.01167   0.23863   0.54811
  11         A3         0.00518   0.03015  -0.02269   0.23795  -0.52441
  12         A4        -0.00567  -0.01283   0.00894  -0.32169   0.10015
  13         A5        -0.00516   0.01054   0.00465  -0.20720  -0.11148
  14         A6        -0.00518  -0.00203  -0.01054  -0.20725  -0.04138
  15         A7         0.09312   0.05221  -0.04428  -0.06145   0.04964
  16         A8         0.09329  -0.06469  -0.02458  -0.02666  -0.04767
  17         A9         0.09335   0.01196   0.06906  -0.02666  -0.01033
  18         A10        0.00012   0.06577   0.38778   0.00002   0.00978
  19         A11       -0.00002  -0.41427   0.07144   0.00203   0.54505
  20         D1        -0.01259  -0.01056   0.00738  -0.61738   0.03388
  21         D2         0.01321  -0.07012   0.08785   0.04538  -0.10820
  22         D3        -0.01290  -0.09591  -0.05913   0.03132  -0.09137
  23         D4         0.01283  -0.04037  -0.10679  -0.03098   0.01350
                           6         7         8         9        10
     Eigenvalues --     0.10292   0.10740   0.11667   0.29965   0.32866
   1         R1        -0.02296   0.09295   0.00095  -0.78913   0.09820
   2         R2        -0.00199  -0.01372   0.01890   0.24635  -0.45952
   3         R3        -0.00844   0.03454  -0.01855   0.33561  -0.25355
   4         R4         0.01395  -0.03515  -0.00053   0.33604   0.78177
   5         R5         0.03249  -0.12858  -0.00126  -0.09731   0.00837
   6         R6        -0.20181  -0.03290   0.09355   0.03276  -0.00299
   7         R7         0.09608   0.02077  -0.09099   0.03685   0.00390
   8         R8         0.06621   0.16792  -0.00110   0.04291   0.01220
   9         A1         0.64007   0.08289  -0.10390  -0.04384  -0.01083
  10         A2        -0.32068  -0.05209   0.09377  -0.04195  -0.00690
  11         A3        -0.25727  -0.27638   0.00775  -0.04377   0.02624
  12         A4         0.12456  -0.50607  -0.00510   0.01301  -0.03323
  13         A5        -0.01526   0.39019   0.57145   0.06576   0.02488
  14         A6        -0.17326   0.36875  -0.56391   0.05464  -0.00040
  15         A7         0.04685  -0.15017  -0.00176   0.11836  -0.15907
  16         A8         0.01152   0.09622   0.17034   0.13407   0.07395
  17         A9        -0.06859   0.09426  -0.16820   0.14886   0.10844
  18         A10        0.52709   0.12368  -0.05859   0.00046   0.01059
  19         A11       -0.02922   0.09118   0.02647  -0.00069   0.01391
  20         D1         0.04302  -0.17874  -0.00186   0.08319  -0.02598
  21         D2        -0.11534   0.37661   0.00179   0.05148   0.04440
  22         D3         0.02444   0.20072   0.36029  -0.01784  -0.17219
  23         D4         0.13365  -0.18390   0.35606   0.01313   0.16062
                          11        12
     Eigenvalues --     0.33842   0.36773
   1         R1        -0.03484   0.56102
   2         R2         0.63560   0.47658
   3         R3        -0.70230   0.47473
   4         R4         0.14388   0.35839
   5         R5        -0.02002   0.05555
   6         R6         0.03401   0.02387
   7         R7        -0.00779   0.02394
   8         R8        -0.00430   0.01852
   9         A1         0.00149   0.03941
  10         A2        -0.03087   0.03939
  11         A3        -0.00313   0.03708
  12         A4        -0.07155  -0.00369
  13         A5        -0.02914  -0.05794
  14         A6         0.13417  -0.05770
  15         A7        -0.03859   0.19248
  16         A8         0.15064   0.15207
  17         A9        -0.07398   0.15175
  18         A10       -0.00982  -0.00067
  19         A11        0.01196  -0.00107
  20         D1        -0.02655  -0.06936
  21         D2        -0.14420   0.00027
  22         D3         0.03689  -0.01654
  23         D4         0.03938   0.01667
 DoSqrt=T IScMMF=    -3 MM Scaling Factor =       0.00000
 En-DIIS/RFO-DIIS/Sim-DIIS IScMMF=       -3 using points:     7    6    5    4    3    2
 Iter=   1 RLamda=-4.08495684D-02 Sum=-3.34515195D-09.
 Iter=   2 RLamda=-3.34515195D-09 Sum=-1.44172072D-08.
 Iter=   3 RLamda=-1.44172072D-08 Sum=-1.44171918D-08.
 RFO step:  Lambda=-1.44172072D-08.
 NNeg= 0 NGDIIS= 6 SimSw=  2.50D-01 Rises=F DC= -2.84D-06 SmlDif=  1.00D-05
 NRisDI= 0 DoIntr=F SqrtH=F CThrHd= 10.0 CDAdj=  3.0
 RMS Error=  0.2466442335D-03 NUsed= 6 OKEnD=F EnDIS=F
 Total RFO-DIIS matrix:
                 1             2             3             4             5 
      1   0.000000D+00 -0.100000D+01 -0.100000D+01 -0.100000D+01 -0.100000D+01
      2  -0.100000D+01  0.139917D-05 -0.285866D-04  0.209779D-04  0.169304D-04
      3  -0.100000D+01 -0.285866D-04  0.614608D-03 -0.513133D-03 -0.630091D-03
      4  -0.100000D+01  0.209779D-04 -0.513133D-03  0.567651D-03  0.107574D-02
      5  -0.100000D+01  0.169304D-04 -0.630091D-03  0.107574D-02  0.297905D-02
      6  -0.100000D+01  0.933063D-04 -0.236171D-02  0.268933D-02  0.554101D-02
      7  -0.100000D+01  0.538311D-03 -0.113161D-01  0.895356D-02  0.939591D-02
                 6             7 
      1  -0.100000D+01 -0.100000D+01
      2   0.933063D-04  0.538311D-03
      3  -0.236171D-02 -0.113161D-01
      4   0.268933D-02  0.895356D-02
      5   0.554101D-02  0.939591D-02
      6   0.132792D-01  0.404921D-01
      7   0.404921D-01  0.210512D+00
 InvSVX:  RCond= 3.03D-13 Info=           0 Equed=N FErr=  3.22D-06 BErr=  5.74D-17
 DIIS inversion failure, remove point   6.
 InvSVX:  RCond= 1.59D-09 Info=           0 Equed=N FErr=  5.74D-11 BErr=  8.05D-17
 DIIS inversion failure, remove point   5.
 InvSVX:  RCond= 6.10D-07 Info=           0 Equed=N FErr=  1.13D-14 BErr=  5.20D-17
 RFO-DIIS uses    4 points instead of    6
 DidBck=F Rises=F RFO-DIIS coefs:    0.94859    0.04802   -0.00214    0.00554    0.00000
                  RFO-DIIS coefs:    0.00000
 Iteration  1 RMS(Cart)=  0.00011809 RMS(Int)=  0.00000041
 Iteration  2 RMS(Cart)=  0.00000000 RMS(Int)=  0.00000041
 ITry= 1 IFail=0 DXMaxC= 4.96D-04 DCOld= 1.00D+10 DXMaxT= 8.49D-01 DXLimC= 3.00D+00 Rises=F
 ClnCor:  largest displacement from symmetrization is 4.72D-07 for atom     3.
 Variable       Old X    -DE/DX   Delta X   Delta X   Delta X     New X
                                 (Linear)    (Quad)   (Total)
    R1        2.71025  -0.00000  -0.00003   0.00003   0.00000   2.71025
    R2        2.05447  -0.00000   0.00001  -0.00002  -0.00001   2.05446
    R3        2.05447  -0.00000   0.00001  -0.00002  -0.00001   2.05446
    R4        2.05447  -0.00000   0.00001  -0.00002  -0.00001   2.05446
    R5        4.48509  -0.00000  -0.00053   0.00001  -0.00053   4.48457
    R6        4.23635  -0.00001  -0.00059  -0.00000  -0.00060   4.23575
    R7        4.23635  -0.00001  -0.00059  -0.00000  -0.00060   4.23575
    R8        4.23635  -0.00001  -0.00059  -0.00000  -0.00060   4.23575
    A1        1.92490   0.00000   0.00006   0.00000   0.00006   1.92496
    A2        1.92490   0.00000   0.00006   0.00000   0.00006   1.92496
    A3        1.92490   0.00000   0.00006   0.00000   0.00006   1.92496
    A4        1.89615  -0.00000  -0.00006  -0.00000  -0.00006   1.89609
    A5        1.89615  -0.00000  -0.00006  -0.00000  -0.00006   1.89609
    A6        1.89615  -0.00000  -0.00006  -0.00000  -0.00006   1.89609
    A7        0.80981  -0.00000   0.00011  -0.00001   0.00010   0.80991
    A8        0.80981  -0.00000   0.00011  -0.00001   0.00010   0.80991
    A9        0.80981  -0.00000   0.00011  -0.00001   0.00010   0.80991
   A10        3.14159   0.00000   0.00000  -0.00000   0.00000   3.14159
   A11        3.14159   0.00000   0.00000  -0.00000  -0.00000   3.14159
    D1        2.05989  -0.00000  -0.00014  -0.00001  -0.00015   2.05974
    D2        0.57518  -0.00000   0.00001  -0.00000   0.00001   0.57519
    D3       -0.57518  -0.00000  -0.00001   0.00000  -0.00001  -0.57519
    D4        0.57518   0.00000   0.00001  -0.00000   0.00001   0.57519
         Item               Value     Threshold  Converged?
 Maximum Force            0.000007     0.000450     YES
 RMS     Force            0.000003     0.000300     YES
 Maximum Displacement     0.000496     0.001800     YES
 RMS     Displacement     0.000118     0.001200     YES
 Predicted change in Energy=-7.201996D-09
 Optimization completed.
    -- Stationary point found.
                           ----------------------------
                           !   Optimized Parameters   !
                           ! (Angstroms and Degrees)  !
 --------------------------                            --------------------------
 ! Name  Definition              Value          Derivative Info.                !
 --------------------------------------------------------------------------------
 ! R1    R(1,2)                  1.4342         -DE/DX =    0.0                 !
 ! R2    R(2,3)                  1.0872         -DE/DX =    0.0                 !
 ! R3    R(2,4)                  1.0872         -DE/DX =    0.0                 !
 ! R4    R(2,5)                  1.0872         -DE/DX =    0.0                 !
 ! R5    R(2,6)                  2.3734         -DE/DX =    0.0                 !
 ! R6    R(3,6)                  2.2418         -DE/DX =    0.0                 !
 ! R7    R(4,6)                  2.2418         -DE/DX =    0.0                 !
 ! R8    R(5,6)                  2.2418         -DE/DX =    0.0                 !
 ! A1    A(1,2,3)              110.2887         -DE/DX =    0.0                 !
 ! A2    A(1,2,4)              110.2887         -DE/DX =    0.0                 !
 ! A3    A(1,2,5)              110.2887         -DE/DX =    0.0                 !
 ! A4    A(3,2,4)              108.6415         -DE/DX =    0.0                 !
 ! A5    A(3,2,5)              108.6415         -DE/DX =    0.0                 !
 ! A6    A(4,2,5)              108.6415         -DE/DX =    0.0                 !
 ! A7    A(3,6,4)               46.3988         -DE/DX =    0.0                 !
 ! A8    A(3,6,5)               46.3988         -DE/DX =    0.0                 !
 ! A9    A(4,6,5)               46.3988         -DE/DX =    0.0                 !
 ! A10   L(1,2,6,3,-1)         180.0            -DE/DX =    0.0                 !
 ! A11   L(1,2,6,3,-2)         180.0            -DE/DX =    0.0                 !
 ! D1    D(3,2,5,4)            118.0229         -DE/DX =    0.0                 !
 ! D2    D(4,3,6,2)             32.9555         -DE/DX =    0.0                 !
 ! D3    D(5,3,6,2)            -32.9555         -DE/DX =    0.0                 !
 ! D4    D(5,4,6,2)             32.9555         -DE/DX =    0.0                 !
 --------------------------------------------------------------------------------
 Lowest energy point so far.  Saving SCF results.
 Largest change from initial coordinates is atom    6       0.135 Angstoms.
 GradGradGradGradGradGradGradGradGradGradGradGradGradGradGradGradGradGrad

 Leave Link  103 at Wed Oct  7 14:32:29 2020, MaxMem=  2684354560 cpu:               2.4 elap:               0.6
 (Enter /udrive/faculty/rpeverati/g16/g16/l202.exe)
                          Input orientation:                          
 ---------------------------------------------------------------------
 Center     Atomic      Atomic             Coordinates (Angstroms)
 Number     Number       Type             X           Y           Z
 ---------------------------------------------------------------------
      1          9           0        0.000000   -0.000000   -1.779208
      2          6           0        0.000000   -0.000000   -0.345007
      3          1           0       -0.509863    0.883109    0.031972
      4          1           0       -0.509863   -0.883109    0.031972
      5          1           0        1.019727   -0.000000    0.031972
      6          9           0        0.000000   -0.000000    2.028402
 ---------------------------------------------------------------------
                    Distance matrix (angstroms):
                    1          2          3          4          5
     1  F    0.000000
     2  C    1.434200   0.000000
     3  H    2.078513   1.087178   0.000000
     4  H    2.078513   1.087178   1.766219   0.000000
     5  H    2.078513   1.087178   1.766219   1.766219   0.000000
     6  F    3.807610   2.373409   2.241779   2.241779   2.241779
                    6
     6  F    0.000000
 Stoichiometry    CH3F2(1-)
 Framework group  C3V[C3(FCF),3SGV(H)]
 Deg. of freedom     4
 Full point group                 C3V     NOp   6
 RotChk:  IX=0 Diff= 0.00D+00
 Largest Abelian subgroup         CS      NOp   2
 Largest concise Abelian subgroup CS      NOp   2
                         Standard orientation:                         
 ---------------------------------------------------------------------
 Center     Atomic      Atomic             Coordinates (Angstroms)
 Number     Number       Type             X           Y           Z
 ---------------------------------------------------------------------
      1          9           0        0.000000    0.000000   -1.789157
      2          6           0        0.000000    0.000000   -0.354956
      3          1           0       -0.000000    1.019727    0.022023
      4          1           0       -0.883109   -0.509863    0.022023
      5          1           0        0.883109   -0.509863    0.022023
      6          9           0        0.000000    0.000000    2.018453
 ---------------------------------------------------------------------
 Rotational constants (GHZ):         160.7470368           3.5765704           3.5765704
 Leave Link  202 at Wed Oct  7 14:32:29 2020, MaxMem=  2684354560 cpu:               1.3 elap:               0.4
 (Enter /udrive/faculty/rpeverati/g16/g16/l601.exe)
 Copying SCF densities to generalized density rwf, IOpCl= 0 IROHF=0.

 **********************************************************************

            Population analysis using the SCF density.

 **********************************************************************

 Orbital symmetries:
       Occupied  (A1) (A1) (A1) (A1) (A1) (A1) (A1) (E) (E) (E)
                 (E) (A1) (E) (E)
       Virtual   (A1) (A1) (E) (E) (E) (E) (A1) (E) (E) (A1) (A1)
                 (A1) (E) (E) (E) (E) (A1) (E) (E) (A1) (E) (E)
                 (A1) (A1) (E) (E) (E) (E) (E) (E) (A1) (E) (E)
                 (A1)
 The electronic state is 1-A1.
 Alpha  occ. eigenvalues --  -24.53794 -24.26115 -10.06443  -0.98624  -0.67444
 Alpha  occ. eigenvalues --   -0.49072  -0.27128  -0.26488  -0.26488  -0.14005
 Alpha  occ. eigenvalues --   -0.14005   0.05767   0.06087   0.06087
 Alpha virt. eigenvalues --    0.33113   0.37623   0.39840   0.39840   0.77424
 Alpha virt. eigenvalues --    0.77424   0.79271   1.09572   1.09572   1.14962
 Alpha virt. eigenvalues --    1.25864   1.46601   1.47359   1.47359   1.64047
 Alpha virt. eigenvalues --    1.64047   1.69010   1.74932   1.74932   2.01780
 Alpha virt. eigenvalues --    2.04919   2.04919   2.15337   2.28313   2.29482
 Alpha virt. eigenvalues --    2.29482   2.30536   2.30536   2.40756   2.40756
 Alpha virt. eigenvalues --    2.49483   2.62994   2.62994   3.21362
          Condensed to atoms (all electrons):
               1          2          3          4          5          6
     1  F    9.394834   0.129262  -0.029660  -0.029660  -0.029660   0.000224
     2  C    0.129262   4.938273   0.365147   0.365147   0.365147   0.026454
     3  H   -0.029660   0.365147   0.585713  -0.041482  -0.041482   0.013876
     4  H   -0.029660   0.365147  -0.041482   0.585713  -0.041482   0.013876
     5  H   -0.029660   0.365147  -0.041482  -0.041482   0.585713   0.013876
     6  F    0.000224   0.026454   0.013876   0.013876   0.013876   9.750579
 Mulliken charges:
               1
     1  F   -0.435342
     2  C   -0.189430
     3  H    0.147886
     4  H    0.147886
     5  H    0.147886
     6  F   -0.818886
 Sum of Mulliken charges =  -1.00000
 Mulliken charges with hydrogens summed into heavy atoms:
               1
     1  F   -0.435342
     2  C    0.254228
     6  F   -0.818886
 Electronic spatial extent (au):  <R**2>=            303.7747
 Charge=             -1.0000 electrons
 Dipole moment (field-independent basis, Debye):
    X=             -0.0000    Y=             -0.0000    Z=             -5.1867  Tot=              5.1867
 Quadrupole moment (field-independent basis, Debye-Ang):
   XX=            -17.7864   YY=            -17.7864   ZZ=            -39.8928
   XY=             -0.0000   XZ=              0.0000   YZ=             -0.0000
 Traceless Quadrupole moment (field-independent basis, Debye-Ang):
   XX=              7.3688   YY=              7.3688   ZZ=            -14.7376
   XY=             -0.0000   XZ=              0.0000   YZ=             -0.0000
 Octapole moment (field-independent basis, Debye-Ang**2):
  XXX=              0.0000  YYY=              0.4522  ZZZ=            -24.9336  XYY=              0.0000
  XXY=             -0.4522  XXZ=             -0.5316  XZZ=              0.0000  YZZ=              0.0000
  YYZ=             -0.5316  XYZ=             -0.0000
 Hexadecapole moment (field-independent basis, Debye-Ang**3):
 XXXX=            -20.1405 YYYY=            -20.1405 ZZZZ=           -327.0557 XXXY=              0.0000
 XXXZ=             -0.0000 YYYX=              0.0000 YYYZ=              0.0720 ZZZX=              0.0000
 ZZZY=             -0.0000 XXYY=             -6.7135 XXZZ=            -44.8230 YYZZ=            -44.8230
 XXYZ=             -0.0720 YYXZ=              0.0000 ZZXY=              0.0000
 N-N= 6.612767616707D+01 E-N=-7.106085538046D+02  KE= 2.385122887059D+02
 No NMR shielding tensors so no spin-rotation constants.
 Leave Link  601 at Wed Oct  7 14:32:30 2020, MaxMem=  2684354560 cpu:               3.7 elap:               0.7
 (Enter /udrive/faculty/rpeverati/g16/g16/l9999.exe)

 Test job not archived.
 1\1\GINC-NODE54\FOpt\RPBE1PBE\6-31G(d)\C1H3F2(1-)\RPEVERATI\07-Oct-202
 0\0\\#P Opt(MaxCyc=100) PBE1PBE/6-31G* 5D 7F Integral=UltraFineGrid SC
 F=(NoSymm,XQC,MaxCyc=120) EmpiricalDispersion=GD3BJ IOp(1/33=1)\\TS se
 arch on BH76.\\-1,1\F,0.,0.,-1.7792077669\C,0.,0.,-0.3450073116\H,-0.5
 098634934,0.8831094754,0.0319720561\H,-0.5098634934,-0.8831094754,0.03
 19720561\H,1.0197269867,0.,0.0319720561\F,0.,0.,2.0284018794\\Version=
 ES64L-G16RevA.03\State=1-A1\HF=-239.2902152\RMSD=4.813e-09\RMSF=6.851e
 -06\Dipole=0.,0.,-2.0406162\Quadrupole=5.4785388,5.4785388,-10.9570775
 ,0.,0.,0.\PG=C03V [C3(F1C1F1),3SGV(H1)]\\@


 ALL SCIENCE IS EITHER PHYSICS, OR STAMP COLLECTING.
   --ERNEST RUTHERFORD, 1871-1937.
 Job cpu time:       0 days  0 hours  5 minutes 52.8 seconds.
 Elapsed time:       0 days  0 hours  1 minutes  1.9 seconds.
 File lengths (MBytes):  RWF=      5 Int=      0 D2E=      0 Chk=      1 Scr=      1
 Normal termination of Gaussian 16 at Wed Oct  7 14:32:31 2020.
