 Entering Gaussian System, Link 0=g16
 Input=MN_36_fch3clcomp2_BH76_PBE0DBJ_631Gs.in
 Output=MN_36_fch3clcomp2_BH76_PBE0DBJ_631Gs.log
 Initial command:
 /udrive/faculty/rpeverati/g16/g16/l1.exe "/udrive/scratch-directories/gaussian09/rpeverati/Gau-17716.inp" -scrdir="/udrive/scratch-directories/gaussian09/rpeverati/"
 Entering Link 1 = /udrive/faculty/rpeverati/g16/g16/l1.exe PID=     17718.
  
 Copyright (c) 1988,1990,1992,1993,1995,1998,2003,2009,2016,
            Gaussian, Inc.  All Rights Reserved.
  
 This is part of the Gaussian(R) 16 program.  It is based on
 the Gaussian(R) 09 system (copyright 2009, Gaussian, Inc.),
 the Gaussian(R) 03 system (copyright 2003, Gaussian, Inc.),
 the Gaussian(R) 98 system (copyright 1998, Gaussian, Inc.),
 the Gaussian(R) 94 system (copyright 1995, Gaussian, Inc.),
 the Gaussian 92(TM) system (copyright 1992, Gaussian, Inc.),
 the Gaussian 90(TM) system (copyright 1990, Gaussian, Inc.),
 the Gaussian 88(TM) system (copyright 1988, Gaussian, Inc.),
 the Gaussian 86(TM) system (copyright 1986, Carnegie Mellon
 University), and the Gaussian 82(TM) system (copyright 1983,
 Carnegie Mellon University). Gaussian is a federally registered
 trademark of Gaussian, Inc.
  
 This software contains proprietary and confidential information,
 including trade secrets, belonging to Gaussian, Inc.
  
 This software is provided under written license and may be
 used, copied, transmitted, or stored only in accord with that
 written license.
  
 The following legend is applicable only to US Government
 contracts under FAR:
  
                    RESTRICTED RIGHTS LEGEND
  
 Use, reproduction and disclosure by the US Government is
 subject to restrictions as set forth in subparagraphs (a)
 and (c) of the Commercial Computer Software - Restricted
 Rights clause in FAR 52.227-19.
  
 Gaussian, Inc.
 340 Quinnipiac St., Bldg. 40, Wallingford CT 06492
  
  
 ---------------------------------------------------------------
 Warning -- This program may not be used in any manner that
 competes with the business of Gaussian, Inc. or will provide
 assistance to any competitor of Gaussian, Inc.  The licensee
 of this program is prohibited from giving any competitor of
 Gaussian, Inc. access to this program.  By using this program,
 the user acknowledges that Gaussian, Inc. is engaged in the
 business of creating and licensing software in the field of
 computational chemistry and represents and warrants to the
 licensee that it is not a competitor of Gaussian, Inc. and that
 it will not use this program in any manner prohibited above.
 ---------------------------------------------------------------
  

 Cite this work as:
 Gaussian 16, Revision A.03,
 M. J. Frisch, G. W. Trucks, H. B. Schlegel, G. E. Scuseria, 
 M. A. Robb, J. R. Cheeseman, G. Scalmani, V. Barone, 
 G. A. Petersson, H. Nakatsuji, X. Li, M. Caricato, A. V. Marenich, 
 J. Bloino, B. G. Janesko, R. Gomperts, B. Mennucci, H. P. Hratchian, 
 J. V. Ortiz, A. F. Izmaylov, J. L. Sonnenberg, D. Williams-Young, 
 F. Ding, F. Lipparini, F. Egidi, J. Goings, B. Peng, A. Petrone, 
 T. Henderson, D. Ranasinghe, V. G. Zakrzewski, J. Gao, N. Rega, 
 G. Zheng, W. Liang, M. Hada, M. Ehara, K. Toyota, R. Fukuda, 
 J. Hasegawa, M. Ishida, T. Nakajima, Y. Honda, O. Kitao, H. Nakai, 
 T. Vreven, K. Throssell, J. A. Montgomery, Jr., J. E. Peralta, 
 F. Ogliaro, M. J. Bearpark, J. J. Heyd, E. N. Brothers, K. N. Kudin, 
 V. N. Staroverov, T. A. Keith, R. Kobayashi, J. Normand, 
 K. Raghavachari, A. P. Rendell, J. C. Burant, S. S. Iyengar, 
 J. Tomasi, M. Cossi, J. M. Millam, M. Klene, C. Adamo, R. Cammi, 
 J. W. Ochterski, R. L. Martin, K. Morokuma, O. Farkas, 
 J. B. Foresman, and D. J. Fox, Gaussian, Inc., Wallingford CT, 2016.
 
 ******************************************
 Gaussian 16:  ES64L-G16RevA.03 25-Dec-2016
                 7-Oct-2020 
 ******************************************
 %NoSave
 %nproc=12
 Will use up to   12 processors via shared memory.
 %mem=20GB
 %chk=MN_36_fch3clcomp2_BH76_PBE0DBJ_631Gs
 ----------------------------------------------------------------------
 #P Opt(MaxCyc=100) PBE1PBE/6-31G* 5D 7F Integral=UltraFineGrid SCF=(No
 Symm,XQC,MaxCyc=120) EmpiricalDispersion=GD3BJ IOp(1/33=1)
 ----------------------------------------------------------------------
 1/6=100,18=20,19=15,26=4,33=1,38=1/1,3;
 2/9=110,12=2,17=6,18=5,40=1/2;
 3/5=1,6=6,7=1,8=11,11=2,25=1,30=1,71=1,74=-13,75=-5,124=41/1,2,3;
 4/9=2/1;
 5/5=2,7=120,8=3,13=1,38=5/2,8;
 6/7=2,8=2,9=2,10=2,28=1/1;
 7//1,2,3,16;
 1/6=100,18=20,19=15,26=4,33=1/3(2);
 2/9=110/2;
 99//99;
 2/9=110/2;
 3/5=1,6=6,7=1,8=11,11=2,25=1,30=1,71=1,74=-13,75=-5,124=41/1,2,3;
 4/5=5,9=2,16=3,69=1/1;
 5/5=2,7=120,8=3,13=1,38=5/2,8;
 7//1,2,3,16;
 1/6=100,18=20,19=15,26=4,33=1/3(-5);
 2/9=110/2;
 6/7=2,8=2,9=2,10=2,19=2,28=1/1;
 99/9=1/99;
 Leave Link    1 at Wed Oct  7 14:31:06 2020, MaxMem=  2684354560 cpu:               2.7 elap:               0.3
 (Enter /udrive/faculty/rpeverati/g16/g16/l101.exe)
 ONIOM data not found on unit 2.
 ------------------
 TS search on BH76.
 ------------------
 TstMul:  ICh=    -1
 TstMul:  Mul=     1
 TstMul:  ICh=    -1
 TstMul:  Mul=     1
 Symbolic Z-matrix:
 Charge = -1 Multiplicity = 1
 F                     0.        0.       -1.88994 
 C                     0.        0.       -0.48156 
 H                    -0.51236   0.88743  -0.1278 
 H                    -0.51236  -0.88743  -0.1278 
 H                     1.02472   0.       -0.1278 
 Cl                    0.        0.        2.75491 
 
 RdStrC is calling ZToCFu for IStruc=1 NZ=     6.
 PrtBox:  NBox=     2 Levels=  1 BoxLen=    8.00 SMaxX=        8.78
          Shift=            0.968220            1.677006            3.571462
 Box      1 Number                   0 centers from      1 to      5:
 Box      2 Number                   1 centers from      6 to      6:
 After GenITR:
 ITRead=  0  0  0  0  0  0
 MicOpt= -1 -1 -1 -1 -1 -1
 Add virtual bond connecting atoms Cl6        and H3         Dist= 5.78D+00.
 Add virtual bond connecting atoms Cl6        and H4         Dist= 5.78D+00.
 Add virtual bond connecting atoms Cl6        and H5         Dist= 5.78D+00.
 ITRead=  0  0  0  0  0  0
 MicOpt= -1 -1 -1 -1 -1 -1
 NAtoms=      6 NQM=        6 NQMF=       0 NMMI=      0 NMMIF=      0
                NMic=       0 NMicF=      0.
                    Isotopes and Nuclear Properties:
 (Nuclear quadrupole moments (NQMom) in fm**2, nuclear magnetic moments (NMagM)
  in nuclear magnetons)

  Atom         1           2           3           4           5           6
 IAtWgt=          19          12           1           1           1          35
 AtmWgt=  18.9984033  12.0000000   1.0078250   1.0078250   1.0078250  34.9688527
 NucSpn=           1           0           1           1           1           3
 AtZEff=   0.0000000   0.0000000   0.0000000   0.0000000   0.0000000   0.0000000
 NQMom=    0.0000000   0.0000000   0.0000000   0.0000000   0.0000000  -8.1650000
 NMagM=    2.6288670   0.0000000   2.7928460   2.7928460   2.7928460   0.8218740
 AtZNuc=   9.0000000   6.0000000   1.0000000   1.0000000   1.0000000  17.0000000
 No MM parameters found.
 Leave Link  101 at Wed Oct  7 14:31:07 2020, MaxMem=  2684354560 cpu:              14.1 elap:               1.2
 (Enter /udrive/faculty/rpeverati/g16/g16/l103.exe)

 GradGradGradGradGradGradGradGradGradGradGradGradGradGradGradGradGradGrad
 Berny optimization.
 Optmz: redundant internal coordinate code flag= 1
 Initialization pass.
                           ----------------------------
                           !    Initial Parameters    !
                           ! (Angstroms and Degrees)  !
 --------------------------                            --------------------------
 ! Name  Definition              Value          Derivative Info.                !
 --------------------------------------------------------------------------------
 ! R1    R(1,2)                  1.4084         estimate D2E/DX2                !
 ! R2    R(2,3)                  1.0841         estimate D2E/DX2                !
 ! R3    R(2,4)                  1.0841         estimate D2E/DX2                !
 ! R4    R(2,5)                  1.0841         estimate D2E/DX2                !
 ! R5    R(3,6)                  3.0594         estimate D2E/DX2                !
 ! R6    R(4,6)                  3.0594         estimate D2E/DX2                !
 ! R7    R(5,6)                  3.0594         estimate D2E/DX2                !
 ! A1    A(1,2,3)              109.046          estimate D2E/DX2                !
 ! A2    A(1,2,4)              109.046          estimate D2E/DX2                !
 ! A3    A(1,2,5)              109.046          estimate D2E/DX2                !
 ! A4    A(3,2,4)              109.8931         estimate D2E/DX2                !
 ! A5    A(3,2,5)              109.8931         estimate D2E/DX2                !
 ! A6    A(4,2,5)              109.8931         estimate D2E/DX2                !
 ! A7    A(2,3,6)               89.4772         estimate D2E/DX2                !
 ! A8    A(2,4,6)               89.4772         estimate D2E/DX2                !
 ! A9    A(2,5,6)               89.4772         estimate D2E/DX2                !
 ! A10   A(3,6,4)               33.7238         estimate D2E/DX2                !
 ! A11   A(3,6,5)               33.7238         estimate D2E/DX2                !
 ! A12   A(4,6,5)               33.7238         estimate D2E/DX2                !
 ! D1    D(1,2,3,6)            180.0            estimate D2E/DX2                !
 ! D2    D(4,2,3,6)             60.5242         estimate D2E/DX2                !
 ! D3    D(5,2,3,6)            -60.5242         estimate D2E/DX2                !
 ! D4    D(1,2,4,6)            180.0            estimate D2E/DX2                !
 ! D5    D(3,2,4,6)            -60.5242         estimate D2E/DX2                !
 ! D6    D(5,2,4,6)             60.5242         estimate D2E/DX2                !
 ! D7    D(1,2,5,6)            180.0            estimate D2E/DX2                !
 ! D8    D(3,2,5,6)             60.5242         estimate D2E/DX2                !
 ! D9    D(4,2,5,6)            -60.5242         estimate D2E/DX2                !
 ! D10   D(2,3,6,4)            -31.4976         estimate D2E/DX2                !
 ! D11   D(2,3,6,5)             31.4976         estimate D2E/DX2                !
 ! D12   D(2,4,6,3)             31.4976         estimate D2E/DX2                !
 ! D13   D(2,4,6,5)            -31.4976         estimate D2E/DX2                !
 ! D14   D(2,5,6,3)            -31.4976         estimate D2E/DX2                !
 ! D15   D(2,5,6,4)             31.4976         estimate D2E/DX2                !
 --------------------------------------------------------------------------------
 Maximum allowed force set to 1.00D+20.
 Trust Radius=3.00D-01 FncErr=1.00D-07 GrdErr=1.00D-06 EigMax=2.50D+02 EigMin=1.00D-04
 Number of steps in this run=    100 maximum allowed number of steps=    100.
 GradGradGradGradGradGradGradGradGradGradGradGradGradGradGradGradGradGrad

 Leave Link  103 at Wed Oct  7 14:31:08 2020, MaxMem=  2684354560 cpu:               1.2 elap:               0.5
 (Enter /udrive/faculty/rpeverati/g16/g16/l202.exe)
                          Input orientation:                          
 ---------------------------------------------------------------------
 Center     Atomic      Atomic             Coordinates (Angstroms)
 Number     Number       Type             X           Y           Z
 ---------------------------------------------------------------------
      1          9           0        0.000000    0.000000   -1.889936
      2          6           0        0.000000    0.000000   -0.481563
      3          1           0       -0.512360    0.887433   -0.127802
      4          1           0       -0.512360   -0.887433   -0.127802
      5          1           0        1.024720    0.000000   -0.127802
      6         17           0        0.000000    0.000000    2.754906
 ---------------------------------------------------------------------
                    Distance matrix (angstroms):
                    1          2          3          4          5
     1  F    0.000000
     2  C    1.408373   0.000000
     3  H    2.038422   1.084065   0.000000
     4  H    2.038422   1.084065   1.774867   0.000000
     5  H    2.038422   1.084065   1.774867   1.774867   0.000000
     6  Cl   4.644842   3.236469   3.059422   3.059422   3.059422
                    6
     6  Cl   0.000000
 Stoichiometry    CH3ClF(1-)
 Framework group  C3V[C3(FCCl),3SGV(H)]
 Deg. of freedom     4
 Full point group                 C3V     NOp   6
 Largest Abelian subgroup         CS      NOp   2
 Largest concise Abelian subgroup CS      NOp   2
                         Standard orientation:                         
 ---------------------------------------------------------------------
 Center     Atomic      Atomic             Coordinates (Angstroms)
 Number     Number       Type             X           Y           Z
 ---------------------------------------------------------------------
      1          9           0        0.000000    0.000000   -2.648542
      2          6           0        0.000000    0.000000   -1.240168
      3          1           0       -0.000000    1.024720   -0.886408
      4          1           0       -0.887433   -0.512360   -0.886408
      5          1           0        0.887433   -0.512360   -0.886408
      6         17           0        0.000000    0.000000    1.996301
 ---------------------------------------------------------------------
 Rotational constants (GHZ):         159.1843784           1.7131884           1.7131884
 Leave Link  202 at Wed Oct  7 14:31:09 2020, MaxMem=  2684354560 cpu:               1.4 elap:               0.4
 (Enter /udrive/faculty/rpeverati/g16/g16/l301.exe)
 Standard basis: 6-31G(d) (5D, 7F)
 Ernie: Thresh=  0.10000D-02 Tol=  0.10000D-05 Strict=F.
 There are    40 symmetry adapted cartesian basis functions of A'  symmetry.
 There are    15 symmetry adapted cartesian basis functions of A"  symmetry.
 There are    37 symmetry adapted basis functions of A'  symmetry.
 There are    15 symmetry adapted basis functions of A"  symmetry.
    52 basis functions,   120 primitive gaussians,    55 cartesian basis functions
    18 alpha electrons       18 beta electrons
       nuclear repulsion energy        79.9097195431 Hartrees.
 IExCor= 1009 DFT=T Ex+Corr=PBE1PBE ExCW=0 ScaHFX=  0.250000
 ScaDFX=  0.750000  0.750000  1.000000  1.000000 ScalE2=  1.000000  1.000000
 IRadAn=      5 IRanWt=     -1 IRanGd=            0 ICorTp=0 IEmpDi=141
 NAtoms=    6 NActive=    6 NUniq=    4 SFac= 2.25D+00 NAtFMM=   60 NAOKFM=F Big=F
 Integral buffers will be    131072 words long.
 Raffenetti 2 integral format.
 Two-electron integral symmetry is turned on.
 R6Disp:  Grimme-D3(BJ) Dispersion energy=       -0.0020498867 Hartrees.
 Nuclear repulsion after empirical dispersion term =       79.9076696564 Hartrees.
 Leave Link  301 at Wed Oct  7 14:31:09 2020, MaxMem=  2684354560 cpu:               2.2 elap:               0.5
 (Enter /udrive/faculty/rpeverati/g16/g16/l302.exe)
 NPDir=0 NMtPBC=     1 NCelOv=     1 NCel=       1 NClECP=     1 NCelD=      1
         NCelK=      1 NCelE2=     1 NClLst=     1 CellRange=     0.0.
 One-electron integrals computed using PRISM.
 One-electron integral symmetry used in STVInt
 NBasis=    52 RedAO= T EigKep=  1.85D-02  NBF=    37    15
 NBsUse=    52 1.00D-06 EigRej= -1.00D+00 NBFU=    37    15
 Precomputing XC quadrature grid using
 IXCGrd= 4 IRadAn=           5 IRanWt=          -1 IRanGd=           0 AccXCQ= 0.00D+00.
 Generated NRdTot=       0 NPtTot=           0 NUsed=           0 NTot=          32
 NSgBfM=    55    55    55    55    55 MxSgAt=     6 MxSgA2=     6.
 Leave Link  302 at Wed Oct  7 14:31:10 2020, MaxMem=  2684354560 cpu:               3.9 elap:               0.6
 (Enter /udrive/faculty/rpeverati/g16/g16/l303.exe)
 DipDrv:  MaxL=1.
 Leave Link  303 at Wed Oct  7 14:31:11 2020, MaxMem=  2684354560 cpu:               2.0 elap:               0.5
 (Enter /udrive/faculty/rpeverati/g16/g16/l401.exe)
 SCF N**3 symmetry information disabled.
 ExpMin= 1.43D-01 ExpMax= 2.52D+04 ExpMxC= 3.78D+03 IAcc=3 IRadAn=         5 AccDes= 0.00D+00
 Harris functional with IExCor= 1009 and IRadAn=       5 diagonalized for initial guess.
 HarFok:  IExCor= 1009 AccDes= 0.00D+00 IRadAn=         5 IDoV= 1 UseB2=F ITyADJ=14
 ICtDFT=  3500011 ScaDFX=  1.000000  1.000000  1.000000  1.000000
 FoFCou: FMM=F IPFlag=           0 FMFlag=      100000 FMFlg1=           0
         NFxFlg=           0 DoJE=T BraDBF=F KetDBF=T FulRan=T
         wScrn=  0.000000 ICntrl=       500 IOpCl=  0 I1Cent=   200000004 NGrid=           0
         NMat0=    1 NMatS0=      1 NMatT0=    0 NMatD0=    1 NMtDS0=    0 NMtDT0=    0
 Petite list used in FoFCou.
 Harris En= -599.728036307542    
 JPrj=0 DoOrth=F DoCkMO=F.
 Initial guess orbital symmetries:
       Occupied  (A1) (A1) (A1) (A1) (A1) (E) (E) (A1) (A1) (A1)
                 (A1) (E) (E) (E) (E) (A1) (E) (E)
       Virtual   (A1) (A1) (E) (E) (A1) (A1) (E) (E) (E) (E) (A1)
                 (E) (E) (A1) (E) (E) (E) (E) (A1) (A1) (E) (E)
                 (A1) (E) (E) (E) (E) (A1) (A1) (E) (E) (E) (E)
                 (A1)
 The electronic state of the initial guess is 1-A1.
 Leave Link  401 at Wed Oct  7 14:31:12 2020, MaxMem=  2684354560 cpu:               6.1 elap:               0.9
 (Enter /udrive/faculty/rpeverati/g16/g16/l502.exe)
 Keep R1 ints in memory in symmetry-blocked form, NReq=11461362.
 FoFCou: FMM=F IPFlag=           0 FMFlag=           0 FMFlg1=           0
         NFxFlg=           0 DoJE=F BraDBF=F KetDBF=F FulRan=T
         wScrn=  0.000000 ICntrl=       600 IOpCl=  0 I1Cent=           0 NGrid=           0
         NMat0=    1 NMatS0=   1378 NMatT0=    0 NMatD0=    1 NMtDS0=    0 NMtDT0=    0
 Petite list used in FoFCou.
 Closed shell SCF:
 Using DIIS extrapolation, IDIIS=  1040.
 NGot=  2684354560 LenX=  2683850115 LenY=  2683846649
 Requested convergence on RMS density matrix=1.00D-08 within 120 cycles.
 Requested convergence on MAX density matrix=1.00D-06.
 Requested convergence on             energy=1.00D-06.
 No special actions if energy rises.
 Integral accuracy reduced to 1.0D-05 until final iterations.

 Cycle   1  Pass 0  IDiag  1:
 E= -599.629697802419    
 DIIS: error= 3.64D-02 at cycle   1 NSaved=   1.
 NSaved= 1 IEnMin= 1 EnMin= -599.629697802419     IErMin= 1 ErrMin= 3.64D-02
 ErrMax= 3.64D-02  0.00D+00 EMaxC= 1.00D-01 BMatC= 4.88D-02 BMatP= 4.88D-02
 IDIUse=3 WtCom= 6.36D-01 WtEn= 3.64D-01
 Coeff-Com:  0.100D+01
 Coeff-En:   0.100D+01
 Coeff:      0.100D+01
 Gap=     0.312 Goal=   None    Shift=    0.000
 GapD=    0.312 DampG=1.000 DampE=0.500 DampFc=0.5000 IDamp=-1.
 Damping current iteration by 5.00D-01
 RMSDP=8.44D-03 MaxDP=1.31D-01              OVMax= 8.19D-02

 Cycle   2  Pass 0  IDiag  1:
 E= -599.657137073902     Delta-E=       -0.027439271484 Rises=F Damp=T
 DIIS: error= 7.97D-03 at cycle   2 NSaved=   2.
 NSaved= 2 IEnMin= 2 EnMin= -599.657137073902     IErMin= 2 ErrMin= 7.97D-03
 ErrMax= 7.97D-03  0.00D+00 EMaxC= 1.00D-01 BMatC= 2.93D-03 BMatP= 4.88D-02
 IDIUse=3 WtCom= 9.20D-01 WtEn= 7.97D-02
 Coeff-Com: -0.113D+00 0.111D+01
 Coeff-En:   0.000D+00 0.100D+01
 Coeff:     -0.104D+00 0.110D+01
 Gap=     0.299 Goal=   None    Shift=    0.000
 RMSDP=1.05D-03 MaxDP=8.93D-03 DE=-2.74D-02 OVMax= 3.63D-02

 Cycle   3  Pass 0  IDiag  1:
 E= -599.681628255928     Delta-E=       -0.024491182026 Rises=F Damp=F
 DIIS: error= 1.79D-03 at cycle   3 NSaved=   3.
 NSaved= 3 IEnMin= 3 EnMin= -599.681628255928     IErMin= 3 ErrMin= 1.79D-03
 ErrMax= 1.79D-03  0.00D+00 EMaxC= 1.00D-01 BMatC= 1.48D-04 BMatP= 2.93D-03
 IDIUse=3 WtCom= 9.82D-01 WtEn= 1.79D-02
 Coeff-Com: -0.368D-01 0.176D+00 0.860D+00
 Coeff-En:   0.000D+00 0.000D+00 0.100D+01
 Coeff:     -0.361D-01 0.173D+00 0.863D+00
 Gap=     0.298 Goal=   None    Shift=    0.000
 RMSDP=2.30D-04 MaxDP=2.79D-03 DE=-2.45D-02 OVMax= 3.11D-03

 Cycle   4  Pass 0  IDiag  1:
 E= -599.681745120391     Delta-E=       -0.000116864463 Rises=F Damp=F
 DIIS: error= 5.13D-04 at cycle   4 NSaved=   4.
 NSaved= 4 IEnMin= 4 EnMin= -599.681745120391     IErMin= 4 ErrMin= 5.13D-04
 ErrMax= 5.13D-04  0.00D+00 EMaxC= 1.00D-01 BMatC= 1.49D-05 BMatP= 1.48D-04
 IDIUse=3 WtCom= 9.95D-01 WtEn= 5.13D-03
 Coeff-Com: -0.405D-02 0.220D-01 0.257D+00 0.725D+00
 Coeff-En:   0.000D+00 0.000D+00 0.000D+00 0.100D+01
 Coeff:     -0.403D-02 0.219D-01 0.256D+00 0.726D+00
 Gap=     0.296 Goal=   None    Shift=    0.000
 RMSDP=8.87D-05 MaxDP=1.22D-03 DE=-1.17D-04 OVMax= 1.10D-03

 Cycle   5  Pass 0  IDiag  1:
 E= -599.681756243462     Delta-E=       -0.000011123071 Rises=F Damp=F
 DIIS: error= 1.62D-04 at cycle   5 NSaved=   5.
 NSaved= 5 IEnMin= 5 EnMin= -599.681756243462     IErMin= 5 ErrMin= 1.62D-04
 ErrMax= 1.62D-04  0.00D+00 EMaxC= 1.00D-01 BMatC= 1.66D-06 BMatP= 1.49D-05
 IDIUse=3 WtCom= 9.98D-01 WtEn= 1.62D-03
 Coeff-Com: -0.188D-03 0.108D-02 0.882D-01 0.339D+00 0.572D+00
 Coeff-En:   0.000D+00 0.000D+00 0.000D+00 0.000D+00 0.100D+01
 Coeff:     -0.187D-03 0.108D-02 0.881D-01 0.338D+00 0.573D+00
 Gap=     0.297 Goal=   None    Shift=    0.000
 RMSDP=2.83D-05 MaxDP=4.69D-04 DE=-1.11D-05 OVMax= 3.53D-04

 Cycle   6  Pass 0  IDiag  1:
 E= -599.681757709980     Delta-E=       -0.000001466518 Rises=F Damp=F
 DIIS: error= 3.12D-05 at cycle   6 NSaved=   6.
 NSaved= 6 IEnMin= 6 EnMin= -599.681757709980     IErMin= 6 ErrMin= 3.12D-05
 ErrMax= 3.12D-05  0.00D+00 EMaxC= 1.00D-01 BMatC= 5.22D-08 BMatP= 1.66D-06
 IDIUse=1 WtCom= 1.00D+00 WtEn= 0.00D+00
 Coeff-Com:  0.207D-03-0.352D-03 0.266D-01 0.110D+00 0.242D+00 0.621D+00
 Coeff:      0.207D-03-0.352D-03 0.266D-01 0.110D+00 0.242D+00 0.621D+00
 Gap=     0.297 Goal=   None    Shift=    0.000
 RMSDP=3.74D-06 MaxDP=5.96D-05 DE=-1.47D-06 OVMax= 8.43D-05

 Initial convergence to 1.0D-05 achieved.  Increase integral accuracy.
 Cycle   7  Pass 1  IDiag  1:
 E= -599.681754695429     Delta-E=        0.000003014551 Rises=F Damp=F
 DIIS: error= 1.25D-05 at cycle   1 NSaved=   1.
 NSaved= 1 IEnMin= 1 EnMin= -599.681754695429     IErMin= 1 ErrMin= 1.25D-05
 ErrMax= 1.25D-05  0.00D+00 EMaxC= 1.00D-01 BMatC= 7.07D-09 BMatP= 7.07D-09
 IDIUse=1 WtCom= 1.00D+00 WtEn= 0.00D+00
 Coeff-Com:  0.100D+01
 Coeff:      0.100D+01
 Gap=     0.297 Goal=   None    Shift=    0.000
 RMSDP=3.74D-06 MaxDP=5.96D-05 DE= 3.01D-06 OVMax= 3.90D-05

 Cycle   8  Pass 1  IDiag  1:
 E= -599.681754696051     Delta-E=       -0.000000000623 Rises=F Damp=F
 DIIS: error= 1.37D-05 at cycle   2 NSaved=   2.
 NSaved= 2 IEnMin= 2 EnMin= -599.681754696051     IErMin= 1 ErrMin= 1.25D-05
 ErrMax= 1.37D-05  0.00D+00 EMaxC= 1.00D-01 BMatC= 8.53D-09 BMatP= 7.07D-09
 IDIUse=1 WtCom= 1.00D+00 WtEn= 0.00D+00
 Coeff-Com:  0.525D+00 0.475D+00
 Coeff:      0.525D+00 0.475D+00
 Gap=     0.297 Goal=   None    Shift=    0.000
 RMSDP=1.25D-06 MaxDP=1.87D-05 DE=-6.23D-10 OVMax= 2.69D-05

 Cycle   9  Pass 1  IDiag  1:
 E= -599.681754702888     Delta-E=       -0.000000006837 Rises=F Damp=F
 DIIS: error= 2.11D-06 at cycle   3 NSaved=   3.
 NSaved= 3 IEnMin= 3 EnMin= -599.681754702888     IErMin= 3 ErrMin= 2.11D-06
 ErrMax= 2.11D-06  0.00D+00 EMaxC= 1.00D-01 BMatC= 1.68D-10 BMatP= 7.07D-09
 IDIUse=1 WtCom= 1.00D+00 WtEn= 0.00D+00
 Coeff-Com:  0.694D-01 0.140D+00 0.791D+00
 Coeff:      0.694D-01 0.140D+00 0.791D+00
 Gap=     0.297 Goal=   None    Shift=    0.000
 RMSDP=2.48D-07 MaxDP=3.05D-06 DE=-6.84D-09 OVMax= 2.81D-06

 Cycle  10  Pass 1  IDiag  1:
 E= -599.681754702969     Delta-E=       -0.000000000081 Rises=F Damp=F
 DIIS: error= 7.99D-07 at cycle   4 NSaved=   4.
 NSaved= 4 IEnMin= 4 EnMin= -599.681754702969     IErMin= 4 ErrMin= 7.99D-07
 ErrMax= 7.99D-07  0.00D+00 EMaxC= 1.00D-01 BMatC= 3.25D-11 BMatP= 1.68D-10
 IDIUse=1 WtCom= 1.00D+00 WtEn= 0.00D+00
 Coeff-Com: -0.202D-01 0.221D-01 0.369D+00 0.629D+00
 Coeff:     -0.202D-01 0.221D-01 0.369D+00 0.629D+00
 Gap=     0.297 Goal=   None    Shift=    0.000
 RMSDP=1.11D-07 MaxDP=1.55D-06 DE=-8.07D-11 OVMax= 1.48D-06

 Cycle  11  Pass 1  IDiag  1:
 E= -599.681754702996     Delta-E=       -0.000000000027 Rises=F Damp=F
 DIIS: error= 6.54D-08 at cycle   5 NSaved=   5.
 NSaved= 5 IEnMin= 5 EnMin= -599.681754702996     IErMin= 5 ErrMin= 6.54D-08
 ErrMax= 6.54D-08  0.00D+00 EMaxC= 1.00D-01 BMatC= 1.85D-13 BMatP= 3.25D-11
 IDIUse=1 WtCom= 1.00D+00 WtEn= 0.00D+00
 Coeff-Com: -0.715D-02 0.515D-02 0.101D+00 0.191D+00 0.710D+00
 Coeff:     -0.715D-02 0.515D-02 0.101D+00 0.191D+00 0.710D+00
 Gap=     0.297 Goal=   None    Shift=    0.000
 RMSDP=6.70D-09 MaxDP=5.48D-08 DE=-2.73D-11 OVMax= 7.82D-08

 SCF Done:  E(RPBE1PBE) =  -599.681754703     A.U. after   11 cycles
            NFock= 11  Conv=0.67D-08     -V/T= 2.0021
 KE= 5.984134838646D+02 PE=-1.594215169486D+03 EE= 3.162122612620D+02
 Leave Link  502 at Wed Oct  7 14:31:14 2020, MaxMem=  2684354560 cpu:              17.0 elap:               1.8
 (Enter /udrive/faculty/rpeverati/g16/g16/l508.exe)
 QCSCF skips out because SCF is already converged.
 Leave Link  508 at Wed Oct  7 14:31:15 2020, MaxMem=  2684354560 cpu:               0.3 elap:               0.3
 (Enter /udrive/faculty/rpeverati/g16/g16/l601.exe)
 Copying SCF densities to generalized density rwf, IOpCl= 0 IROHF=0.

 **********************************************************************

            Population analysis using the SCF density.

 **********************************************************************

 Orbital symmetries:
       Occupied  (A1) (A1) (A1) (A1) (A1) (E) (E) (A1) (A1) (A1)
                 (A1) (E) (E) (E) (E) (A1) (E) (E)
       Virtual   (A1) (A1) (E) (E) (A1) (E) (E) (A1) (E) (E) (A1)
                 (E) (E) (A1) (A1) (E) (E) (E) (E) (A1) (A1) (E)
                 (E) (E) (E) (E) (E) (A1) (A1) (E) (E) (E) (E)
                 (A1)
 The electronic state is 1-A1.
 Alpha  occ. eigenvalues -- -101.36431 -24.59663 -10.12439  -9.18927  -6.91897
 Alpha  occ. eigenvalues --   -6.91863  -6.91863  -1.04989  -0.55523  -0.48088
 Alpha  occ. eigenvalues --   -0.33217  -0.32863  -0.32863  -0.19494  -0.19494
 Alpha  occ. eigenvalues --   -0.02260  -0.02069  -0.02069
 Alpha virt. eigenvalues --    0.27623   0.31527   0.34496   0.34496   0.63312
 Alpha virt. eigenvalues --    0.70965   0.70965   0.71051   0.75179   0.75179
 Alpha virt. eigenvalues --    0.84046   1.04628   1.04628   1.12657   1.15883
 Alpha virt. eigenvalues --    1.21363   1.21363   1.21673   1.21673   1.28388
 Alpha virt. eigenvalues --    1.41611   1.42577   1.42577   1.68248   1.68248
 Alpha virt. eigenvalues --    1.99476   1.99476   2.10000   2.25408   2.36467
 Alpha virt. eigenvalues --    2.36467   2.57583   2.57583   3.17032
          Condensed to atoms (all electrons):
               1          2          3          4          5          6
     1  F    9.290627   0.199998  -0.029125  -0.029125  -0.029125   0.000280
     2  C    0.199998   4.842700   0.373392   0.373392   0.373392  -0.006029
     3  H   -0.029125   0.373392   0.546780  -0.035297  -0.035297   0.006134
     4  H   -0.029125   0.373392  -0.035297   0.546780  -0.035297   0.006134
     5  H   -0.029125   0.373392  -0.035297  -0.035297   0.546780   0.006134
     6  Cl   0.000280  -0.006029   0.006134   0.006134   0.006134  17.947206
 Mulliken charges:
               1
     1  F   -0.403531
     2  C   -0.156847
     3  H    0.173412
     4  H    0.173412
     5  H    0.173412
     6  Cl  -0.959858
 Sum of Mulliken charges =  -1.00000
 Mulliken charges with hydrogens summed into heavy atoms:
               1
     1  F   -0.403531
     2  C    0.363389
     6  Cl  -0.959858
 Electronic spatial extent (au):  <R**2>=            601.2373
 Charge=             -1.0000 electrons
 Dipole moment (field-independent basis, Debye):
    X=             -0.0000    Y=             -0.0000    Z=             -6.5910  Tot=              6.5910
 Quadrupole moment (field-independent basis, Debye-Ang):
   XX=            -27.2363   YY=            -27.2363   ZZ=            -54.7838
   XY=             -0.0000   XZ=              0.0000   YZ=              0.0000
 Traceless Quadrupole moment (field-independent basis, Debye-Ang):
   XX=              9.1825   YY=              9.1825   ZZ=            -18.3650
   XY=             -0.0000   XZ=              0.0000   YZ=              0.0000
 Octapole moment (field-independent basis, Debye-Ang**2):
  XXX=              0.0000  YYY=              0.5696  ZZZ=            -39.7875  XYY=              0.0000
  XXY=             -0.5696  XXZ=            -10.2357  XZZ=              0.0000  YZZ=             -0.0000
  YYZ=            -10.2357  XYZ=              0.0000
 Hexadecapole moment (field-independent basis, Debye-Ang**3):
 XXXX=            -35.1435 YYYY=            -35.1435 ZZZZ=           -797.4139 XXXY=              0.0000
 XXXZ=             -0.0000 YYYX=              0.0000 YYYZ=             -0.4410 ZZZX=             -0.0000
 ZZZY=             -0.0000 XXYY=            -11.7145 XXZZ=           -115.9158 YYZZ=           -115.9158
 XXYZ=              0.4410 YYXZ=             -0.0000 ZZXY=              0.0000
 N-N= 7.990766965637D+01 E-N=-1.594215167208D+03  KE= 5.984134838646D+02
 No NMR shielding tensors so no spin-rotation constants.
 Leave Link  601 at Wed Oct  7 14:31:16 2020, MaxMem=  2684354560 cpu:               4.3 elap:               0.7
 (Enter /udrive/faculty/rpeverati/g16/g16/l701.exe)
 ... and contract with generalized density number  0.
 Compute integral first derivatives.
 R6Disp: Adding Grimme-D3(BJ) dispersion energy 1st derivatives to the gradient.
 Leave Link  701 at Wed Oct  7 14:31:17 2020, MaxMem=  2684354560 cpu:               6.5 elap:               0.9
 (Enter /udrive/faculty/rpeverati/g16/g16/l702.exe)
 L702 exits ... SP integral derivatives will be done elsewhere.
 Leave Link  702 at Wed Oct  7 14:31:18 2020, MaxMem=  2684354560 cpu:               1.6 elap:               0.6
 (Enter /udrive/faculty/rpeverati/g16/g16/l703.exe)
 Integral derivatives from FoFJK, PRISM(SPDF).
 Compute integral first derivatives, UseDBF=F ICtDFT=           0.
 Calling FoFJK, ICntrl=      2127 FMM=F ISym2X=1 I1Cent= 0 IOpClX= 0 NMat=1 NMatS=1 NMatT=0.
 FoFJK:  IHMeth= 1 ICntrl=    2127 DoSepK=F KAlg= 0 I1Cent=           0 FoldK=F
 IRaf=         0 NMat=       1 IRICut=       1 DoRegI=T DoRafI=F ISym2E= 1 IDoP0=0 IntGTp=1.
 FoFCou: FMM=F IPFlag=           0 FMFlag=      100000 FMFlg1=         800
         NFxFlg=           0 DoJE=F BraDBF=F KetDBF=F FulRan=T
         wScrn=  0.000000 ICntrl=      2127 IOpCl=  0 I1Cent=           0 NGrid=           0
         NMat0=    1 NMatS0=      1 NMatT0=    0 NMatD0=    1 NMtDS0=    0 NMtDT0=    0
 Petite list used in FoFCou.
 Leave Link  703 at Wed Oct  7 14:31:20 2020, MaxMem=  2684354560 cpu:              10.1 elap:               1.2
 (Enter /udrive/faculty/rpeverati/g16/g16/l716.exe)
 Dipole        =-2.22044605D-16-1.11022302D-16-2.59311192D+00
 ***** Axes restored to original set *****
 -------------------------------------------------------------------
 Center     Atomic                   Forces (Hartrees/Bohr)
 Number     Number              X              Y              Z
 -------------------------------------------------------------------
      1        9           0.000000000    0.000000000    0.002964966
      2        6          -0.000000000   -0.000000000   -0.012782659
      3        1          -0.001894802    0.003281893    0.003641031
      4        1          -0.001894802   -0.003281893    0.003641031
      5        1           0.003789604   -0.000000000    0.003641031
      6       17          -0.000000000    0.000000000   -0.001105401
 -------------------------------------------------------------------
 Cartesian Forces:  Max     0.012782659 RMS     0.003773180
 Leave Link  716 at Wed Oct  7 14:31:21 2020, MaxMem=  2684354560 cpu:               1.9 elap:               0.5
 (Enter /udrive/faculty/rpeverati/g16/g16/l103.exe)

 GradGradGradGradGradGradGradGradGradGradGradGradGradGradGradGradGradGrad
 Berny optimization.
 Optmz: redundant internal coordinate code flag= 1
 FormGI is forming the generalized inverse of G from B-inverse, IUseBI=4.
 Internal  Forces:  Max     0.004432405 RMS     0.001544986
 Search for a local minimum.
 Step number   1 out of a maximum of  100
 All quantities printed in internal units (Hartrees-Bohrs-Radians)
 RMS Force = .15450D-02 SwitMx=.10000D-02 MixMth= 1
 Mixed Optimization -- RFO/linear search
 Second derivative matrix not updated -- first step.
 The second derivative matrix:
                          R1        R2        R3        R4        R5
           R1           0.44261
           R2           0.00000   0.35508
           R3           0.00000   0.00000   0.35508
           R4           0.00000   0.00000   0.00000   0.35508
           R5           0.00000   0.00000   0.00000   0.00000   0.01291
           R6           0.00000   0.00000   0.00000   0.00000   0.00000
           R7           0.00000   0.00000   0.00000   0.00000   0.00000
           A1           0.00000   0.00000   0.00000   0.00000   0.00000
           A2           0.00000   0.00000   0.00000   0.00000   0.00000
           A3           0.00000   0.00000   0.00000   0.00000   0.00000
           A4           0.00000   0.00000   0.00000   0.00000   0.00000
           A5           0.00000   0.00000   0.00000   0.00000   0.00000
           A6           0.00000   0.00000   0.00000   0.00000   0.00000
           A7           0.00000   0.00000   0.00000   0.00000   0.00000
           A8           0.00000   0.00000   0.00000   0.00000   0.00000
           A9           0.00000   0.00000   0.00000   0.00000   0.00000
           A10          0.00000   0.00000   0.00000   0.00000   0.00000
           A11          0.00000   0.00000   0.00000   0.00000   0.00000
           A12          0.00000   0.00000   0.00000   0.00000   0.00000
           D1           0.00000   0.00000   0.00000   0.00000   0.00000
           D2           0.00000   0.00000   0.00000   0.00000   0.00000
           D3           0.00000   0.00000   0.00000   0.00000   0.00000
           D4           0.00000   0.00000   0.00000   0.00000   0.00000
           D5           0.00000   0.00000   0.00000   0.00000   0.00000
           D6           0.00000   0.00000   0.00000   0.00000   0.00000
           D7           0.00000   0.00000   0.00000   0.00000   0.00000
           D8           0.00000   0.00000   0.00000   0.00000   0.00000
           D9           0.00000   0.00000   0.00000   0.00000   0.00000
           D10          0.00000   0.00000   0.00000   0.00000   0.00000
           D11          0.00000   0.00000   0.00000   0.00000   0.00000
           D12          0.00000   0.00000   0.00000   0.00000   0.00000
           D13          0.00000   0.00000   0.00000   0.00000   0.00000
           D14          0.00000   0.00000   0.00000   0.00000   0.00000
           D15          0.00000   0.00000   0.00000   0.00000   0.00000
                          R6        R7        A1        A2        A3
           R6           0.01291
           R7           0.00000   0.01291
           A1           0.00000   0.00000   0.16000
           A2           0.00000   0.00000   0.00000   0.16000
           A3           0.00000   0.00000   0.00000   0.00000   0.16000
           A4           0.00000   0.00000   0.00000   0.00000   0.00000
           A5           0.00000   0.00000   0.00000   0.00000   0.00000
           A6           0.00000   0.00000   0.00000   0.00000   0.00000
           A7           0.00000   0.00000   0.00000   0.00000   0.00000
           A8           0.00000   0.00000   0.00000   0.00000   0.00000
           A9           0.00000   0.00000   0.00000   0.00000   0.00000
           A10          0.00000   0.00000   0.00000   0.00000   0.00000
           A11          0.00000   0.00000   0.00000   0.00000   0.00000
           A12          0.00000   0.00000   0.00000   0.00000   0.00000
           D1           0.00000   0.00000   0.00000   0.00000   0.00000
           D2           0.00000   0.00000   0.00000   0.00000   0.00000
           D3           0.00000   0.00000   0.00000   0.00000   0.00000
           D4           0.00000   0.00000   0.00000   0.00000   0.00000
           D5           0.00000   0.00000   0.00000   0.00000   0.00000
           D6           0.00000   0.00000   0.00000   0.00000   0.00000
           D7           0.00000   0.00000   0.00000   0.00000   0.00000
           D8           0.00000   0.00000   0.00000   0.00000   0.00000
           D9           0.00000   0.00000   0.00000   0.00000   0.00000
           D10          0.00000   0.00000   0.00000   0.00000   0.00000
           D11          0.00000   0.00000   0.00000   0.00000   0.00000
           D12          0.00000   0.00000   0.00000   0.00000   0.00000
           D13          0.00000   0.00000   0.00000   0.00000   0.00000
           D14          0.00000   0.00000   0.00000   0.00000   0.00000
           D15          0.00000   0.00000   0.00000   0.00000   0.00000
                          A4        A5        A6        A7        A8
           A4           0.16000
           A5           0.00000   0.16000
           A6           0.00000   0.00000   0.16000
           A7           0.00000   0.00000   0.00000   0.25000
           A8           0.00000   0.00000   0.00000   0.00000   0.25000
           A9           0.00000   0.00000   0.00000   0.00000   0.00000
           A10          0.00000   0.00000   0.00000   0.00000   0.00000
           A11          0.00000   0.00000   0.00000   0.00000   0.00000
           A12          0.00000   0.00000   0.00000   0.00000   0.00000
           D1           0.00000   0.00000   0.00000   0.00000   0.00000
           D2           0.00000   0.00000   0.00000   0.00000   0.00000
           D3           0.00000   0.00000   0.00000   0.00000   0.00000
           D4           0.00000   0.00000   0.00000   0.00000   0.00000
           D5           0.00000   0.00000   0.00000   0.00000   0.00000
           D6           0.00000   0.00000   0.00000   0.00000   0.00000
           D7           0.00000   0.00000   0.00000   0.00000   0.00000
           D8           0.00000   0.00000   0.00000   0.00000   0.00000
           D9           0.00000   0.00000   0.00000   0.00000   0.00000
           D10          0.00000   0.00000   0.00000   0.00000   0.00000
           D11          0.00000   0.00000   0.00000   0.00000   0.00000
           D12          0.00000   0.00000   0.00000   0.00000   0.00000
           D13          0.00000   0.00000   0.00000   0.00000   0.00000
           D14          0.00000   0.00000   0.00000   0.00000   0.00000
           D15          0.00000   0.00000   0.00000   0.00000   0.00000
                          A9        A10       A11       A12       D1
           A9           0.25000
           A10          0.00000   0.16000
           A11          0.00000   0.00000   0.16000
           A12          0.00000   0.00000   0.00000   0.16000
           D1           0.00000   0.00000   0.00000   0.00000   0.00313
           D2           0.00000   0.00000   0.00000   0.00000   0.00000
           D3           0.00000   0.00000   0.00000   0.00000   0.00000
           D4           0.00000   0.00000   0.00000   0.00000   0.00000
           D5           0.00000   0.00000   0.00000   0.00000   0.00000
           D6           0.00000   0.00000   0.00000   0.00000   0.00000
           D7           0.00000   0.00000   0.00000   0.00000   0.00000
           D8           0.00000   0.00000   0.00000   0.00000   0.00000
           D9           0.00000   0.00000   0.00000   0.00000   0.00000
           D10          0.00000   0.00000   0.00000   0.00000   0.00000
           D11          0.00000   0.00000   0.00000   0.00000   0.00000
           D12          0.00000   0.00000   0.00000   0.00000   0.00000
           D13          0.00000   0.00000   0.00000   0.00000   0.00000
           D14          0.00000   0.00000   0.00000   0.00000   0.00000
           D15          0.00000   0.00000   0.00000   0.00000   0.00000
                          D2        D3        D4        D5        D6
           D2           0.00313
           D3           0.00000   0.00313
           D4           0.00000   0.00000   0.00313
           D5           0.00000   0.00000   0.00000   0.00313
           D6           0.00000   0.00000   0.00000   0.00000   0.00313
           D7           0.00000   0.00000   0.00000   0.00000   0.00000
           D8           0.00000   0.00000   0.00000   0.00000   0.00000
           D9           0.00000   0.00000   0.00000   0.00000   0.00000
           D10          0.00000   0.00000   0.00000   0.00000   0.00000
           D11          0.00000   0.00000   0.00000   0.00000   0.00000
           D12          0.00000   0.00000   0.00000   0.00000   0.00000
           D13          0.00000   0.00000   0.00000   0.00000   0.00000
           D14          0.00000   0.00000   0.00000   0.00000   0.00000
           D15          0.00000   0.00000   0.00000   0.00000   0.00000
                          D7        D8        D9        D10       D11
           D7           0.00313
           D8           0.00000   0.00313
           D9           0.00000   0.00000   0.00313
           D10          0.00000   0.00000   0.00000   0.00230
           D11          0.00000   0.00000   0.00000   0.00000   0.00230
           D12          0.00000   0.00000   0.00000   0.00000   0.00000
           D13          0.00000   0.00000   0.00000   0.00000   0.00000
           D14          0.00000   0.00000   0.00000   0.00000   0.00000
           D15          0.00000   0.00000   0.00000   0.00000   0.00000
                          D12       D13       D14       D15
           D12          0.00230
           D13          0.00000   0.00230
           D14          0.00000   0.00000   0.00230
           D15          0.00000   0.00000   0.00000   0.00230
 ITU=  0
 Eigenvectors of the second derivative matrix:
                           1         2         3         4         5
     Eigenvalues --     0.01464   0.03227   0.03227   0.07184   0.07184
   1         R1         0.00000  -0.00000   0.00000  -0.00000   0.00000
   2         R2        -0.00822  -0.01992   0.01345   0.00122   0.01058
   3         R3        -0.00822  -0.00168  -0.02398   0.00855  -0.00634
   4         R4        -0.00822   0.02161   0.01053  -0.00977  -0.00423
   5         R5        -0.57299   0.40644  -0.27431  -0.01148  -0.09968
   6         R6        -0.57299   0.03434   0.48914  -0.08058   0.05979
   7         R7        -0.57299  -0.44078  -0.21483   0.09207   0.03989
   8         A1         0.01929   0.06804  -0.04592  -0.03828  -0.33229
   9         A2         0.01929   0.00575   0.08189  -0.26863   0.19930
  10         A3         0.01929  -0.07379  -0.03597   0.30692   0.13299
  11         A4        -0.01899  -0.09727  -0.04741  -0.37814  -0.16385
  12         A5        -0.01899   0.00758   0.10795   0.33097  -0.24555
  13         A6        -0.01899   0.08970  -0.06054   0.04717   0.40940
  14         A7        -0.01214  -0.19441   0.13121   0.00538   0.04672
  15         A8        -0.01214  -0.01642  -0.23397   0.03777  -0.02802
  16         A9        -0.01214   0.21083   0.10276  -0.04315  -0.01870
  17         A10        0.05361  -0.04699  -0.02290  -0.07414  -0.03213
  18         A11        0.05361   0.00366   0.05215   0.06489  -0.04814
  19         A12        0.05361   0.04333  -0.02924   0.00925   0.08027
  20         D1        -0.00000   0.19031   0.28198  -0.40307   0.04644
  21         D2        -0.02394   0.20019   0.23849   0.17576   0.10443
  22         D3         0.02394   0.14628   0.27488   0.14741  -0.14166
  23         D4        -0.00000  -0.33935   0.02382   0.24175   0.32585
  24         D5         0.02394  -0.31119  -0.01076  -0.19639  -0.05683
  25         D6        -0.02394  -0.30664   0.05413   0.00255  -0.20443
  26         D7         0.00000   0.14905  -0.30580   0.16132  -0.37228
  27         D8        -0.02394   0.10644  -0.29262  -0.17832   0.10000
  28         D9         0.02394   0.16491  -0.26412   0.04897   0.19849
  29         D10       -0.00498  -0.12989  -0.05512  -0.22387  -0.09375
  30         D11        0.00498  -0.00252  -0.14108  -0.19668   0.14220
  31         D12        0.00498   0.12344   0.06836   0.22149   0.09923
  32         D13       -0.00498   0.11268  -0.08493   0.03074   0.24075
  33         D14       -0.00498   0.01721   0.14005   0.19313  -0.14700
  34         D15        0.00498  -0.12092   0.07273  -0.02481  -0.24144
                           6         7         8         9        10
     Eigenvalues --     0.09587   0.09587   0.10139   0.30913   0.30913
   1         R1        -0.00000   0.00000  -0.00000  -0.00000  -0.00000
   2         R2        -0.01856   0.01083   0.02866   0.42894   0.61614
   3         R3        -0.00010  -0.02149   0.02866  -0.74806   0.06340
   4         R4         0.01866   0.01066   0.02866   0.31913  -0.67954
   5         R5         0.31815  -0.18565   0.02911  -0.00325  -0.00467
   6         R6         0.00170   0.36835   0.02911   0.00567  -0.00048
   7         R7        -0.31985  -0.18270   0.02911  -0.00242   0.00515
   8         A1        -0.40663   0.23728   0.22922   0.00244   0.00350
   9         A2        -0.00217  -0.47079   0.22922  -0.00425   0.00036
  10         A3         0.40880   0.23352   0.22922   0.00181  -0.00386
  11         A4         0.29102   0.16624  -0.22558   0.00164  -0.00348
  12         A5        -0.00155  -0.33515  -0.22558  -0.00383   0.00032
  13         A6        -0.28948   0.16891  -0.22558   0.00220   0.00316
  14         A7        -0.15168   0.08851   0.25417  -0.07070  -0.10156
  15         A8        -0.00081  -0.17561   0.25417   0.12330  -0.01045
  16         A9         0.15249   0.08710   0.25417  -0.05260   0.11201
  17         A10        0.04236   0.02420  -0.04254  -0.04700   0.10007
  18         A11       -0.00022  -0.04878  -0.04254   0.11016  -0.00934
  19         A12       -0.04213   0.02458  -0.04254  -0.06317  -0.09073
  20         D1        -0.15509  -0.26579  -0.00000   0.00161  -0.00112
  21         D2        -0.07900   0.06447  -0.28442   0.00433  -0.00161
  22         D3         0.09500  -0.03706   0.28442   0.00301  -0.00351
  23         D4         0.30773  -0.00142   0.00000   0.00017   0.00196
  24         D5        -0.01540   0.10080   0.28442   0.00153   0.00436
  25         D6        -0.01633  -0.10065  -0.28442  -0.00077   0.00456
  26         D7        -0.15264   0.26721   0.00000  -0.00178  -0.00084
  27         D8         0.09533   0.03618  -0.28442  -0.00356  -0.00295
  28         D9        -0.07959  -0.06374   0.28442  -0.00454  -0.00085
  29         D10        0.13098   0.08221   0.00395   0.18007   0.07263
  30         D11        0.00713   0.15448  -0.00395  -0.00561  -0.19409
  31         D12       -0.13735  -0.07106  -0.00395   0.17089   0.09219
  32         D13       -0.13668   0.07233   0.00395  -0.15294   0.11963
  33         D14        0.00570  -0.15454   0.00395  -0.02714  -0.19226
  34         D15        0.13022  -0.08341  -0.00395  -0.16528   0.10190
                          11        12
     Eigenvalues --     0.33710   0.44261
   1         R1        -0.00000  -1.00000
   2         R2        -0.54786  -0.00000
   3         R3        -0.54786   0.00000
   4         R4        -0.54786   0.00000
   5         R5        -0.01076  -0.00000
   6         R6        -0.01076   0.00000
   7         R7        -0.01076   0.00000
   8         A1        -0.01030  -0.00000
   9         A2        -0.01030   0.00000
  10         A3        -0.01030  -0.00000
  11         A4         0.01013   0.00000
  12         A5         0.01013  -0.00000
  13         A6         0.01013   0.00000
  14         A7         0.08284   0.00000
  15         A8         0.08284  -0.00000
  16         A9         0.08284  -0.00000
  17         A10       -0.15883   0.00000
  18         A11       -0.15883  -0.00000
  19         A12       -0.15883   0.00000
  20         D1         0.00000   0.00000
  21         D2         0.01278   0.00000
  22         D3        -0.01278  -0.00000
  23         D4        -0.00000   0.00000
  24         D5        -0.01278   0.00000
  25         D6         0.01278  -0.00000
  26         D7         0.00000  -0.00000
  27         D8         0.01278   0.00000
  28         D9        -0.01278   0.00000
  29         D10        0.01475  -0.00000
  30         D11       -0.01475   0.00000
  31         D12       -0.01475  -0.00000
  32         D13        0.01475   0.00000
  33         D14        0.01475  -0.00000
  34         D15       -0.01475   0.00000
 Iter=   1 RLamda= 0.00000000D+00 Sum=-3.32507642D-04.
 Iter=   2 RLamda=-3.32507642D-04 Sum=-3.31132417D-04.
 Iter=   3 RLamda=-3.31132417D-04 Sum=-3.31138018D-04.
 RFO step:  Lambda=-3.31132417D-04 EMin= 1.46387448D-02
 Linear search not attempted -- first point.
 Iteration  1 RMS(Cart)=  0.00561470 RMS(Int)=  0.00006349
 Iteration  2 RMS(Cart)=  0.00003711 RMS(Int)=  0.00003221
 Iteration  3 RMS(Cart)=  0.00000000 RMS(Int)=  0.00003221
 ITry= 1 IFail=0 DXMaxC= 2.18D-02 DCOld= 1.00D+10 DXMaxT= 3.00D-01 DXLimC= 3.00D+00 Rises=F
 ClnCor:  largest displacement from symmetrization is 7.59D-09 for atom     1.
 Variable       Old X    -DE/DX   Delta X   Delta X   Delta X     New X
                                 (Linear)    (Quad)   (Total)
    R1        2.66144  -0.00296   0.00000  -0.00669  -0.00669   2.65475
    R2        2.04859   0.00443   0.00000   0.01331   0.01331   2.06190
    R3        2.04859   0.00443   0.00000   0.01331   0.01331   2.06190
    R4        2.04859   0.00443   0.00000   0.01331   0.01331   2.06190
    R5        5.78147  -0.00027   0.00000  -0.02836  -0.02837   5.75310
    R6        5.78147  -0.00027   0.00000  -0.02836  -0.02837   5.75310
    R7        5.78147  -0.00027   0.00000  -0.02836  -0.02837   5.75310
    A1        1.90321   0.00077   0.00000   0.00784   0.00786   1.91107
    A2        1.90321   0.00077   0.00000   0.00784   0.00786   1.91107
    A3        1.90321   0.00077   0.00000   0.00784   0.00786   1.91107
    A4        1.91800  -0.00076   0.00000  -0.00772  -0.00780   1.91020
    A5        1.91800  -0.00076   0.00000  -0.00772  -0.00780   1.91020
    A6        1.91800  -0.00076   0.00000  -0.00772  -0.00780   1.91020
    A7        1.56167   0.00008   0.00000   0.00475   0.00477   1.56644
    A8        1.56167   0.00008   0.00000   0.00475   0.00477   1.56644
    A9        1.56167   0.00008   0.00000   0.00475   0.00477   1.56644
   A10        0.58859   0.00118   0.00000   0.00527   0.00527   0.59386
   A11        0.58859   0.00118   0.00000   0.00527   0.00527   0.59386
   A12        0.58859   0.00118   0.00000   0.00527   0.00527   0.59386
    D1        3.14159   0.00000   0.00000   0.00000   0.00000  -3.14159
    D2        1.05635  -0.00095   0.00000  -0.00973  -0.00968   1.04667
    D3       -1.05635   0.00095   0.00000   0.00973   0.00968  -1.04667
    D4        3.14159  -0.00000   0.00000  -0.00000   0.00000   3.14159
    D5       -1.05635   0.00095   0.00000   0.00973   0.00968  -1.04667
    D6        1.05635  -0.00095   0.00000  -0.00973  -0.00968   1.04667
    D7        3.14159  -0.00000   0.00000  -0.00000   0.00000   3.14159
    D8        1.05635  -0.00095   0.00000  -0.00973  -0.00968   1.04667
    D9       -1.05635   0.00095   0.00000   0.00973   0.00968  -1.04667
   D10       -0.54974  -0.00011   0.00000  -0.00049  -0.00049  -0.55023
   D11        0.54974   0.00011   0.00000   0.00049   0.00049   0.55023
   D12        0.54974   0.00011   0.00000   0.00049   0.00049   0.55023
   D13       -0.54974  -0.00011   0.00000  -0.00049  -0.00049  -0.55023
   D14       -0.54974  -0.00011   0.00000  -0.00049  -0.00049  -0.55023
   D15        0.54974   0.00011   0.00000   0.00049   0.00049   0.55023
         Item               Value     Threshold  Converged?
 Maximum Force            0.004432     0.000450     NO 
 RMS     Force            0.001545     0.000300     NO 
 Maximum Displacement     0.021826     0.001800     NO 
 RMS     Displacement     0.005609     0.001200     NO 
 Predicted change in Energy=-1.657753D-04
 Lowest energy point so far.  Saving SCF results.
 Largest change from initial coordinates is atom    6       0.012 Angstoms.
 GradGradGradGradGradGradGradGradGradGradGradGradGradGradGradGradGradGrad

 Leave Link  103 at Wed Oct  7 14:31:22 2020, MaxMem=  2684354560 cpu:               4.9 elap:               0.8
 (Enter /udrive/faculty/rpeverati/g16/g16/l202.exe)
                          Input orientation:                          
 ---------------------------------------------------------------------
 Center     Atomic      Atomic             Coordinates (Angstroms)
 Number     Number       Type             X           Y           Z
 ---------------------------------------------------------------------
      1          9           0        0.000000    0.000000   -1.891027
      2          6           0        0.000000   -0.000000   -0.486196
      3          1           0       -0.514275    0.890750   -0.122045
      4          1           0       -0.514275   -0.890750   -0.122045
      5          1           0        1.028550   -0.000000   -0.122045
      6         17           0        0.000000    0.000000    2.743357
 ---------------------------------------------------------------------
                    Distance matrix (angstroms):
                    1          2          3          4          5
     1  F    0.000000
     2  C    1.404831   0.000000
     3  H    2.046268   1.091110   0.000000
     4  H    2.046268   1.091110   1.781501   0.000000
     5  H    2.046268   1.091110   1.781501   1.781501   0.000000
     6  Cl   4.634383   3.229552   3.044411   3.044411   3.044411
                    6
     6  Cl   0.000000
 Stoichiometry    CH3ClF(1-)
 Framework group  C3V[C3(FCCl),3SGV(H)]
 Deg. of freedom     4
 Full point group                 C3V     NOp   6
 RotChk:  IX=0 Diff= 0.00D+00
 Largest Abelian subgroup         CS      NOp   2
 Largest concise Abelian subgroup CS      NOp   2
                         Standard orientation:                         
 ---------------------------------------------------------------------
 Center     Atomic      Atomic             Coordinates (Angstroms)
 Number     Number       Type             X           Y           Z
 ---------------------------------------------------------------------
      1          9           0        0.000000    0.000000   -2.643441
      2          6           0        0.000000    0.000000   -1.238610
      3          1           0       -0.000000    1.028550   -0.874460
      4          1           0       -0.890750   -0.514275   -0.874460
      5          1           0        0.890750   -0.514275   -0.874460
      6         17           0        0.000000    0.000000    1.990942
 ---------------------------------------------------------------------
 Rotational constants (GHZ):         158.0010586           1.7211000           1.7211000
 Leave Link  202 at Wed Oct  7 14:31:22 2020, MaxMem=  2684354560 cpu:               0.9 elap:               0.4
 (Enter /udrive/faculty/rpeverati/g16/g16/l301.exe)
 Standard basis: 6-31G(d) (5D, 7F)
 Ernie: Thresh=  0.10000D-02 Tol=  0.10000D-05 Strict=F.
 There are    40 symmetry adapted cartesian basis functions of A'  symmetry.
 There are    15 symmetry adapted cartesian basis functions of A"  symmetry.
 There are    37 symmetry adapted basis functions of A'  symmetry.
 There are    15 symmetry adapted basis functions of A"  symmetry.
    52 basis functions,   120 primitive gaussians,    55 cartesian basis functions
    18 alpha electrons       18 beta electrons
       nuclear repulsion energy        79.9924949321 Hartrees.
 IExCor= 1009 DFT=T Ex+Corr=PBE1PBE ExCW=0 ScaHFX=  0.250000
 ScaDFX=  0.750000  0.750000  1.000000  1.000000 ScalE2=  1.000000  1.000000
 IRadAn=      5 IRanWt=     -1 IRanGd=            0 ICorTp=0 IEmpDi=141
 NAtoms=    6 NActive=    6 NUniq=    4 SFac= 2.25D+00 NAtFMM=   60 NAOKFM=F Big=F
 Integral buffers will be    131072 words long.
 Raffenetti 2 integral format.
 Two-electron integral symmetry is turned on.
 R6Disp:  Grimme-D3(BJ) Dispersion energy=       -0.0020565357 Hartrees.
 Nuclear repulsion after empirical dispersion term =       79.9904383964 Hartrees.
 Leave Link  301 at Wed Oct  7 14:31:23 2020, MaxMem=  2684354560 cpu:               2.0 elap:               0.6
 (Enter /udrive/faculty/rpeverati/g16/g16/l302.exe)
 NPDir=0 NMtPBC=     1 NCelOv=     1 NCel=       1 NClECP=     1 NCelD=      1
         NCelK=      1 NCelE2=     1 NClLst=     1 CellRange=     0.0.
 One-electron integrals computed using PRISM.
 One-electron integral symmetry used in STVInt
 NBasis=    52 RedAO= T EigKep=  1.89D-02  NBF=    37    15
 NBsUse=    52 1.00D-06 EigRej= -1.00D+00 NBFU=    37    15
 Precomputing XC quadrature grid using
 IXCGrd= 4 IRadAn=           5 IRanWt=          -1 IRanGd=           0 AccXCQ= 0.00D+00.
 Generated NRdTot=       0 NPtTot=           0 NUsed=           0 NTot=          32
 NSgBfM=    55    55    55    55    55 MxSgAt=     6 MxSgA2=     6.
 Leave Link  302 at Wed Oct  7 14:31:24 2020, MaxMem=  2684354560 cpu:               3.7 elap:               0.7
 (Enter /udrive/faculty/rpeverati/g16/g16/l303.exe)
 DipDrv:  MaxL=1.
 Leave Link  303 at Wed Oct  7 14:31:25 2020, MaxMem=  2684354560 cpu:               1.9 elap:               0.6
 (Enter /udrive/faculty/rpeverati/g16/g16/l401.exe)
 Initial guess from the checkpoint file:  "MN_36_fch3clcomp2_BH76_PBE0DBJ_631Gs.chk"
 SCF N**3 symmetry information disabled.
 B after Tr=     0.000000    0.000000   -0.000000
         Rot=    1.000000   -0.000000    0.000000    0.000000 Ang=   0.00 deg.
 Guess basis will be translated and rotated to current coordinates.
 JPrj=2 DoOrth=T DoCkMO=T.
 Initial guess orbital symmetries:
       Occupied  (A1) (A1) (A1) (A1) (A1) (E) (E) (A1) (A1) (A1)
                 (A1) (E) (E) (E) (E) (A1) (E) (E)
       Virtual   (A1) (A1) (E) (E) (A1) (E) (E) (A1) (E) (E) (A1)
                 (E) (E) (A1) (A1) (E) (E) (E) (E) (A1) (A1) (E)
                 (E) (E) (E) (E) (E) (A1) (A1) (E) (E) (E) (E)
                 (A1)
 The electronic state of the initial guess is 1-A1.
 Generating alternative initial guess.
 ExpMin= 1.43D-01 ExpMax= 2.52D+04 ExpMxC= 3.78D+03 IAcc=2 IRadAn=         4 AccDes= 0.00D+00
 Harris functional with IExCor= 1009 and IRadAn=       4 diagonalized for initial guess.
 HarFok:  IExCor= 1009 AccDes= 0.00D+00 IRadAn=         4 IDoV= 1 UseB2=F ITyADJ=14
 ICtDFT=  3500011 ScaDFX=  1.000000  1.000000  1.000000  1.000000
 FoFCou: FMM=F IPFlag=           0 FMFlag=      100000 FMFlg1=           0
         NFxFlg=           0 DoJE=T BraDBF=F KetDBF=T FulRan=T
         wScrn=  0.000000 ICntrl=       500 IOpCl=  0 I1Cent=   200000004 NGrid=           0
         NMat0=    1 NMatS0=      1 NMatT0=    0 NMatD0=    1 NMtDS0=    0 NMtDT0=    0
 Petite list used in FoFCou.
 Harris En= -599.730254660503    
 Leave Link  401 at Wed Oct  7 14:31:26 2020, MaxMem=  2684354560 cpu:               6.0 elap:               0.8
 (Enter /udrive/faculty/rpeverati/g16/g16/l502.exe)
 Keep R1 ints in memory in symmetry-blocked form, NReq=11461362.
 FoFCou: FMM=F IPFlag=           0 FMFlag=           0 FMFlg1=           0
         NFxFlg=           0 DoJE=F BraDBF=F KetDBF=F FulRan=T
         wScrn=  0.000000 ICntrl=       600 IOpCl=  0 I1Cent=           0 NGrid=           0
         NMat0=    1 NMatS0=   1378 NMatT0=    0 NMatD0=    1 NMtDS0=    0 NMtDT0=    0
 Petite list used in FoFCou.
 Closed shell SCF:
 Using DIIS extrapolation, IDIIS=  1040.
 NGot=  2684354560 LenX=  2683850115 LenY=  2683846649
 Requested convergence on RMS density matrix=1.00D-08 within 120 cycles.
 Requested convergence on MAX density matrix=1.00D-06.
 Requested convergence on             energy=1.00D-06.
 No special actions if energy rises.
 Integral accuracy reduced to 1.0D-05 until final iterations.

 Cycle   1  Pass 0  IDiag  1:
 E= -599.681927647709    
 DIIS: error= 1.02D-03 at cycle   1 NSaved=   1.
 NSaved= 1 IEnMin= 1 EnMin= -599.681927647709     IErMin= 1 ErrMin= 1.02D-03
 ErrMax= 1.02D-03  0.00D+00 EMaxC= 1.00D-01 BMatC= 3.11D-05 BMatP= 3.11D-05
 IDIUse=3 WtCom= 9.90D-01 WtEn= 1.02D-02
 Coeff-Com:  0.100D+01
 Coeff-En:   0.100D+01
 Coeff:      0.100D+01
 Gap=     0.299 Goal=   None    Shift=    0.000
 GapD=    0.299 DampG=1.000 DampE=1.000 DampFc=1.0000 IDamp=-1.
 RMSDP=1.66D-04 MaxDP=2.62D-03              OVMax= 2.84D-03

 Cycle   2  Pass 0  IDiag  1:
 E= -599.681956748063     Delta-E=       -0.000029100354 Rises=F Damp=F
 DIIS: error= 7.90D-04 at cycle   2 NSaved=   2.
 NSaved= 2 IEnMin= 2 EnMin= -599.681956748063     IErMin= 2 ErrMin= 7.90D-04
 ErrMax= 7.90D-04  0.00D+00 EMaxC= 1.00D-01 BMatC= 1.69D-05 BMatP= 3.11D-05
 IDIUse=3 WtCom= 9.92D-01 WtEn= 7.90D-03
 Coeff-Com:  0.401D+00 0.599D+00
 Coeff-En:   0.000D+00 0.100D+01
 Coeff:      0.398D+00 0.602D+00
 Gap=     0.298 Goal=   None    Shift=    0.000
 RMSDP=7.04D-05 MaxDP=1.15D-03 DE=-2.91D-05 OVMax= 1.43D-03

 Cycle   3  Pass 0  IDiag  1:
 E= -599.681970103632     Delta-E=       -0.000013355569 Rises=F Damp=F
 DIIS: error= 2.03D-04 at cycle   3 NSaved=   3.
 NSaved= 3 IEnMin= 3 EnMin= -599.681970103632     IErMin= 3 ErrMin= 2.03D-04
 ErrMax= 2.03D-04  0.00D+00 EMaxC= 1.00D-01 BMatC= 2.39D-06 BMatP= 1.69D-05
 IDIUse=3 WtCom= 9.98D-01 WtEn= 2.03D-03
 Coeff-Com:  0.387D-03 0.264D+00 0.735D+00
 Coeff-En:   0.000D+00 0.320D-01 0.968D+00
 Coeff:      0.387D-03 0.264D+00 0.736D+00
 Gap=     0.298 Goal=   None    Shift=    0.000
 RMSDP=2.03D-05 MaxDP=3.56D-04 DE=-1.34D-05 OVMax= 4.38D-04

 Cycle   4  Pass 0  IDiag  1:
 E= -599.681971720762     Delta-E=       -0.000001617131 Rises=F Damp=F
 DIIS: error= 7.48D-05 at cycle   4 NSaved=   4.
 NSaved= 4 IEnMin= 4 EnMin= -599.681971720762     IErMin= 4 ErrMin= 7.48D-05
 ErrMax= 7.48D-05  0.00D+00 EMaxC= 1.00D-01 BMatC= 2.23D-07 BMatP= 2.39D-06
 IDIUse=1 WtCom= 1.00D+00 WtEn= 0.00D+00
 Coeff-Com: -0.100D-01 0.116D+00 0.372D+00 0.522D+00
 Coeff:     -0.100D-01 0.116D+00 0.372D+00 0.522D+00
 Gap=     0.298 Goal=   None    Shift=    0.000
 RMSDP=6.72D-06 MaxDP=8.50D-05 DE=-1.62D-06 OVMax= 9.12D-05

 Initial convergence to 1.0D-05 achieved.  Increase integral accuracy.
 Cycle   5  Pass 1  IDiag  1:
 E= -599.681968284056     Delta-E=        0.000003436707 Rises=F Damp=F
 DIIS: error= 7.93D-06 at cycle   1 NSaved=   1.
 NSaved= 1 IEnMin= 1 EnMin= -599.681968284056     IErMin= 1 ErrMin= 7.93D-06
 ErrMax= 7.93D-06  0.00D+00 EMaxC= 1.00D-01 BMatC= 2.28D-09 BMatP= 2.28D-09
 IDIUse=1 WtCom= 1.00D+00 WtEn= 0.00D+00
 Coeff-Com:  0.100D+01
 Coeff:      0.100D+01
 Gap=     0.298 Goal=   None    Shift=    0.000
 RMSDP=6.72D-06 MaxDP=8.50D-05 DE= 3.44D-06 OVMax= 1.41D-05

 Cycle   6  Pass 1  IDiag  1:
 E= -599.681968286786     Delta-E=       -0.000000002730 Rises=F Damp=F
 DIIS: error= 3.65D-06 at cycle   2 NSaved=   2.
 NSaved= 2 IEnMin= 2 EnMin= -599.681968286786     IErMin= 2 ErrMin= 3.65D-06
 ErrMax= 3.65D-06  0.00D+00 EMaxC= 1.00D-01 BMatC= 6.15D-10 BMatP= 2.28D-09
 IDIUse=1 WtCom= 1.00D+00 WtEn= 0.00D+00
 Coeff-Com:  0.289D+00 0.711D+00
 Coeff:      0.289D+00 0.711D+00
 Gap=     0.298 Goal=   None    Shift=    0.000
 RMSDP=4.55D-07 MaxDP=6.53D-06 DE=-2.73D-09 OVMax= 5.91D-06

 Cycle   7  Pass 1  IDiag  1:
 E= -599.681968287104     Delta-E=       -0.000000000318 Rises=F Damp=F
 DIIS: error= 2.17D-06 at cycle   3 NSaved=   3.
 NSaved= 3 IEnMin= 3 EnMin= -599.681968287104     IErMin= 3 ErrMin= 2.17D-06
 ErrMax= 2.17D-06  0.00D+00 EMaxC= 1.00D-01 BMatC= 1.72D-10 BMatP= 6.15D-10
 IDIUse=1 WtCom= 1.00D+00 WtEn= 0.00D+00
 Coeff-Com: -0.223D-02 0.338D+00 0.664D+00
 Coeff:     -0.223D-02 0.338D+00 0.664D+00
 Gap=     0.298 Goal=   None    Shift=    0.000
 RMSDP=1.76D-07 MaxDP=2.95D-06 DE=-3.18D-10 OVMax= 3.17D-06

 Cycle   8  Pass 1  IDiag  1:
 E= -599.681968287202     Delta-E=       -0.000000000099 Rises=F Damp=F
 DIIS: error= 3.72D-07 at cycle   4 NSaved=   4.
 NSaved= 4 IEnMin= 4 EnMin= -599.681968287202     IErMin= 4 ErrMin= 3.72D-07
 ErrMax= 3.72D-07  0.00D+00 EMaxC= 1.00D-01 BMatC= 8.86D-12 BMatP= 1.72D-10
 IDIUse=1 WtCom= 1.00D+00 WtEn= 0.00D+00
 Coeff-Com: -0.155D-01 0.112D+00 0.300D+00 0.604D+00
 Coeff:     -0.155D-01 0.112D+00 0.300D+00 0.604D+00
 Gap=     0.298 Goal=   None    Shift=    0.000
 RMSDP=4.23D-08 MaxDP=5.74D-07 DE=-9.87D-11 OVMax= 8.66D-07

 Cycle   9  Pass 1  IDiag  1:
 E= -599.681968287211     Delta-E=       -0.000000000009 Rises=F Damp=F
 DIIS: error= 1.27D-07 at cycle   5 NSaved=   5.
 NSaved= 5 IEnMin= 5 EnMin= -599.681968287211     IErMin= 5 ErrMin= 1.27D-07
 ErrMax= 1.27D-07  0.00D+00 EMaxC= 1.00D-01 BMatC= 3.14D-13 BMatP= 8.86D-12
 IDIUse=1 WtCom= 1.00D+00 WtEn= 0.00D+00
 Coeff-Com: -0.618D-02 0.332D-01 0.976D-01 0.260D+00 0.616D+00
 Coeff:     -0.618D-02 0.332D-01 0.976D-01 0.260D+00 0.616D+00
 Gap=     0.298 Goal=   None    Shift=    0.000
 RMSDP=8.58D-09 MaxDP=1.67D-07 DE=-8.87D-12 OVMax= 1.31D-07

 SCF Done:  E(RPBE1PBE) =  -599.681968287     A.U. after    9 cycles
            NFock=  9  Conv=0.86D-08     -V/T= 2.0022
 KE= 5.983882779755D+02 PE=-1.594357491120D+03 EE= 3.162968064604D+02
 Leave Link  502 at Wed Oct  7 14:31:28 2020, MaxMem=  2684354560 cpu:              17.6 elap:               1.9
 (Enter /udrive/faculty/rpeverati/g16/g16/l508.exe)
 QCSCF skips out because SCF is already converged.
 Leave Link  508 at Wed Oct  7 14:31:29 2020, MaxMem=  2684354560 cpu:               0.3 elap:               0.3
 (Enter /udrive/faculty/rpeverati/g16/g16/l701.exe)
 ... and contract with generalized density number  0.
 Compute integral first derivatives.
 R6Disp: Adding Grimme-D3(BJ) dispersion energy 1st derivatives to the gradient.
 Leave Link  701 at Wed Oct  7 14:31:30 2020, MaxMem=  2684354560 cpu:               6.5 elap:               0.9
 (Enter /udrive/faculty/rpeverati/g16/g16/l702.exe)
 L702 exits ... SP integral derivatives will be done elsewhere.
 Leave Link  702 at Wed Oct  7 14:31:31 2020, MaxMem=  2684354560 cpu:               1.2 elap:               0.4
 (Enter /udrive/faculty/rpeverati/g16/g16/l703.exe)
 Integral derivatives from FoFJK, PRISM(SPDF).
 Compute integral first derivatives, UseDBF=F ICtDFT=           0.
 Calling FoFJK, ICntrl=      2127 FMM=F ISym2X=1 I1Cent= 0 IOpClX= 0 NMat=1 NMatS=1 NMatT=0.
 FoFJK:  IHMeth= 1 ICntrl=    2127 DoSepK=F KAlg= 0 I1Cent=           0 FoldK=F
 IRaf=         0 NMat=       1 IRICut=       1 DoRegI=T DoRafI=F ISym2E= 1 IDoP0=0 IntGTp=1.
 FoFCou: FMM=F IPFlag=           0 FMFlag=      100000 FMFlg1=         800
         NFxFlg=           0 DoJE=F BraDBF=F KetDBF=F FulRan=T
         wScrn=  0.000000 ICntrl=      2127 IOpCl=  0 I1Cent=           0 NGrid=           0
         NMat0=    1 NMatS0=      1 NMatT0=    0 NMatD0=    1 NMtDS0=    0 NMtDT0=    0
 Petite list used in FoFCou.
 Leave Link  703 at Wed Oct  7 14:31:32 2020, MaxMem=  2684354560 cpu:               7.3 elap:               1.0
 (Enter /udrive/faculty/rpeverati/g16/g16/l716.exe)
 Dipole        =-2.22044605D-16-3.33066907D-16-2.58834505D+00
 ***** Axes restored to original set *****
 -------------------------------------------------------------------
 Center     Atomic                   Forces (Hartrees/Bohr)
 Number     Number              X              Y              Z
 -------------------------------------------------------------------
      1        9          -0.000000000    0.000000000    0.002389543
      2        6          -0.000000000   -0.000000000   -0.005377427
      3        1           0.000172507   -0.000298791    0.001297191
      4        1           0.000172507    0.000298791    0.001297191
      5        1          -0.000345015    0.000000000    0.001297191
      6       17          -0.000000000    0.000000000   -0.000903691
 -------------------------------------------------------------------
 Cartesian Forces:  Max     0.005377427 RMS     0.001506440
 Leave Link  716 at Wed Oct  7 14:31:33 2020, MaxMem=  2684354560 cpu:               1.4 elap:               0.7
 (Enter /udrive/faculty/rpeverati/g16/g16/l103.exe)

 GradGradGradGradGradGradGradGradGradGradGradGradGradGradGradGradGradGrad
 Berny optimization.
 Optmz: redundant internal coordinate code flag= 1
 Using GEDIIS/GDIIS optimizer.
 Red2BG:  D1=  6.75D-01 OD1=  4.81D-02 B2RMS=  0.00D+00 IAprox=0
 FormGI is forming the generalized inverse of G from B-inverse, IUseBI=4.
 Internal  Forces:  Max     0.002389543 RMS     0.000492821
 Search for a local minimum.
 Step number   2 out of a maximum of  100
 All quantities printed in internal units (Hartrees-Bohrs-Radians)
 RMS Force = .49282D-03 SwitMx=.10000D-02 MixMth= 2
 Mixed Optimization -- En-DIIS/RFO-DIIS
 Update second derivatives using D2CorX and points    1    2
 DE= -2.14D-04 DEPred=-1.66D-04 R= 1.29D+00
 TightC=F SS=  1.41D+00  RLast= 6.38D-02 DXNew= 5.0454D-01 1.9146D-01
 Trust test= 1.29D+00 RLast= 6.38D-02 DXMaxT set to 3.00D-01
 The second derivative matrix:
                          R1        R2        R3        R4        R5
           R1           0.41748
           R2           0.03185   0.36535
           R3           0.03185   0.01027   0.36535
           R4           0.03185   0.01027   0.01027   0.36535
           R5          -0.00345   0.00651   0.00651   0.00651   0.01252
           R6          -0.00345   0.00651   0.00651   0.00651  -0.00038
           R7          -0.00345   0.00651   0.00651   0.00651  -0.00038
           A1           0.01022  -0.01022  -0.01022  -0.01022   0.00152
           A2           0.01022  -0.01022  -0.01022  -0.01022   0.00152
           A3           0.01022  -0.01022  -0.01022  -0.01022   0.00152
           A4          -0.01016   0.01032   0.01032   0.01032  -0.00150
           A5          -0.01016   0.01032   0.01032   0.01032  -0.00150
           A6          -0.01016   0.01032   0.01032   0.01032  -0.00150
           A7           0.01132  -0.02179  -0.02179  -0.02179   0.00124
           A8           0.01132  -0.02179  -0.02179  -0.02179   0.00124
           A9           0.01132  -0.02179  -0.02179  -0.02179   0.00124
           A10          0.00468   0.00927   0.00927   0.00927   0.00128
           A11          0.00468   0.00927   0.00927   0.00927   0.00128
           A12          0.00468   0.00927   0.00927   0.00927   0.00128
           D1          -0.00000   0.00000   0.00000   0.00000  -0.00000
           D2           0.00104  -0.00928  -0.00928  -0.00928  -0.00019
           D3          -0.00104   0.00928   0.00928   0.00928   0.00019
           D4           0.00000  -0.00000  -0.00000  -0.00000   0.00000
           D5          -0.00104   0.00928   0.00928   0.00928   0.00019
           D6           0.00104  -0.00928  -0.00928  -0.00928  -0.00019
           D7          -0.00000   0.00000   0.00000   0.00000   0.00000
           D8           0.00104  -0.00928  -0.00928  -0.00928  -0.00019
           D9          -0.00104   0.00928   0.00928   0.00928   0.00019
           D10          0.00026  -0.00196  -0.00196  -0.00196  -0.00003
           D11         -0.00026   0.00196   0.00196   0.00196   0.00003
           D12         -0.00026   0.00196   0.00196   0.00196   0.00003
           D13          0.00026  -0.00196  -0.00196  -0.00196  -0.00003
           D14          0.00026  -0.00196  -0.00196  -0.00196  -0.00003
           D15         -0.00026   0.00196   0.00196   0.00196   0.00003
                          R6        R7        A1        A2        A3
           R6           0.01252
           R7          -0.00038   0.01252
           A1           0.00152   0.00152   0.15599
           A2           0.00152   0.00152  -0.00401   0.15599
           A3           0.00152   0.00152  -0.00401  -0.00401   0.15599
           A4          -0.00150  -0.00150   0.00399   0.00399   0.00399
           A5          -0.00150  -0.00150   0.00399   0.00399   0.00399
           A6          -0.00150  -0.00150   0.00399   0.00399   0.00399
           A7           0.00124   0.00124  -0.00500  -0.00500  -0.00500
           A8           0.00124   0.00124  -0.00500  -0.00500  -0.00500
           A9           0.00124   0.00124  -0.00500  -0.00500  -0.00500
           A10          0.00128   0.00128  -0.00108  -0.00108  -0.00108
           A11          0.00128   0.00128  -0.00108  -0.00108  -0.00108
           A12          0.00128   0.00128  -0.00108  -0.00108  -0.00108
           D1          -0.00000  -0.00000   0.00000   0.00000   0.00000
           D2          -0.00019  -0.00019  -0.00085  -0.00085  -0.00085
           D3           0.00019   0.00019   0.00085   0.00085   0.00085
           D4           0.00000   0.00000  -0.00000  -0.00000  -0.00000
           D5           0.00019   0.00019   0.00085   0.00085   0.00085
           D6          -0.00019  -0.00019  -0.00085  -0.00085  -0.00085
           D7           0.00000   0.00000   0.00000   0.00000   0.00000
           D8          -0.00019  -0.00019  -0.00085  -0.00085  -0.00085
           D9           0.00019   0.00019   0.00085   0.00085   0.00085
           D10         -0.00003  -0.00003  -0.00019  -0.00019  -0.00019
           D11          0.00003   0.00003   0.00019   0.00019   0.00019
           D12          0.00003   0.00003   0.00019   0.00019   0.00019
           D13         -0.00003  -0.00003  -0.00019  -0.00019  -0.00019
           D14         -0.00003  -0.00003  -0.00019  -0.00019  -0.00019
           D15          0.00003   0.00003   0.00019   0.00019   0.00019
                          A4        A5        A6        A7        A8
           A4           0.15602
           A5          -0.00398   0.15602
           A6          -0.00398  -0.00398   0.15602
           A7           0.00495   0.00495   0.00495   0.24600
           A8           0.00495   0.00495   0.00495  -0.00400   0.24600
           A9           0.00495   0.00495   0.00495  -0.00400  -0.00400
           A10          0.00112   0.00112   0.00112  -0.00434  -0.00434
           A11          0.00112   0.00112   0.00112  -0.00434  -0.00434
           A12          0.00112   0.00112   0.00112  -0.00434  -0.00434
           D1          -0.00000  -0.00000  -0.00000   0.00000   0.00000
           D2           0.00082   0.00082   0.00082   0.00070   0.00070
           D3          -0.00082  -0.00082  -0.00082  -0.00070  -0.00070
           D4           0.00000   0.00000   0.00000  -0.00000  -0.00000
           D5          -0.00082  -0.00082  -0.00082  -0.00070  -0.00070
           D6           0.00082   0.00082   0.00082   0.00070   0.00070
           D7          -0.00000  -0.00000  -0.00000  -0.00000  -0.00000
           D8           0.00082   0.00082   0.00082   0.00070   0.00070
           D9          -0.00082  -0.00082  -0.00082  -0.00070  -0.00070
           D10          0.00019   0.00019   0.00019   0.00012   0.00012
           D11         -0.00019  -0.00019  -0.00019  -0.00012  -0.00012
           D12         -0.00019  -0.00019  -0.00019  -0.00012  -0.00012
           D13          0.00019   0.00019   0.00019   0.00012   0.00012
           D14          0.00019   0.00019   0.00019   0.00012   0.00012
           D15         -0.00019  -0.00019  -0.00019  -0.00012  -0.00012
                          A9        A10       A11       A12       D1
           A9           0.24600
           A10         -0.00434   0.16369
           A11         -0.00434   0.00369   0.16369
           A12         -0.00434   0.00369   0.00369   0.16369
           D1           0.00000   0.00000   0.00000   0.00000   0.00313
           D2           0.00070  -0.00258  -0.00258  -0.00258  -0.00000
           D3          -0.00070   0.00258   0.00258   0.00258   0.00000
           D4          -0.00000  -0.00000  -0.00000  -0.00000   0.00000
           D5          -0.00070   0.00258   0.00258   0.00258   0.00000
           D6           0.00070  -0.00258  -0.00258  -0.00258  -0.00000
           D7          -0.00000   0.00000   0.00000   0.00000   0.00000
           D8           0.00070  -0.00258  -0.00258  -0.00258  -0.00000
           D9          -0.00070   0.00258   0.00258   0.00258   0.00000
           D10          0.00012  -0.00054  -0.00054  -0.00054  -0.00000
           D11         -0.00012   0.00054   0.00054   0.00054   0.00000
           D12         -0.00012   0.00054   0.00054   0.00054   0.00000
           D13          0.00012  -0.00054  -0.00054  -0.00054  -0.00000
           D14          0.00012  -0.00054  -0.00054  -0.00054  -0.00000
           D15         -0.00012   0.00054   0.00054   0.00054   0.00000
                          D2        D3        D4        D5        D6
           D2           0.00434
           D3          -0.00121   0.00434
           D4           0.00000  -0.00000   0.00313
           D5          -0.00121   0.00121  -0.00000   0.00434
           D6           0.00121  -0.00121   0.00000  -0.00121   0.00434
           D7          -0.00000   0.00000  -0.00000   0.00000  -0.00000
           D8           0.00121  -0.00121   0.00000  -0.00121   0.00121
           D9          -0.00121   0.00121  -0.00000   0.00121  -0.00121
           D10          0.00025  -0.00025   0.00000  -0.00025   0.00025
           D11         -0.00025   0.00025  -0.00000   0.00025  -0.00025
           D12         -0.00025   0.00025  -0.00000   0.00025  -0.00025
           D13          0.00025  -0.00025   0.00000  -0.00025   0.00025
           D14          0.00025  -0.00025   0.00000  -0.00025   0.00025
           D15         -0.00025   0.00025  -0.00000   0.00025  -0.00025
                          D7        D8        D9        D10       D11
           D7           0.00313
           D8          -0.00000   0.00434
           D9           0.00000  -0.00121   0.00434
           D10         -0.00000   0.00025  -0.00025   0.00235
           D11          0.00000  -0.00025   0.00025  -0.00005   0.00235
           D12          0.00000  -0.00025   0.00025  -0.00005   0.00005
           D13         -0.00000   0.00025  -0.00025   0.00005  -0.00005
           D14         -0.00000   0.00025  -0.00025   0.00005  -0.00005
           D15          0.00000  -0.00025   0.00025  -0.00005   0.00005
                          D12       D13       D14       D15
           D12          0.00235
           D13         -0.00005   0.00235
           D14         -0.00005   0.00005   0.00235
           D15          0.00005  -0.00005  -0.00005   0.00235
 ITU=  1  0
 Use linear search instead of GDIIS.
 Eigenvectors of the second derivative matrix:
                           1         2         3         4         5
     Eigenvalues --     0.01149   0.03206   0.03206   0.07118   0.07118
   1         R1         0.02782   0.00000   0.00000   0.00000  -0.00000
   2         R2        -0.02060  -0.00997  -0.02185   0.00874   0.00709
   3         R3        -0.02060  -0.01394   0.01956  -0.01051   0.00402
   4         R4        -0.02060   0.02391   0.00229   0.00177  -0.01111
   5         R5         0.56548   0.20326   0.44551  -0.08433  -0.06847
   6         R6         0.56548   0.28419  -0.39879   0.10146  -0.03880
   7         R7         0.56548  -0.48746  -0.04673  -0.01713   0.10727
   8         A1        -0.04359   0.03365   0.07375  -0.25573  -0.20761
   9         A2        -0.04359   0.04704  -0.06601   0.30766  -0.11766
  10         A3        -0.04359  -0.08069  -0.00773  -0.05193   0.32527
  11         A4         0.04363  -0.10929  -0.01048   0.06492  -0.40664
  12         A5         0.04363   0.06372  -0.08941  -0.38462   0.14710
  13         A6         0.04363   0.04557   0.09989   0.31970   0.25955
  14         A7        -0.01026  -0.09672  -0.21198   0.03934   0.03194
  15         A8        -0.01026  -0.13522   0.18975  -0.04733   0.01810
  16         A9        -0.01026   0.23194   0.02223   0.00799  -0.05003
  17         A10       -0.05682  -0.05313  -0.00509   0.01288  -0.08067
  18         A11       -0.05682   0.03098  -0.04347  -0.07630   0.02918
  19         A12       -0.05682   0.02215   0.04856   0.06342   0.05149
[...]
  14         A7         0.03196  -0.01053  -0.17656  -0.12744   0.01815
  15         A8         0.02322  -0.14763   0.09740   0.04800  -0.11944
  16         A9        -0.05518   0.15817   0.07915   0.07944   0.10129
  17         A10       -0.08258   0.04254   0.02129   0.06978   0.08898
  18         A11        0.03475  -0.03971   0.02620   0.04216  -0.10492
  19         A12        0.04784  -0.00283  -0.04749  -0.11195   0.01595
  20         D1        -0.33193  -0.31392   0.01873  -0.00018  -0.00129
  21         D2         0.20689   0.01131  -0.10206   0.00028  -0.00314
  22         D3         0.05804   0.02337   0.09999  -0.00115  -0.00294
  23         D4         0.36896   0.17318   0.26249   0.00121   0.00048
  24         D5        -0.20130   0.07491  -0.07023   0.00312   0.00047
  25         D6        -0.09319  -0.09404   0.04123   0.00258   0.00182
  26         D7        -0.03704   0.14074  -0.28122  -0.00102   0.00080
  27         D8        -0.11370   0.08273   0.06083  -0.00286   0.00133
  28         D9         0.14326  -0.09828  -0.02976  -0.00197   0.00247
  29         D10       -0.24191   0.13376   0.06034   0.14551  -0.12805
  30         D11       -0.10474   0.12563  -0.07582  -0.17548  -0.08233
  31         D12        0.24248  -0.12848  -0.07089   0.15904  -0.11081
  32         D13        0.14285  -0.01462  -0.14601   0.03814   0.19005
  33         D14        0.09906  -0.11914   0.08566  -0.18366  -0.06199
  34         D15       -0.13774   0.00285   0.14671   0.01644   0.19314
                          11        12
     Eigenvalues --     0.40318   0.41745
   1         R1         0.92085  -0.36121
   2         R2        -0.19937  -0.51024
   3         R3        -0.19937  -0.51024
   4         R4        -0.19937  -0.51024
   5         R5        -0.00415  -0.02219
   6         R6        -0.00415  -0.02219
   7         R7        -0.00415  -0.02219
   8         A1         0.02369  -0.03211
   9         A2         0.02369  -0.03211
  10         A3         0.02369  -0.03211
  11         A4        -0.02425   0.03286
  12         A5        -0.02425   0.03286
  13         A6        -0.02425   0.03286
  14         A7         0.06190   0.05250
  15         A8         0.06190   0.05250
  16         A9         0.06190   0.05250
  17         A10       -0.06509  -0.14418
  18         A11       -0.06509  -0.14418
  19         A12       -0.06509  -0.14418
  20         D1         0.00000  -0.00000
  21         D2        -0.02844   0.03856
  22         D3         0.02844  -0.03856
  23         D4        -0.00000  -0.00000
  24         D5         0.02844  -0.03856
  25         D6        -0.02844   0.03856
  26         D7        -0.00000   0.00000
  27         D8        -0.02844   0.03856
  28         D9         0.02844  -0.03856
  29         D10        0.00622   0.01379
  30         D11       -0.00622  -0.01379
  31         D12       -0.00622  -0.01379
  32         D13        0.00622   0.01379
  33         D14        0.00622   0.01379
  34         D15       -0.00622  -0.01379
 DoSqrt=T IScMMF=    -3 MM Scaling Factor =       0.00000
 En-DIIS/RFO-DIIS/Sim-DIIS IScMMF=       -3 using points:     7    6    5    4    3    2
 Iter=   1 RLamda=-4.65342797D-02 Sum=-7.33869676D-08.
 Iter=   2 RLamda=-7.33869676D-08 Sum=-9.72647257D-08.
 Iter=   3 RLamda=-9.72647257D-08 Sum=-9.72647020D-08.
 RFO step:  Lambda=-9.72647257D-08.
 NNeg= 0 NGDIIS= 6 SimSw=  2.50D-01 Rises=F DC= -3.76D-07 SmlDif=  1.00D-05
 NRisDI= 0 DoIntr=F SqrtH=F CThrHd= 10.0 CDAdj=  3.0
 RMS Error=  0.1708859650D-03 NUsed= 6 OKEnD=F EnDIS=F
 Total RFO-DIIS matrix:
                 1             2             3             4             5 
      1   0.000000D+00 -0.100000D+01 -0.100000D+01 -0.100000D+01 -0.100000D+01
      2  -0.100000D+01  0.992868D-06  0.140224D-05 -0.260720D-05 -0.128958D-04
      3  -0.100000D+01  0.140224D-05  0.460144D-04  0.157042D-03  0.330608D-03
      4  -0.100000D+01 -0.260720D-05  0.157042D-03  0.595004D-03  0.131026D-02
      5  -0.100000D+01 -0.128958D-04  0.330608D-03  0.131026D-02  0.293749D-02
      6  -0.100000D+01 -0.419911D-04  0.567600D-03  0.241504D-02  0.554649D-02
      7  -0.100000D+01 -0.869994D-04  0.862750D-03  0.387174D-02  0.903435D-02
                 6             7 
      1  -0.100000D+01 -0.100000D+01
      2  -0.419911D-04 -0.869994D-04
      3   0.567600D-03  0.862750D-03
      4   0.241504D-02  0.387174D-02
      5   0.554649D-02  0.903435D-02
      6   0.108825D-01  0.182128D-01
      7   0.182128D-01  0.310691D-01
 InvSVX:  RCond= 3.23D-21 Info=           8 Equed=N FErr=  0.00D+00 BErr=  0.00D+00
 DIIS inversion failure, remove point   6.
 InvSVX:  RCond= 7.57D-12 Info=           0 Equed=N FErr=  1.04D-08 BErr=  8.66D-17
 DIIS inversion failure, remove point   5.
 InvSVX:  RCond= 1.27D-08 Info=           0 Equed=N FErr=  3.14D-12 BErr=  1.19D-16
 DIIS inversion failure, remove point   4.
 InvSVX:  RCond= 3.38D-07 Info=           0 Equed=N FErr=  2.34D-14 BErr=  3.58D-17
 RFO-DIIS uses    3 points instead of    6
 DidBck=F Rises=F RFO-DIIS coefs:    1.48863   -0.67283    0.18420    0.00000    0.00000
                  RFO-DIIS coefs:    0.00000
 Iteration  1 RMS(Cart)=  0.00011268 RMS(Int)=  0.00000020
 Iteration  2 RMS(Cart)=  0.00000001 RMS(Int)=  0.00000020
 ITry= 1 IFail=0 DXMaxC= 3.46D-04 DCOld= 1.00D+10 DXMaxT= 3.00D-01 DXLimC= 3.00D+00 Rises=F
 ClnCor:  largest displacement from symmetrization is 1.63D-12 for atom     4.
 Variable       Old X    -DE/DX   Delta X   Delta X   Delta X     New X
                                 (Linear)    (Quad)   (Total)
    R1        2.64458   0.00001   0.00017  -0.00006   0.00011   2.64469
    R2        2.06271   0.00009   0.00010   0.00012   0.00022   2.06293
    R3        2.06271   0.00009   0.00010   0.00012   0.00022   2.06293
    R4        2.06271   0.00009   0.00010   0.00012   0.00022   2.06293
    R5        5.64579   0.00000   0.00024   0.00000   0.00024   5.64603
    R6        5.64579   0.00000   0.00024   0.00000   0.00024   5.64603
    R7        5.64579   0.00000   0.00024   0.00000   0.00024   5.64603
    A1        1.92181  -0.00001  -0.00020   0.00001  -0.00019   1.92162
    A2        1.92181  -0.00001  -0.00020   0.00001  -0.00019   1.92162
    A3        1.92181  -0.00001  -0.00020   0.00001  -0.00019   1.92162
    A4        1.89933   0.00001   0.00021  -0.00001   0.00019   1.89952
    A5        1.89933   0.00001   0.00021  -0.00001   0.00019   1.89952
    A6        1.89933   0.00001   0.00021  -0.00001   0.00019   1.89952
    A7        1.57162  -0.00002  -0.00023  -0.00001  -0.00024   1.57138
    A8        1.57162  -0.00002  -0.00023  -0.00001  -0.00024   1.57138
    A9        1.57162  -0.00002  -0.00023  -0.00001  -0.00024   1.57138
   A10        0.60333   0.00003   0.00005   0.00003   0.00009   0.60342
   A11        0.60333   0.00003   0.00005   0.00003   0.00009   0.60342
   A12        0.60333   0.00003   0.00005   0.00003   0.00009   0.60342
    D1        3.14159   0.00000  -0.00000  -0.00000   0.00000  -3.14159
    D2        1.03365   0.00001   0.00024  -0.00001   0.00023   1.03388
    D3       -1.03365  -0.00001  -0.00024   0.00001  -0.00023  -1.03388
    D4        3.14159  -0.00000  -0.00000  -0.00000   0.00000   3.14159
    D5       -1.03365  -0.00001  -0.00024   0.00001  -0.00023  -1.03388
    D6        1.03365   0.00001   0.00024  -0.00001   0.00023   1.03388
    D7        3.14159   0.00000  -0.00000   0.00000   0.00000   3.14159
    D8        1.03365   0.00001   0.00024  -0.00001   0.00023   1.03388
    D9       -1.03365  -0.00001  -0.00024   0.00001  -0.00023  -1.03388
   D10       -0.55113  -0.00000  -0.00000  -0.00000  -0.00001  -0.55113
   D11        0.55113   0.00000   0.00000   0.00000   0.00001   0.55113
   D12        0.55113   0.00000   0.00000   0.00000   0.00001   0.55113
   D13       -0.55113  -0.00000  -0.00000  -0.00000  -0.00001  -0.55113
   D14       -0.55113  -0.00000  -0.00000  -0.00000  -0.00001  -0.55113
   D15        0.55113   0.00000   0.00000   0.00000   0.00001   0.55113
         Item               Value     Threshold  Converged?
 Maximum Force            0.000088     0.000450     YES
 RMS     Force            0.000028     0.000300     YES
 Maximum Displacement     0.000346     0.001800     YES
 RMS     Displacement     0.000113     0.001200     YES
 Predicted change in Energy=-4.840365D-08
 Optimization completed.
    -- Stationary point found.
                           ----------------------------
                           !   Optimized Parameters   !
                           ! (Angstroms and Degrees)  !
 --------------------------                            --------------------------
 ! Name  Definition              Value          Derivative Info.                !
 --------------------------------------------------------------------------------
 ! R1    R(1,2)                  1.3995         -DE/DX =    0.0                 !
 ! R2    R(2,3)                  1.0915         -DE/DX =    0.0001              !
 ! R3    R(2,4)                  1.0915         -DE/DX =    0.0001              !
 ! R4    R(2,5)                  1.0915         -DE/DX =    0.0001              !
 ! R5    R(3,6)                  2.9876         -DE/DX =    0.0                 !
 ! R6    R(4,6)                  2.9876         -DE/DX =    0.0                 !
 ! R7    R(5,6)                  2.9876         -DE/DX =    0.0                 !
 ! A1    A(1,2,3)              110.1114         -DE/DX =    0.0                 !
 ! A2    A(1,2,4)              110.1114         -DE/DX =    0.0                 !
 ! A3    A(1,2,5)              110.1114         -DE/DX =    0.0                 !
 ! A4    A(3,2,4)              108.8235         -DE/DX =    0.0                 !
 ! A5    A(3,2,5)              108.8235         -DE/DX =    0.0                 !
 ! A6    A(4,2,5)              108.8235         -DE/DX =    0.0                 !
 ! A7    A(2,3,6)               90.0471         -DE/DX =    0.0                 !
 ! A8    A(2,4,6)               90.0471         -DE/DX =    0.0                 !
 ! A9    A(2,5,6)               90.0471         -DE/DX =    0.0                 !
 ! A10   A(3,6,4)               34.5685         -DE/DX =    0.0                 !
 ! A11   A(3,6,5)               34.5685         -DE/DX =    0.0                 !
 ! A12   A(4,6,5)               34.5685         -DE/DX =    0.0                 !
 ! D1    D(1,2,3,6)           -180.0            -DE/DX =    0.0                 !
 ! D2    D(4,2,3,6)             59.2236         -DE/DX =    0.0                 !
 ! D3    D(5,2,3,6)            -59.2236         -DE/DX =    0.0                 !
 ! D4    D(1,2,4,6)            180.0            -DE/DX =    0.0                 !
 ! D5    D(3,2,4,6)            -59.2236         -DE/DX =    0.0                 !
 ! D6    D(5,2,4,6)             59.2236         -DE/DX =    0.0                 !
 ! D7    D(1,2,5,6)            180.0            -DE/DX =    0.0                 !
 ! D8    D(3,2,5,6)             59.2236         -DE/DX =    0.0                 !
 ! D9    D(4,2,5,6)            -59.2236         -DE/DX =    0.0                 !
 ! D10   D(2,3,6,4)            -31.5772         -DE/DX =    0.0                 !
 ! D11   D(2,3,6,5)             31.5772         -DE/DX =    0.0                 !
 ! D12   D(2,4,6,3)             31.5772         -DE/DX =    0.0                 !
 ! D13   D(2,4,6,5)            -31.5772         -DE/DX =    0.0                 !
 ! D14   D(2,5,6,3)            -31.5772         -DE/DX =    0.0                 !
 ! D15   D(2,5,6,4)             31.5772         -DE/DX =    0.0                 !
 --------------------------------------------------------------------------------
 Lowest energy point so far.  Saving SCF results.
 Largest change from initial coordinates is atom    3       0.032 Angstoms.
 GradGradGradGradGradGradGradGradGradGradGradGradGradGradGradGradGradGrad

 Leave Link  103 at Wed Oct  7 14:32:26 2020, MaxMem=  2684354560 cpu:               2.6 elap:               0.7
 (Enter /udrive/faculty/rpeverati/g16/g16/l202.exe)
                          Input orientation:                          
 ---------------------------------------------------------------------
 Center     Atomic      Atomic             Coordinates (Angstroms)
 Number     Number       Type             X           Y           Z
 ---------------------------------------------------------------------
      1          9           0        0.000000   -0.000000   -1.884142
      2          6           0        0.000000   -0.000000   -0.484688
      3          1           0       -0.512490    0.887659   -0.109367
      4          1           0       -0.512490   -0.887659   -0.109367
      5          1           0        1.024981   -0.000000   -0.109367
      6         17           0        0.000000   -0.000000    2.696931
 ---------------------------------------------------------------------
                    Distance matrix (angstroms):
                    1          2          3          4          5
     1  F    0.000000
     2  C    1.399454   0.000000
     3  H    2.049491   1.091537   0.000000
     4  H    2.049491   1.091537   1.775319   0.000000
     5  H    2.049491   1.091537   1.775319   1.775319   0.000000
     6  Cl   4.581073   3.181619   2.987623   2.987623   2.987623
                    6
     6  Cl   0.000000
 Stoichiometry    CH3ClF(1-)
 Framework group  C3V[C3(FCCl),3SGV(H)]
 Deg. of freedom     4
 Full point group                 C3V     NOp   6
 RotChk:  IX=0 Diff= 0.00D+00
 Largest Abelian subgroup         CS      NOp   2
 Largest concise Abelian subgroup CS      NOp   2
                         Standard orientation:                         
 ---------------------------------------------------------------------
 Center     Atomic      Atomic             Coordinates (Angstroms)
 Number     Number       Type             X           Y           Z
 ---------------------------------------------------------------------
      1          9           0        0.000000    0.000000   -2.617123
      2          6           0        0.000000    0.000000   -1.217669
      3          1           0       -0.000000    1.024981   -0.842347
      4          1           0       -0.887659   -0.512490   -0.842347
      5          1           0        0.887659   -0.512490   -0.842347
      6         17           0        0.000000    0.000000    1.963951
 ---------------------------------------------------------------------
 Rotational constants (GHZ):         159.1033351           1.7640735           1.7640735
 Leave Link  202 at Wed Oct  7 14:32:26 2020, MaxMem=  2684354560 cpu:               0.8 elap:               0.4
 (Enter /udrive/faculty/rpeverati/g16/g16/l601.exe)
 Copying SCF densities to generalized density rwf, IOpCl= 0 IROHF=0.

 **********************************************************************

            Population analysis using the SCF density.

 **********************************************************************

 Orbital symmetries:
       Occupied  (A1) (A1) (A1) (A1) (A1) (E) (E) (A1) (A1) (A1)
                 (A1) (E) (E) (E) (E) (A1) (E) (E)
       Virtual   (A1) (A1) (E) (E) (A1) (E) (E) (A1) (E) (E) (A1)
                 (E) (E) (A1) (A1) (E) (E) (E) (E) (A1) (A1) (E)
                 (E) (E) (E) (E) (E) (A1) (A1) (E) (E) (E) (E)
                 (A1)
 The electronic state is 1-A1.
 Alpha  occ. eigenvalues -- -101.36460 -24.59756 -10.12280  -9.18962  -6.91930
 Alpha  occ. eigenvalues --   -6.91898  -6.91898  -1.05257  -0.55104  -0.48137
 Alpha  occ. eigenvalues --   -0.33437  -0.32620  -0.32620  -0.19181  -0.19181
 Alpha  occ. eigenvalues --   -0.02300  -0.02120  -0.02120
 Alpha virt. eigenvalues --    0.28100   0.31982   0.34672   0.34672   0.63719
 Alpha virt. eigenvalues --    0.71290   0.71290   0.71597   0.75338   0.75338
 Alpha virt. eigenvalues --    0.84102   1.04239   1.04239   1.13144   1.15494
 Alpha virt. eigenvalues --    1.21310   1.21310   1.21761   1.21761   1.30460
 Alpha virt. eigenvalues --    1.41313   1.43057   1.43057   1.68599   1.68599
 Alpha virt. eigenvalues --    1.99128   1.99128   2.10020   2.26347   2.35279
 Alpha virt. eigenvalues --    2.35279   2.59261   2.59261   3.17739
          Condensed to atoms (all electrons):
               1          2          3          4          5          6
     1  F    9.282082   0.201231  -0.028867  -0.028867  -0.028867   0.000349
     2  C    0.201231   4.853044   0.371967   0.371967   0.371967  -0.008910
     3  H   -0.028867   0.371967   0.551355  -0.036345  -0.036345   0.006633
     4  H   -0.028867   0.371967  -0.036345   0.551355  -0.036345   0.006633
     5  H   -0.028867   0.371967  -0.036345  -0.036345   0.551355   0.006633
     6  Cl   0.000349  -0.008910   0.006633   0.006633   0.006633  17.945143
 Mulliken charges:
               1
     1  F   -0.397061
     2  C   -0.161266
     3  H    0.171603
     4  H    0.171603
     5  H    0.171603
     6  Cl  -0.956482
 Sum of Mulliken charges =  -1.00000
 Mulliken charges with hydrogens summed into heavy atoms:
               1
     1  F   -0.397061
     2  C    0.353543
     6  Cl  -0.956482
 Electronic spatial extent (au):  <R**2>=            585.5817
 Charge=             -1.0000 electrons
 Dipole moment (field-independent basis, Debye):
    X=              0.0000    Y=              0.0000    Z=             -6.4450  Tot=              6.4450
 Quadrupole moment (field-independent basis, Debye-Ang):
   XX=            -27.2934   YY=            -27.2934   ZZ=            -53.9087
   XY=             -0.0000   XZ=              0.0000   YZ=             -0.0000
 Traceless Quadrupole moment (field-independent basis, Debye-Ang):
   XX=              8.8718   YY=              8.8718   ZZ=            -17.7435
   XY=             -0.0000   XZ=              0.0000   YZ=             -0.0000
 Octapole moment (field-independent basis, Debye-Ang**2):
  XXX=              0.0000  YYY=              0.5525  ZZZ=            -38.7833  XYY=              0.0000
  XXY=             -0.5525  XXZ=             -9.9947  XZZ=             -0.0000  YZZ=              0.0000
  YYZ=             -9.9947  XYZ=              0.0000
 Hexadecapole moment (field-independent basis, Debye-Ang**3):
 XXXX=            -35.3404 YYYY=            -35.3404 ZZZZ=           -768.7699 XXXY=              0.0000
 XXXZ=             -0.0000 YYYX=              0.0000 YYYZ=             -0.3944 ZZZX=             -0.0000
 ZZZY=             -0.0000 XXYY=            -11.7801 XXZZ=           -112.7490 YYZZ=           -112.7490
 XXYZ=              0.3944 YYXZ=             -0.0000 ZZXY=              0.0000
 N-N= 8.068086931146D+01 E-N=-1.595763913888D+03  KE= 5.983977338193D+02
 No NMR shielding tensors so no spin-rotation constants.
 Leave Link  601 at Wed Oct  7 14:32:28 2020, MaxMem=  2684354560 cpu:               9.6 elap:               1.1
 (Enter /udrive/faculty/rpeverati/g16/g16/l9999.exe)

 Test job not archived.
 1\1\GINC-NODE53\FOpt\RPBE1PBE\6-31G(d)\C1H3Cl1F1(1-)\RPEVERATI\07-Oct-
 2020\0\\#P Opt(MaxCyc=100) PBE1PBE/6-31G* 5D 7F Integral=UltraFineGrid
  SCF=(NoSymm,XQC,MaxCyc=120) EmpiricalDispersion=GD3BJ IOp(1/33=1)\\TS
  search on BH76.\\-1,1\F,0.,0.,-1.8841423619\C,0.,0.,-0.4846884611\H,-
 0.5124904342,0.8876594704,-0.1093667323\H,-0.5124904342,-0.8876594704,
 -0.1093667323\H,1.0249808684,0.,-0.1093667323\Cl,0.,0.,2.6969310186\\V
 ersion=ES64L-G16RevA.03\State=1-A1\HF=-599.6820667\RMSD=2.512e-09\RMSF
 =4.275e-05\Dipole=0.,0.,-2.535667\Quadrupole=6.5959369,6.5959369,-13.1
 918738,0.,0.,0.\PG=C03V [C3(F1C1Cl1),3SGV(H1)]\\@


 Age does not diminish the extreme disappointment of
 having a scoop of ice cream fall from the cone.
 -- Jim Fiebig
 Job cpu time:       0 days  0 hours  6 minutes 15.2 seconds.
 Elapsed time:       0 days  0 hours  1 minutes  1.1 seconds.
 File lengths (MBytes):  RWF=      5 Int=      0 D2E=      0 Chk=      1 Scr=      1
 Normal termination of Gaussian 16 at Wed Oct  7 14:32:29 2020.
