 Entering Gaussian System, Link 0=g16
 Input=MN_45_hclhts_BH76_PBE0DBJ_631Gs.in
 Output=MN_45_hclhts_BH76_PBE0DBJ_631Gs.log
 Initial command:
 /udrive/faculty/rpeverati/g16/g16/l1.exe "/udrive/scratch-directories/gaussian09/rpeverati/Gau-26306.inp" -scrdir="/udrive/scratch-directories/gaussian09/rpeverati/"
 Entering Link 1 = /udrive/faculty/rpeverati/g16/g16/l1.exe PID=     26321.
  
 Copyright (c) 1988,1990,1992,1993,1995,1998,2003,2009,2016,
            Gaussian, Inc.  All Rights Reserved.
  
 This is part of the Gaussian(R) 16 program.  It is based on
 the Gaussian(R) 09 system (copyright 2009, Gaussian, Inc.),
 the Gaussian(R) 03 system (copyright 2003, Gaussian, Inc.),
 the Gaussian(R) 98 system (copyright 1998, Gaussian, Inc.),
 the Gaussian(R) 94 system (copyright 1995, Gaussian, Inc.),
 the Gaussian 92(TM) system (copyright 1992, Gaussian, Inc.),
 the Gaussian 90(TM) system (copyright 1990, Gaussian, Inc.),
 the Gaussian 88(TM) system (copyright 1988, Gaussian, Inc.),
 the Gaussian 86(TM) system (copyright 1986, Carnegie Mellon
 University), and the Gaussian 82(TM) system (copyright 1983,
 Carnegie Mellon University). Gaussian is a federally registered
 trademark of Gaussian, Inc.
  
 This software contains proprietary and confidential information,
 including trade secrets, belonging to Gaussian, Inc.
  
 This software is provided under written license and may be
 used, copied, transmitted, or stored only in accord with that
 written license.
  
 The following legend is applicable only to US Government
 contracts under FAR:
  
                    RESTRICTED RIGHTS LEGEND
  
 Use, reproduction and disclosure by the US Government is
 subject to restrictions as set forth in subparagraphs (a)
 and (c) of the Commercial Computer Software - Restricted
 Rights clause in FAR 52.227-19.
  
 Gaussian, Inc.
 340 Quinnipiac St., Bldg. 40, Wallingford CT 06492
  
  
 ---------------------------------------------------------------
 Warning -- This program may not be used in any manner that
 competes with the business of Gaussian, Inc. or will provide
 assistance to any competitor of Gaussian, Inc.  The licensee
 of this program is prohibited from giving any competitor of
 Gaussian, Inc. access to this program.  By using this program,
 the user acknowledges that Gaussian, Inc. is engaged in the
 business of creating and licensing software in the field of
 computational chemistry and represents and warrants to the
 licensee that it is not a competitor of Gaussian, Inc. and that
 it will not use this program in any manner prohibited above.
 ---------------------------------------------------------------
  

 Cite this work as:
 Gaussian 16, Revision A.03,
 M. J. Frisch, G. W. Trucks, H. B. Schlegel, G. E. Scuseria, 
 M. A. Robb, J. R. Cheeseman, G. Scalmani, V. Barone, 
 G. A. Petersson, H. Nakatsuji, X. Li, M. Caricato, A. V. Marenich, 
 J. Bloino, B. G. Janesko, R. Gomperts, B. Mennucci, H. P. Hratchian, 
 J. V. Ortiz, A. F. Izmaylov, J. L. Sonnenberg, D. Williams-Young, 
 F. Ding, F. Lipparini, F. Egidi, J. Goings, B. Peng, A. Petrone, 
 T. Henderson, D. Ranasinghe, V. G. Zakrzewski, J. Gao, N. Rega, 
 G. Zheng, W. Liang, M. Hada, M. Ehara, K. Toyota, R. Fukuda, 
 J. Hasegawa, M. Ishida, T. Nakajima, Y. Honda, O. Kitao, H. Nakai, 
 T. Vreven, K. Throssell, J. A. Montgomery, Jr., J. E. Peralta, 
 F. Ogliaro, M. J. Bearpark, J. J. Heyd, E. N. Brothers, K. N. Kudin, 
 V. N. Staroverov, T. A. Keith, R. Kobayashi, J. Normand, 
 K. Raghavachari, A. P. Rendell, J. C. Burant, S. S. Iyengar, 
 J. Tomasi, M. Cossi, J. M. Millam, M. Klene, C. Adamo, R. Cammi, 
 J. W. Ochterski, R. L. Martin, K. Morokuma, O. Farkas, 
 J. B. Foresman, and D. J. Fox, Gaussian, Inc., Wallingford CT, 2016.
 
 ******************************************
 Gaussian 16:  ES64L-G16RevA.03 25-Dec-2016
                 7-Oct-2020 
 ******************************************
 %NoSave
 %nproc=12
 Will use up to   12 processors via shared memory.
 %mem=20GB
 %chk=MN_45_hclhts_BH76_PBE0DBJ_631Gs
 ----------------------------------------------------------------------
 #P Opt(TS,MaxCyc=50,NoEigenTest,MaxStep=10,AddRedundant) PBE1PBE/6-31G
 * 5D 7F Integral=UltraFineGrid SCF=(NoSymm,XQC,MaxCyc=120) EmpiricalDi
 spersion=GD3BJ IOp(1/33=1)
 ----------------------------------------------------------------------
 1/5=1,6=50,8=10,11=1,18=120,26=4,33=1,38=1/1,3;
 2/9=110,12=2,17=6,18=5,40=1/2;
 3/5=1,6=6,7=1,8=11,11=2,25=1,30=1,71=1,74=-13,75=-5,124=41/1,2,3;
 4/9=2/1;
 5/5=2,7=120,8=3,13=1,38=5/2,8;
 6/7=2,8=2,9=2,10=2,28=1/1;
 7//1,2,3,16;
 1/5=1,6=50,8=10,11=1,18=20,26=4,33=1/3(2);
 2/9=110/2;
 99//99;
 2/9=110/2;
 3/5=1,6=6,7=1,8=11,11=2,25=1,30=1,71=1,74=-13,75=-5,124=41/1,2,3;
 4/5=5,9=2,16=3,69=1/1;
 5/5=2,7=120,8=3,13=1,38=5/2,8;
 7//1,2,3,16;
 1/5=1,6=50,8=10,11=1,18=20,26=4,33=1/3(-5);
 2/9=110/2;
 6/7=2,8=2,9=2,10=2,19=2,28=1/1;
 99/9=1/99;
 Leave Link    1 at Wed Oct  7 14:32:08 2020, MaxMem=  2684354560 cpu:               9.3 elap:               1.1
 (Enter /udrive/faculty/rpeverati/g16/g16/l101.exe)
 ONIOM data not found on unit 2.
 ------------------
 TS search on BH76.
 ------------------
 TstMul:  ICh=     0
 TstMul:  Mul=     2
 TstMul:  ICh=     0
 TstMul:  Mul=     2
 Symbolic Z-matrix:
 Charge =  0 Multiplicity = 2
 H                     0.        0.        1.4858 
 Cl                    0.        0.        0. 
 H                     0.        0.       -1.4858 
 
 RdStrC is calling ZToCFu for IStruc=1 NZ=     3.
 PrtBox:  NBox=     1 Levels=  1 BoxLen=    8.00 SMaxX=        5.62
          Shift=            0.000000            0.000000            2.807760
 Box      1 Number                   0 centers from      1 to      3:
 After GenITR:
 ITRead=  0  0  0
 MicOpt= -1 -1 -1
 The following ModRedundant input section has been read:
 
 ITRead=  0  0  0
 MicOpt= -1 -1 -1
 NAtoms=      3 NQM=        3 NQMF=       0 NMMI=      0 NMMIF=      0
                NMic=       0 NMicF=      0.
                    Isotopes and Nuclear Properties:
 (Nuclear quadrupole moments (NQMom) in fm**2, nuclear magnetic moments (NMagM)
  in nuclear magnetons)

  Atom         1           2           3
 IAtWgt=           1          35           1
 AtmWgt=   1.0078250  34.9688527   1.0078250
 NucSpn=           1           3           1
 AtZEff=   0.0000000   0.0000000   0.0000000
 NQMom=    0.0000000  -8.1650000   0.0000000
 NMagM=    2.7928460   0.8218740   2.7928460
 AtZNuc=   1.0000000  17.0000000   1.0000000
 No MM parameters found.
 Leave Link  101 at Wed Oct  7 14:32:09 2020, MaxMem=  2684354560 cpu:               7.8 elap:               0.7
 (Enter /udrive/faculty/rpeverati/g16/g16/l103.exe)

 GradGradGradGradGradGradGradGradGradGradGradGradGradGradGradGradGradGrad
 Berny optimization.
 Optmz: redundant internal coordinate code flag= 1
 Initialization pass.
                           ----------------------------
                           !    Initial Parameters    !
                           ! (Angstroms and Degrees)  !
 --------------------------                            --------------------------
 ! Name  Definition              Value          Derivative Info.                !
 --------------------------------------------------------------------------------
 ! R1    R(1,2)                  1.4858         estimate D2E/DX2                !
 ! R2    R(2,3)                  1.4858         estimate D2E/DX2                !
 ! A1    L(1,2,3,-1,-1)        180.0            estimate D2E/DX2                !
 ! A2    L(1,2,3,-2,-2)        180.0            estimate D2E/DX2                !
 --------------------------------------------------------------------------------
 Maximum allowed force set to 1.00D+20.
 Trust Radius=1.00D-01 FncErr=1.00D-07 GrdErr=1.00D-06 EigMax=2.50D+02 EigMin=1.00D-04
 Number of steps in this run=     50 maximum allowed number of steps=    100.
 Search for a saddle point of order  1.
 GradGradGradGradGradGradGradGradGradGradGradGradGradGradGradGradGradGrad

 Leave Link  103 at Wed Oct  7 14:32:09 2020, MaxMem=  2684354560 cpu:               0.6 elap:               0.4
 (Enter /udrive/faculty/rpeverati/g16/g16/l202.exe)
                          Input orientation:                          
 ---------------------------------------------------------------------
 Center     Atomic      Atomic             Coordinates (Angstroms)
 Number     Number       Type             X           Y           Z
 ---------------------------------------------------------------------
      1          1           0        0.000000    0.000000    1.485803
      2         17           0        0.000000    0.000000    0.000000
      3          1           0        0.000000    0.000000   -1.485803
 ---------------------------------------------------------------------
                    Distance matrix (angstroms):
                    1          2          3
     1  H    0.000000
     2  Cl   1.485803   0.000000
     3  H    2.971605   1.485803   0.000000
 Stoichiometry    ClH2(2)
 Framework group  D*H[O(Cl),C*(H.H)]
 Deg. of freedom     1
 Full point group                 D*H     NOp   8
 Largest Abelian subgroup         D2H     NOp   8
 Largest concise Abelian subgroup C2      NOp   2
                         Standard orientation:                         
 ---------------------------------------------------------------------
 Center     Atomic      Atomic             Coordinates (Angstroms)
 Number     Number       Type             X           Y           Z
 ---------------------------------------------------------------------
      1          1           0        0.000000    0.000000    1.485803
      2         17           0        0.000000    0.000000    0.000000
      3          1           0        0.000000    0.000000   -1.485803
 ---------------------------------------------------------------------
 Rotational constants (GHZ):           0.0000000         113.5742375         113.5742375
 Leave Link  202 at Wed Oct  7 14:32:10 2020, MaxMem=  2684354560 cpu:               1.4 elap:               0.4
 (Enter /udrive/faculty/rpeverati/g16/g16/l301.exe)
 Standard basis: 6-31G(d) (5D, 7F)
 Ernie: Thresh=  0.10000D-02 Tol=  0.10000D-05 Strict=F.
 There are     9 symmetry adapted cartesian basis functions of AG  symmetry.
 There are     1 symmetry adapted cartesian basis functions of B1G symmetry.
 There are     1 symmetry adapted cartesian basis functions of B2G symmetry.
 There are     1 symmetry adapted cartesian basis functions of B3G symmetry.
 There are     0 symmetry adapted cartesian basis functions of AU  symmetry.
 There are     5 symmetry adapted cartesian basis functions of B1U symmetry.
 There are     3 symmetry adapted cartesian basis functions of B2U symmetry.
 There are     3 symmetry adapted cartesian basis functions of B3U symmetry.
 There are     8 symmetry adapted basis functions of AG  symmetry.
 There are     1 symmetry adapted basis functions of B1G symmetry.
 There are     1 symmetry adapted basis functions of B2G symmetry.
 There are     1 symmetry adapted basis functions of B3G symmetry.
 There are     0 symmetry adapted basis functions of AU  symmetry.
 There are     5 symmetry adapted basis functions of B1U symmetry.
 There are     3 symmetry adapted basis functions of B2U symmetry.
 There are     3 symmetry adapted basis functions of B3U symmetry.
    22 basis functions,    60 primitive gaussians,    23 cartesian basis functions
    10 alpha electrons        9 beta electrons
       nuclear repulsion energy        12.2873749921 Hartrees.
 IExCor= 1009 DFT=T Ex+Corr=PBE1PBE ExCW=0 ScaHFX=  0.250000
 ScaDFX=  0.750000  0.750000  1.000000  1.000000 ScalE2=  1.000000  1.000000
 IRadAn=      5 IRanWt=     -1 IRanGd=            0 ICorTp=0 IEmpDi=141
 NAtoms=    3 NActive=    3 NUniq=    2 SFac= 2.25D+00 NAtFMM=   60 NAOKFM=F Big=F
 Integral buffers will be    131072 words long.
 Raffenetti 2 integral format.
 Two-electron integral symmetry is turned on.
 R6Disp:  Grimme-D3(BJ) Dispersion energy=       -0.0005725549 Hartrees.
 Nuclear repulsion after empirical dispersion term =       12.2868024371 Hartrees.
 Leave Link  301 at Wed Oct  7 14:32:10 2020, MaxMem=  2684354560 cpu:               1.6 elap:               0.4
 (Enter /udrive/faculty/rpeverati/g16/g16/l302.exe)
 NPDir=0 NMtPBC=     1 NCelOv=     1 NCel=       1 NClECP=     1 NCelD=      1
         NCelK=      1 NCelE2=     1 NClLst=     1 CellRange=     0.0.
 One-electron integrals computed using PRISM.
 One-electron integral symmetry used in STVInt
 NBasis=    22 RedAO= T EigKep=  5.52D-02  NBF=     8     1     1     1     0     5     3     3
 NBsUse=    22 1.00D-06 EigRej= -1.00D+00 NBFU=     8     1     1     1     0     5     3     3
 Precomputing XC quadrature grid using
 IXCGrd= 4 IRadAn=           5 IRanWt=          -1 IRanGd=           0 AccXCQ= 0.00D+00.
 Generated NRdTot=       0 NPtTot=           0 NUsed=           0 NTot=          32
 NSgBfM=    23    23    23    23    23 MxSgAt=     3 MxSgA2=     3.
 Leave Link  302 at Wed Oct  7 14:32:11 2020, MaxMem=  2684354560 cpu:               3.3 elap:               0.6
 (Enter /udrive/faculty/rpeverati/g16/g16/l303.exe)
 DipDrv:  MaxL=1.
 Leave Link  303 at Wed Oct  7 14:32:12 2020, MaxMem=  2684354560 cpu:               1.3 elap:               0.5
 (Enter /udrive/faculty/rpeverati/g16/g16/l401.exe)
 SCF N**3 symmetry information disabled.
 ExpMin= 1.43D-01 ExpMax= 2.52D+04 ExpMxC= 3.78D+03 IAcc=3 IRadAn=         5 AccDes= 0.00D+00
 Harris functional with IExCor= 1009 and IRadAn=       5 diagonalized for initial guess.
 HarFok:  IExCor= 1009 AccDes= 0.00D+00 IRadAn=         5 IDoV= 1 UseB2=F ITyADJ=14
 ICtDFT=  3500011 ScaDFX=  1.000000  1.000000  1.000000  1.000000
 FoFCou: FMM=F IPFlag=           0 FMFlag=      100000 FMFlg1=           0
         NFxFlg=           0 DoJE=T BraDBF=F KetDBF=T FulRan=T
         wScrn=  0.000000 ICntrl=       500 IOpCl=  0 I1Cent=   200000004 NGrid=           0
         NMat0=    1 NMatS0=      1 NMatT0=    0 NMatD0=    1 NMtDS0=    0 NMtDT0=    0
 Petite list used in FoFCou.
 Harris En= -460.967870697348    
 JPrj=0 DoOrth=F DoCkMO=F.
 Initial guess orbital symmetries:
 Alpha Orbitals:
       Occupied  (SGG) (SGG) (SGU) (PIU) (PIU) (SGG) (SGU) (PIU)
                 (PIU) (SGG)
       Virtual   (SGU) (SGG) (PIU) (PIU) (SGU) (SGG) (SGU) (PIG)
                 (PIG) (DLTG) (DLTG) (SGG)
 Beta  Orbitals:
       Occupied  (SGG) (SGG) (SGU) (PIU) (PIU) (SGG) (SGU) (PIU)
                 (PIU)
       Virtual   (SGG) (SGU) (SGG) (PIU) (PIU) (SGU) (SGG) (SGU)
                 (PIG) (PIG) (DLTG) (DLTG) (SGG)
 The electronic state of the initial guess is 2-SGG.
 Initial guess <Sx>= 0.0000 <Sy>= 0.0000 <Sz>= 0.5000 <S**2>= 0.7500 S= 0.5000
 Leave Link  401 at Wed Oct  7 14:32:13 2020, MaxMem=  2684354560 cpu:               5.1 elap:               0.9
 (Enter /udrive/faculty/rpeverati/g16/g16/l502.exe)
 Keep R1 and R2 ints in memory in symmetry-blocked form, NReq=10378099.
 FoFCou: FMM=F IPFlag=           0 FMFlag=           0 FMFlg1=           0
         NFxFlg=           0 DoJE=F BraDBF=F KetDBF=F FulRan=T
         wScrn=  0.000000 ICntrl=       600 IOpCl=  0 I1Cent=           0 NGrid=           0
         NMat0=    1 NMatS0=    253 NMatT0=    0 NMatD0=    1 NMtDS0=    0 NMtDT0=    0
 Petite list used in FoFCou.
 UHF open shell SCF:
 Using DIIS extrapolation, IDIIS=  1040.
 NGot=  2684354560 LenX=  2684339476 LenY=  2684338506
 Requested convergence on RMS density matrix=1.00D-08 within 120 cycles.
 Requested convergence on MAX density matrix=1.00D-06.
 Requested convergence on             energy=1.00D-06.
 No special actions if energy rises.
 Integral accuracy reduced to 1.0D-05 until final iterations.

 Cycle   1  Pass 0  IDiag  1:
 E= -461.090101009685    
 DIIS: error= 1.75D-02 at cycle   1 NSaved=   1.
 NSaved= 1 IEnMin= 1 EnMin= -461.090101009685     IErMin= 1 ErrMin= 1.75D-02
 ErrMax= 1.75D-02  0.00D+00 EMaxC= 1.00D-01 BMatC= 2.68D-02 BMatP= 2.68D-02
 IDIUse=3 WtCom= 8.25D-01 WtEn= 1.75D-01
 Coeff-Com:  0.100D+01
 Coeff-En:   0.100D+01
 Coeff:      0.100D+01
 Gap=     0.281 Goal=   None    Shift=    0.000
 Gap=     0.251 Goal=   None    Shift=    0.000
 GapD=    0.251 DampG=1.000 DampE=0.500 DampFc=0.5000 IDamp=-1.
 Damping current iteration by 5.00D-01
 RMSDP=6.47D-03 MaxDP=5.75D-02              OVMax= 6.04D-02

 Cycle   2  Pass 0  IDiag  1:
 E= -461.093246757550     Delta-E=       -0.003145747865 Rises=F Damp=T
 DIIS: error= 1.00D-02 at cycle   2 NSaved=   2.
 NSaved= 2 IEnMin= 2 EnMin= -461.093246757550     IErMin= 2 ErrMin= 1.00D-02
 ErrMax= 1.00D-02  0.00D+00 EMaxC= 1.00D-01 BMatC= 5.42D-03 BMatP= 2.68D-02
 IDIUse=3 WtCom= 9.00D-01 WtEn= 1.00D-01
 Coeff-Com: -0.554D+00 0.155D+01
 Coeff-En:   0.000D+00 0.100D+01
 Coeff:     -0.499D+00 0.150D+01
 Gap=     0.290 Goal=   None    Shift=    0.000
 Gap=     0.243 Goal=   None    Shift=    0.000
 RMSDP=2.81D-03 MaxDP=3.12D-02 DE=-3.15D-03 OVMax= 2.64D-02

 Cycle   3  Pass 0  IDiag  1:
 E= -461.096975422432     Delta-E=       -0.003728664882 Rises=F Damp=F
 DIIS: error= 4.93D-03 at cycle   3 NSaved=   3.
 NSaved= 3 IEnMin= 3 EnMin= -461.096975422432     IErMin= 3 ErrMin= 4.93D-03
 ErrMax= 4.93D-03  0.00D+00 EMaxC= 1.00D-01 BMatC= 6.61D-04 BMatP= 5.42D-03
 IDIUse=3 WtCom= 9.51D-01 WtEn= 4.93D-02
 Coeff-Com: -0.253D+00 0.417D+00 0.836D+00
 Coeff-En:   0.000D+00 0.000D+00 0.100D+01
 Coeff:     -0.240D+00 0.396D+00 0.844D+00
 Gap=     0.291 Goal=   None    Shift=    0.000
 Gap=     0.254 Goal=   None    Shift=    0.000
 RMSDP=1.06D-03 MaxDP=1.35D-02 DE=-3.73D-03 OVMax= 1.24D-02

 Cycle   4  Pass 0  IDiag  1:
 E= -461.097249081909     Delta-E=       -0.000273659477 Rises=F Damp=F
 DIIS: error= 1.18D-03 at cycle   4 NSaved=   4.
 NSaved= 4 IEnMin= 4 EnMin= -461.097249081909     IErMin= 4 ErrMin= 1.18D-03
 ErrMax= 1.18D-03  0.00D+00 EMaxC= 1.00D-01 BMatC= 3.38D-05 BMatP= 6.61D-04
 IDIUse=3 WtCom= 9.88D-01 WtEn= 1.18D-02
 Coeff-Com:  0.125D+00-0.269D+00-0.104D+00 0.125D+01
 Coeff-En:   0.000D+00 0.000D+00 0.000D+00 0.100D+01
 Coeff:      0.123D+00-0.266D+00-0.103D+00 0.125D+01
 Gap=     0.293 Goal=   None    Shift=    0.000
 Gap=     0.255 Goal=   None    Shift=    0.000
 RMSDP=3.16D-04 MaxDP=4.24D-03 DE=-2.74D-04 OVMax= 4.25D-03

 Cycle   5  Pass 0  IDiag  1:
 E= -461.097270079421     Delta-E=       -0.000020997512 Rises=F Damp=F
 DIIS: error= 3.28D-05 at cycle   5 NSaved=   5.
 NSaved= 5 IEnMin= 5 EnMin= -461.097270079421     IErMin= 5 ErrMin= 3.28D-05
 ErrMax= 3.28D-05  0.00D+00 EMaxC= 1.00D-01 BMatC= 7.22D-08 BMatP= 3.38D-05
 IDIUse=1 WtCom= 1.00D+00 WtEn= 0.00D+00
 Coeff-Com: -0.236D-01 0.518D-01 0.126D-01-0.237D+00 0.120D+01
 Coeff:     -0.236D-01 0.518D-01 0.126D-01-0.237D+00 0.120D+01
 Gap=     0.293 Goal=   None    Shift=    0.000
 Gap=     0.255 Goal=   None    Shift=    0.000
 RMSDP=1.79D-05 MaxDP=1.97D-04 DE=-2.10D-05 OVMax= 9.30D-05

 Cycle   6  Pass 0  IDiag  1:
 E= -461.097270124979     Delta-E=       -0.000000045558 Rises=F Damp=F
 DIIS: error= 4.05D-06 at cycle   6 NSaved=   6.
 NSaved= 6 IEnMin= 6 EnMin= -461.097270124979     IErMin= 6 ErrMin= 4.05D-06
 ErrMax= 4.05D-06  0.00D+00 EMaxC= 1.00D-01 BMatC= 9.19D-10 BMatP= 7.22D-08
 IDIUse=1 WtCom= 1.00D+00 WtEn= 0.00D+00
 Coeff-Com:  0.710D-03-0.165D-02 0.343D-03 0.586D-02-0.138D+00 0.113D+01
 Coeff:      0.710D-03-0.165D-02 0.343D-03 0.586D-02-0.138D+00 0.113D+01
 Gap=     0.293 Goal=   None    Shift=    0.000
 Gap=     0.255 Goal=   None    Shift=    0.000
 RMSDP=2.59D-06 MaxDP=2.35D-05 DE=-4.56D-08 OVMax= 1.25D-05

 Initial convergence to 1.0D-05 achieved.  Increase integral accuracy.
 Cycle   7  Pass 1  IDiag  1:
 E= -461.097266844983     Delta-E=        0.000003279996 Rises=F Damp=F
 DIIS: error= 8.10D-07 at cycle   1 NSaved=   1.
 NSaved= 1 IEnMin= 1 EnMin= -461.097266844983     IErMin= 1 ErrMin= 8.10D-07
 ErrMax= 8.10D-07  0.00D+00 EMaxC= 1.00D-01 BMatC= 6.79D-11 BMatP= 6.79D-11
 IDIUse=1 WtCom= 1.00D+00 WtEn= 0.00D+00
 Coeff-Com:  0.100D+01
 Coeff:      0.100D+01
 Gap=     0.293 Goal=   None    Shift=    0.000
 Gap=     0.255 Goal=   None    Shift=    0.000
 RMSDP=2.59D-06 MaxDP=2.35D-05 DE= 3.28D-06 OVMax= 1.36D-06

 Cycle   8  Pass 1  IDiag  1:
 E= -461.097266845003     Delta-E=       -0.000000000020 Rises=F Damp=F
 DIIS: error= 2.89D-07 at cycle   2 NSaved=   2.
 NSaved= 2 IEnMin= 2 EnMin= -461.097266845003     IErMin= 2 ErrMin= 2.89D-07
 ErrMax= 2.89D-07  0.00D+00 EMaxC= 1.00D-01 BMatC= 4.60D-12 BMatP= 6.79D-11
 IDIUse=1 WtCom= 1.00D+00 WtEn= 0.00D+00
 Coeff-Com:  0.809D-01 0.919D+00
 Coeff:      0.809D-01 0.919D+00
 Gap=     0.293 Goal=   None    Shift=    0.000
 Gap=     0.255 Goal=   None    Shift=    0.000
 RMSDP=1.17D-07 MaxDP=1.32D-06 DE=-2.01D-11 OVMax= 7.85D-07

 Cycle   9  Pass 1  IDiag  1:
 E= -461.097266845004     Delta-E=       -0.000000000001 Rises=F Damp=F
 DIIS: error= 1.79D-07 at cycle   3 NSaved=   3.
 NSaved= 3 IEnMin= 3 EnMin= -461.097266845004     IErMin= 3 ErrMin= 1.79D-07
 ErrMax= 1.79D-07  0.00D+00 EMaxC= 1.00D-01 BMatC= 1.86D-12 BMatP= 4.60D-12
 IDIUse=1 WtCom= 1.00D+00 WtEn= 0.00D+00
 Coeff-Com: -0.486D-01 0.355D+00 0.693D+00
 Coeff:     -0.486D-01 0.355D+00 0.693D+00
 Gap=     0.293 Goal=   None    Shift=    0.000
 Gap=     0.255 Goal=   None    Shift=    0.000
 RMSDP=5.28D-08 MaxDP=5.50D-07 DE=-1.02D-12 OVMax= 3.73D-07

 Cycle  10  Pass 1  IDiag  1:
 E= -461.097266845005     Delta-E=       -0.000000000001 Rises=F Damp=F
 DIIS: error= 3.11D-08 at cycle   4 NSaved=   4.
 NSaved= 4 IEnMin= 4 EnMin= -461.097266845005     IErMin= 4 ErrMin= 3.11D-08
 ErrMax= 3.11D-08  0.00D+00 EMaxC= 1.00D-01 BMatC= 3.18D-14 BMatP= 1.86D-12
 IDIUse=1 WtCom= 1.00D+00 WtEn= 0.00D+00
 Coeff-Com:  0.491D-02-0.128D+00-0.923D-01 0.122D+01
 Coeff:      0.491D-02-0.128D+00-0.923D-01 0.122D+01
 Gap=     0.293 Goal=   None    Shift=    0.000
 Gap=     0.255 Goal=   None    Shift=    0.000
 RMSDP=1.09D-08 MaxDP=1.16D-07 DE=-8.53D-13 OVMax= 9.38D-08

 Cycle  11  Pass 1  IDiag  1:
 E= -461.097266845005     Delta-E=        0.000000000000 Rises=F Damp=F
 DIIS: error= 3.37D-09 at cycle   5 NSaved=   5.
 NSaved= 5 IEnMin= 4 EnMin= -461.097266845005     IErMin= 5 ErrMin= 3.37D-09
 ErrMax= 3.37D-09  0.00D+00 EMaxC= 1.00D-01 BMatC= 3.19D-16 BMatP= 3.18D-14
 IDIUse=1 WtCom= 1.00D+00 WtEn= 0.00D+00
 Coeff-Com:  0.536D-04 0.122D-01-0.346D-02-0.168D+00 0.116D+01
 Coeff:      0.536D-04 0.122D-01-0.346D-02-0.168D+00 0.116D+01
 Gap=     0.293 Goal=   None    Shift=    0.000
 Gap=     0.255 Goal=   None    Shift=    0.000
 RMSDP=1.15D-09 MaxDP=1.35D-08 DE= 1.71D-13 OVMax= 1.35D-08

 SCF Done:  E(UPBE1PBE) =  -461.097266845     A.U. after   11 cycles
            NFock= 11  Conv=0.11D-08     -V/T= 2.0012
 <Sx>= 0.0000 <Sy>= 0.0000 <Sz>= 0.5000 <S**2>= 0.7674 S= 0.5086
 <L.S>= 0.000000000000E+00
 KE= 4.605356521765D+02 PE=-1.121226808788D+03 EE= 1.873070873291D+02
 Annihilation of the first spin contaminant:
 S**2 before annihilation     0.7674,   after     0.7500
 Leave Link  502 at Wed Oct  7 14:32:14 2020, MaxMem=  2684354560 cpu:               9.7 elap:               1.2
 (Enter /udrive/faculty/rpeverati/g16/g16/l508.exe)
 QCSCF skips out because SCF is already converged.
 Leave Link  508 at Wed Oct  7 14:32:15 2020, MaxMem=  2684354560 cpu:               0.3 elap:               0.4
 (Enter /udrive/faculty/rpeverati/g16/g16/l601.exe)
 Copying SCF densities to generalized density rwf, IOpCl= 1 IROHF=0.

 **********************************************************************

            Population analysis using the SCF density.

 **********************************************************************

 Orbital symmetries:
 Alpha Orbitals:
       Occupied  (SGG) (SGG) (SGU) (PIU) (PIU) (SGG) (SGU) (PIU)
                 (PIU) (SGG)
       Virtual   (SGU) (SGG) (PIU) (PIU) (SGU) (SGG) (SGU) (PIG)
                 (PIG) (DLTG) (DLTG) (SGG)
 Beta  Orbitals:
       Occupied  (SGG) (SGG) (SGU) (PIU) (PIU) (SGG) (SGU) (PIU)
                 (PIU)
       Virtual   (SGG) (SGU) (SGG) (PIU) (PIU) (SGU) (SGG) (SGU)
                 (PIG) (PIG) (DLTG) (DLTG) (SGG)
 The electronic state is 2-SGG.
 Alpha  occ. eigenvalues -- -101.72346  -9.55348  -7.28874  -7.27808  -7.27808
 Alpha  occ. eigenvalues --   -0.87519  -0.55648  -0.35647  -0.35647  -0.26177
 Alpha virt. eigenvalues --    0.03121   0.40183   0.44276   0.44276   0.63526
 Alpha virt. eigenvalues --    0.64095   0.72722   0.83634   0.83634   0.86392
 Alpha virt. eigenvalues --    0.86392   1.11262
  Beta  occ. eigenvalues -- -101.72295  -9.55212  -7.29103  -7.27689  -7.27689
  Beta  occ. eigenvalues --   -0.86512  -0.51158  -0.34970  -0.34970
  Beta virt. eigenvalues --   -0.09460   0.10205   0.40198   0.44823   0.44823
  Beta virt. eigenvalues --    0.64070   0.69623   0.82184   0.82909   0.82909
  Beta virt. eigenvalues --    0.87383   0.87383   1.15669
          Condensed to atoms (all electrons):
               1          2          3
     1  H    0.898442  -0.061458   0.027604
     2  Cl  -0.061458  17.393740  -0.061458
     3  H    0.027604  -0.061458   0.898442
          Atomic-Atomic Spin Densities.
               1          2          3
     1  H    0.774431  -0.239021   0.029021
     2  Cl  -0.239021   0.349179  -0.239021
     3  H    0.029021  -0.239021   0.774431
 Mulliken charges and spin densities:
               1          2
     1  H    0.135412   0.564431
     2  Cl  -0.270824  -0.128862
     3  H    0.135412   0.564431
 Sum of Mulliken charges =   0.00000   1.00000
 Mulliken charges and spin densities with hydrogens summed into heavy atoms:
               1          2
     2  Cl   0.000000   1.000000
 Electronic spatial extent (au):  <R**2>=             47.1726
 Charge=              0.0000 electrons
 Dipole moment (field-independent basis, Debye):
    X=              0.0000    Y=              0.0000    Z=              0.0000  Tot=              0.0000
 Quadrupole moment (field-independent basis, Debye-Ang):
   XX=            -15.1903   YY=            -15.1903   ZZ=            -11.8609
   XY=             -0.0000   XZ=             -0.0000   YZ=              0.0000
 Traceless Quadrupole moment (field-independent basis, Debye-Ang):
   XX=             -1.1098   YY=             -1.1098   ZZ=              2.2196
   XY=             -0.0000   XZ=             -0.0000   YZ=              0.0000
 Octapole moment (field-independent basis, Debye-Ang**2):
  XXX=             -0.0000  YYY=             -0.0000  ZZZ=              0.0000  XYY=             -0.0000
  XXY=              0.0000  XXZ=              0.0000  XZZ=             -0.0000  YZZ=              0.0000
  YYZ=              0.0000  XYZ=              0.0000
 Hexadecapole moment (field-independent basis, Debye-Ang**3):
 XXXX=            -16.8426 YYYY=            -16.8426 ZZZZ=            -38.5141 XXXY=             -0.0000
 XXXZ=              0.0000 YYYX=             -0.0000 YYYZ=              0.0000 ZZZX=              0.0000
 ZZZY=              0.0000 XXYY=             -5.6142 XXZZ=             -9.6056 YYZZ=             -9.6056
 XXYZ=              0.0000 YYXZ=              0.0000 ZZXY=             -0.0000
 N-N= 1.228680243713D+01 E-N=-1.121226808721D+03  KE= 4.605356521765D+02
                          Isotropic Fermi Contact Couplings
        Atom                 a.u.       MegaHertz       Gauss      10(-4) cm-1
     1  H(1)               0.19274     861.52028     307.41186     287.37223
     2  Cl(35)             1.36488     598.45015     213.54189     199.62148
     3  H(1)               0.19274     861.52028     307.41186     287.37223
 --------------------------------------------------------
       Center         ----  Spin Dipole Couplings  ----
                      3XX-RR        3YY-RR        3ZZ-RR
 --------------------------------------------------------
     1   Atom        0.006039      0.006039     -0.012079
     2   Atom        0.493273      0.493273     -0.986547
     3   Atom        0.006039      0.006039     -0.012079
 --------------------------------------------------------
                        XY            XZ            YZ
 --------------------------------------------------------
     1   Atom        0.000000     -0.000000      0.000000
     2   Atom        0.000000      0.000000      0.000000
     3   Atom        0.000000      0.000000      0.000000
 --------------------------------------------------------


 ---------------------------------------------------------------------------------
              Anisotropic Spin Dipole Couplings in Principal Axis System
 ---------------------------------------------------------------------------------

       Atom             a.u.   MegaHertz   Gauss  10(-4) cm-1        Axes

              Baa    -0.0121    -6.445    -2.300    -2.150  0.0000  0.0000  1.0000
     1 H(1)   Bbb     0.0060     3.222     1.150     1.075  0.0000  1.0000  0.0000
              Bcc     0.0060     3.222     1.150     1.075  1.0000  0.0000 -0.0000
 
              Baa    -0.9865   -51.634   -18.424   -17.223 -0.0000  0.0000  1.0000
     2 Cl(35) Bbb     0.4933    25.817     9.212     8.612  0.0000  1.0000  0.0000
              Bcc     0.4933    25.817     9.212     8.612  1.0000  0.0000  0.0000
 
              Baa    -0.0121    -6.445    -2.300    -2.150 -0.0000  0.0000  1.0000
     3 H(1)   Bbb     0.0060     3.222     1.150     1.075  0.0058  1.0000  0.0000
              Bcc     0.0060     3.222     1.150     1.075  1.0000 -0.0058  0.0000
 

 ---------------------------------------------------------------------------------

 No NMR shielding tensors so no spin-rotation constants.
 Leave Link  601 at Wed Oct  7 14:32:16 2020, MaxMem=  2684354560 cpu:               6.2 elap:               0.8
 (Enter /udrive/faculty/rpeverati/g16/g16/l701.exe)
 ... and contract with generalized density number  0.
 Compute integral first derivatives.
 R6Disp: Adding Grimme-D3(BJ) dispersion energy 1st derivatives to the gradient.
 Leave Link  701 at Wed Oct  7 14:32:17 2020, MaxMem=  2684354560 cpu:               3.9 elap:               0.7
 (Enter /udrive/faculty/rpeverati/g16/g16/l702.exe)
 L702 exits ... SP integral derivatives will be done elsewhere.
 Leave Link  702 at Wed Oct  7 14:32:18 2020, MaxMem=  2684354560 cpu:               1.8 elap:               0.6
 (Enter /udrive/faculty/rpeverati/g16/g16/l703.exe)
 Integral derivatives from FoFJK, PRISM(SPDF).
 Compute integral first derivatives, UseDBF=F ICtDFT=           0.
 Calling FoFJK, ICntrl=      2127 FMM=F ISym2X=1 I1Cent= 0 IOpClX= 1 NMat=1 NMatS=1 NMatT=0.
 FoFJK:  IHMeth= 1 ICntrl=    2127 DoSepK=F KAlg= 0 I1Cent=           0 FoldK=F
 IRaf=         0 NMat=       1 IRICut=       1 DoRegI=T DoRafI=F ISym2E= 1 IDoP0=0 IntGTp=1.
 FoFCou: FMM=F IPFlag=           0 FMFlag=      100000 FMFlg1=         800
         NFxFlg=           0 DoJE=F BraDBF=F KetDBF=F FulRan=T
         wScrn=  0.000000 ICntrl=      2127 IOpCl=  1 I1Cent=           0 NGrid=           0
         NMat0=    1 NMatS0=      1 NMatT0=    0 NMatD0=    1 NMtDS0=    0 NMtDT0=    0
 Petite list used in FoFCou.
 Leave Link  703 at Wed Oct  7 14:32:19 2020, MaxMem=  2684354560 cpu:               6.0 elap:               0.9
 (Enter /udrive/faculty/rpeverati/g16/g16/l716.exe)
 Dipole        = 4.64258785D-17 3.57240222D-32 0.00000000D+00
 ***** Axes restored to original set *****
 -------------------------------------------------------------------
 Center     Atomic                   Forces (Hartrees/Bohr)
 Number     Number              X              Y              Z
 -------------------------------------------------------------------
      1        1          -0.000000000   -0.000000000    0.002843449
      2       17           0.000000000    0.000000000   -0.000000000
      3        1          -0.000000000   -0.000000000   -0.002843449
 -------------------------------------------------------------------
 Cartesian Forces:  Max     0.002843449 RMS     0.001340415
 Leave Link  716 at Wed Oct  7 14:32:20 2020, MaxMem=  2684354560 cpu:               1.5 elap:               0.5
 (Enter /udrive/faculty/rpeverati/g16/g16/l103.exe)

 GradGradGradGradGradGradGradGradGradGradGradGradGradGradGradGradGradGrad
 Berny optimization.
 Optmz: redundant internal coordinate code flag= 1
 FormGI is forming the generalized inverse of G from B-inverse, IUseBI=4.
 Internal  Forces:  Max     0.002843449 RMS     0.002010622
 Search for a saddle point.
 Step number   1 out of a maximum of   50
 All quantities printed in internal units (Hartrees-Bohrs-Radians)
 Swapping is turned off.
 Second derivative matrix not updated -- first step.
 The second derivative matrix:
                          R1        R2        A1        A2
           R1           0.17502
           R2           0.00000   0.17502
           A1           0.00000   0.00000   0.00230
           A2           0.00000   0.00000   0.00000   0.00230
 ITU=  0
 Eigenvectors of the second derivative matrix:
                           1         2         3         4
     Eigenvalues --     0.00230   0.00230   0.17502   0.17502
   1         R1        -0.00000   0.00000  -1.00000   0.00000
   2         R2         0.00000   0.00000  -0.00000   1.00000
   3         A1        -1.00000   0.00000   0.00000   0.00000
   4         A2        -0.00000   1.00000   0.00000  -0.00000
 Eigenvalue     1 is   2.30D-03 should be less than     0.000000 Eigenvector:
                          A1        R1        R2        A2
   1                   -1.00000  -0.00000   0.00000  -0.00000
 RLam0= 2.30D-03.
 Iter=   1 RLamda= 0.00000000D+00 Sum=-9.23908845D-05.
 Iter=   2 RLamda=-9.23908845D-05 Sum=-9.23421387D-05.
 Iter=   3 RLamda=-9.23421387D-05 Sum=-9.23421644D-05.
 RFO step:  Lambda0=2.300010000D-03 Lambda=-9.23421387D-05.
 Linear search not attempted -- option 19 set.
 Iteration  1 RMS(Cart)=  0.01741610 RMS(Int)=  0.00013826
 Iteration  2 RMS(Cart)=  0.00015038 RMS(Int)=  0.00000001
 Iteration  3 RMS(Cart)=  0.00000001 RMS(Int)=  0.00000000
 ITry= 1 IFail=0 DXMaxC= 2.16D-02 DCOld= 1.00D+10 DXMaxT= 1.00D-01 DXLimC= 3.00D+00 Rises=F
 ClnCor:  largest displacement from symmetrization is 2.16D-02 for atom     2.
 Variable       Old X    -DE/DX   Delta X   Delta X   Delta X     New X
                                 (Linear)    (Quad)   (Total)
    R1        2.80776   0.00284   0.00000   0.01624   0.01605   2.82381
    R2        2.80776   0.00284   0.00000   0.01624   0.01605   2.82381
    A1        3.14159   0.00000   0.00000   0.02296   0.00000   3.14159
    A2        3.14159  -0.00000   0.00000  -0.00000   0.00000   3.14159
         Item               Value     Threshold  Converged?
 Maximum Force            0.002843     0.000450     NO 
 RMS     Force            0.002011     0.000300     NO 
 Maximum Displacement     0.016052     0.001800     NO 
 RMS     Displacement     0.011350     0.001200     NO 
 Predicted change in Energy=-4.618881D-05
 Lowest energy point so far.  Saving SCF results.
 Largest change from initial coordinates is atom    1       0.008 Angstoms.
 GradGradGradGradGradGradGradGradGradGradGradGradGradGradGradGradGradGrad

 Leave Link  103 at Wed Oct  7 14:32:20 2020, MaxMem=  2684354560 cpu:               2.9 elap:               0.7
 (Enter /udrive/faculty/rpeverati/g16/g16/l202.exe)
                          Input orientation:                          
 ---------------------------------------------------------------------
 Center     Atomic      Atomic             Coordinates (Angstroms)
 Number     Number       Type             X           Y           Z
 ---------------------------------------------------------------------
      1          1           0        0.000000    0.000000    1.494297
      2         17           0       -0.000000    0.000000   -0.000000
      3          1           0        0.000000    0.000000   -1.494297
 ---------------------------------------------------------------------
                    Distance matrix (angstroms):
                    1          2          3
     1  H    0.000000
     2  Cl   1.494297   0.000000
     3  H    2.988593   1.494297   0.000000
 Stoichiometry    ClH2(2)
 Framework group  D*H[O(Cl),C*(H.H)]
 Deg. of freedom     1
 Full point group                 D*H     NOp   8
 RotChk:  IX=0 Diff= 0.00D+00
 Largest Abelian subgroup         D2H     NOp   8
 Largest concise Abelian subgroup C2      NOp   2
                         Standard orientation:                         
 ---------------------------------------------------------------------
 Center     Atomic      Atomic             Coordinates (Angstroms)
 Number     Number       Type             X           Y           Z
 ---------------------------------------------------------------------
      1          1           0        0.000000    0.000000    1.494297
      2         17           0        0.000000    0.000000    0.000000
      3          1           0        0.000000    0.000000   -1.494297
 ---------------------------------------------------------------------
 Rotational constants (GHZ):           0.0000000         112.2867138         112.2867138
 Leave Link  202 at Wed Oct  7 14:32:21 2020, MaxMem=  2684354560 cpu:               1.2 elap:               0.4
 (Enter /udrive/faculty/rpeverati/g16/g16/l301.exe)
 Standard basis: 6-31G(d) (5D, 7F)
 Ernie: Thresh=  0.10000D-02 Tol=  0.10000D-05 Strict=F.
 There are     9 symmetry adapted cartesian basis functions of AG  symmetry.
 There are     1 symmetry adapted cartesian basis functions of B1G symmetry.
 There are     1 symmetry adapted cartesian basis functions of B2G symmetry.
 There are     1 symmetry adapted cartesian basis functions of B3G symmetry.
 There are     0 symmetry adapted cartesian basis functions of AU  symmetry.
 There are     5 symmetry adapted cartesian basis functions of B1U symmetry.
 There are     3 symmetry adapted cartesian basis functions of B2U symmetry.
 There are     3 symmetry adapted cartesian basis functions of B3U symmetry.
 There are     8 symmetry adapted basis functions of AG  symmetry.
 There are     1 symmetry adapted basis functions of B1G symmetry.
 There are     1 symmetry adapted basis functions of B2G symmetry.
 There are     1 symmetry adapted basis functions of B3G symmetry.
 There are     0 symmetry adapted basis functions of AU  symmetry.
 There are     5 symmetry adapted basis functions of B1U symmetry.
 There are     3 symmetry adapted basis functions of B2U symmetry.
 There are     3 symmetry adapted basis functions of B3U symmetry.
    22 basis functions,    60 primitive gaussians,    23 cartesian basis functions
    10 alpha electrons        9 beta electrons
       nuclear repulsion energy        12.2175291435 Hartrees.
 IExCor= 1009 DFT=T Ex+Corr=PBE1PBE ExCW=0 ScaHFX=  0.250000
 ScaDFX=  0.750000  0.750000  1.000000  1.000000 ScalE2=  1.000000  1.000000
 IRadAn=      5 IRanWt=     -1 IRanGd=            0 ICorTp=0 IEmpDi=141
 NAtoms=    3 NActive=    3 NUniq=    2 SFac= 2.25D+00 NAtFMM=   60 NAOKFM=F Big=F
 Integral buffers will be    131072 words long.
 Raffenetti 2 integral format.
 Two-electron integral symmetry is turned on.
 R6Disp:  Grimme-D3(BJ) Dispersion energy=       -0.0005723477 Hartrees.
 Nuclear repulsion after empirical dispersion term =       12.2169567958 Hartrees.
 Leave Link  301 at Wed Oct  7 14:32:22 2020, MaxMem=  2684354560 cpu:               1.7 elap:               0.5
 (Enter /udrive/faculty/rpeverati/g16/g16/l302.exe)
 NPDir=0 NMtPBC=     1 NCelOv=     1 NCel=       1 NClECP=     1 NCelD=      1
         NCelK=      1 NCelE2=     1 NClLst=     1 CellRange=     0.0.
 One-electron integrals computed using PRISM.
 One-electron integral symmetry used in STVInt
 NBasis=    22 RedAO= T EigKep=  5.64D-02  NBF=     8     1     1     1     0     5     3     3
 NBsUse=    22 1.00D-06 EigRej= -1.00D+00 NBFU=     8     1     1     1     0     5     3     3
 Precomputing XC quadrature grid using
 IXCGrd= 4 IRadAn=           5 IRanWt=          -1 IRanGd=           0 AccXCQ= 0.00D+00.
 Generated NRdTot=       0 NPtTot=           0 NUsed=           0 NTot=          32
 NSgBfM=    23    23    23    23    23 MxSgAt=     3 MxSgA2=     3.
 Leave Link  302 at Wed Oct  7 14:32:23 2020, MaxMem=  2684354560 cpu:               3.1 elap:               0.6
 (Enter /udrive/faculty/rpeverati/g16/g16/l303.exe)
 DipDrv:  MaxL=1.
 Leave Link  303 at Wed Oct  7 14:32:23 2020, MaxMem=  2684354560 cpu:               0.9 elap:               0.4
 (Enter /udrive/faculty/rpeverati/g16/g16/l401.exe)
 Initial guess from the checkpoint file:  "MN_45_hclhts_BH76_PBE0DBJ_631Gs.chk"
 SCF N**3 symmetry information disabled.
 B after Tr=     0.000000    0.000000    0.000000
         Rot=    1.000000    0.000000    0.000000    0.000000 Ang=   0.00 deg.
 Guess basis will be translated and rotated to current coordinates.
 JPrj=2 DoOrth=T DoCkMO=T.
 Initial guess orbital symmetries:
 Alpha Orbitals:
       Occupied  (SGG) (SGG) (SGU) (PIU) (PIU) (SGG) (SGU) (PIU)
                 (PIU) (SGG)
       Virtual   (SGU) (SGG) (PIU) (PIU) (SGU) (SGG) (SGU) (PIG)
                 (PIG) (DLTG) (DLTG) (SGG)
 Beta  Orbitals:
       Occupied  (SGG) (SGG) (SGU) (PIU) (PIU) (SGG) (SGU) (PIU)
                 (PIU)
       Virtual   (SGG) (SGU) (SGG) (PIU) (PIU) (SGU) (SGG) (SGU)
                 (PIG) (PIG) (DLTG) (DLTG) (SGG)
 The electronic state of the initial guess is 2-SGG.
 Initial guess <Sx>= 0.0000 <Sy>= 0.0000 <Sz>= 0.5000 <S**2>= 0.7677 S= 0.5088
 Leave Link  401 at Wed Oct  7 14:32:24 2020, MaxMem=  2684354560 cpu:               2.0 elap:               0.5
 (Enter /udrive/faculty/rpeverati/g16/g16/l502.exe)
 Keep R1 and R2 ints in memory in symmetry-blocked form, NReq=10378099.
 FoFCou: FMM=F IPFlag=           0 FMFlag=           0 FMFlg1=           0
         NFxFlg=           0 DoJE=F BraDBF=F KetDBF=F FulRan=T
         wScrn=  0.000000 ICntrl=       600 IOpCl=  0 I1Cent=           0 NGrid=           0
         NMat0=    1 NMatS0=    253 NMatT0=    0 NMatD0=    1 NMtDS0=    0 NMtDT0=    0
 Petite list used in FoFCou.
 UHF open shell SCF:
 Using DIIS extrapolation, IDIIS=  1040.
 NGot=  2684354560 LenX=  2684339476 LenY=  2684338506
 Requested convergence on RMS density matrix=1.00D-08 within 120 cycles.
 Requested convergence on MAX density matrix=1.00D-06.
 Requested convergence on             energy=1.00D-06.
 No special actions if energy rises.

 Cycle   1  Pass 1  IDiag  1:
 E= -461.097305511989    
 DIIS: error= 9.77D-04 at cycle   1 NSaved=   1.
 NSaved= 1 IEnMin= 1 EnMin= -461.097305511989     IErMin= 1 ErrMin= 9.77D-04
 ErrMax= 9.77D-04  0.00D+00 EMaxC= 1.00D-01 BMatC= 4.05D-05 BMatP= 4.05D-05
 IDIUse=3 WtCom= 9.90D-01 WtEn= 9.77D-03
 Coeff-Com:  0.100D+01
 Coeff-En:   0.100D+01
 Coeff:      0.100D+01
 Gap=     0.291 Goal=   None    Shift=    0.000
 Gap=     0.253 Goal=   None    Shift=    0.000
 RMSDP=4.03D-04 MaxDP=4.90D-03              OVMax= 2.52D-03

 Cycle   2  Pass 1  IDiag  1:
 E= -461.097323462864     Delta-E=       -0.000017950875 Rises=F Damp=F
 DIIS: error= 1.62D-04 at cycle   2 NSaved=   2.
 NSaved= 2 IEnMin= 2 EnMin= -461.097323462864     IErMin= 2 ErrMin= 1.62D-04
 ErrMax= 1.62D-04  0.00D+00 EMaxC= 1.00D-01 BMatC= 1.94D-06 BMatP= 4.05D-05
 IDIUse=3 WtCom= 9.98D-01 WtEn= 1.62D-03
 Coeff-Com:  0.364D-01 0.964D+00
 Coeff-En:   0.000D+00 0.100D+01
 Coeff:      0.363D-01 0.964D+00
 Gap=     0.291 Goal=   None    Shift=    0.000
 Gap=     0.254 Goal=   None    Shift=    0.000
 RMSDP=1.15D-04 MaxDP=1.41D-03 DE=-1.80D-05 OVMax= 4.72D-04

 Cycle   3  Pass 1  IDiag  1:
 E= -461.097323903941     Delta-E=       -0.000000441077 Rises=F Damp=F
 DIIS: error= 1.27D-04 at cycle   3 NSaved=   3.
 NSaved= 3 IEnMin= 3 EnMin= -461.097323903941     IErMin= 3 ErrMin= 1.27D-04
 ErrMax= 1.27D-04  0.00D+00 EMaxC= 1.00D-01 BMatC= 9.80D-07 BMatP= 1.94D-06
 IDIUse=3 WtCom= 9.99D-01 WtEn= 1.27D-03
 Coeff-Com: -0.297D-01 0.411D+00 0.619D+00
 Coeff-En:   0.000D+00 0.164D+00 0.836D+00
 Coeff:     -0.296D-01 0.411D+00 0.619D+00
 Gap=     0.291 Goal=   None    Shift=    0.000
 Gap=     0.253 Goal=   None    Shift=    0.000
 RMSDP=3.17D-05 MaxDP=3.00D-04 DE=-4.41D-07 OVMax= 2.72D-04

 Cycle   4  Pass 1  IDiag  1:
 E= -461.097324206800     Delta-E=       -0.000000302859 Rises=F Damp=F
 DIIS: error= 1.85D-05 at cycle   4 NSaved=   4.
 NSaved= 4 IEnMin= 4 EnMin= -461.097324206800     IErMin= 4 ErrMin= 1.85D-05
 ErrMax= 1.85D-05  0.00D+00 EMaxC= 1.00D-01 BMatC= 6.27D-09 BMatP= 9.80D-07
 IDIUse=1 WtCom= 1.00D+00 WtEn= 0.00D+00
 Coeff-Com: -0.165D-02-0.516D-01-0.198D-01 0.107D+01
 Coeff:     -0.165D-02-0.516D-01-0.198D-01 0.107D+01
 Gap=     0.291 Goal=   None    Shift=    0.000
 Gap=     0.254 Goal=   None    Shift=    0.000
 RMSDP=4.30D-06 MaxDP=5.10D-05 DE=-3.03D-07 OVMax= 5.02D-05

 Cycle   5  Pass 1  IDiag  1:
 E= -461.097324211134     Delta-E=       -0.000000004333 Rises=F Damp=F
 DIIS: error= 3.31D-06 at cycle   5 NSaved=   5.
 NSaved= 5 IEnMin= 5 EnMin= -461.097324211134     IErMin= 5 ErrMin= 3.31D-06
 ErrMax= 3.31D-06  0.00D+00 EMaxC= 1.00D-01 BMatC= 3.11D-10 BMatP= 6.27D-09
 IDIUse=1 WtCom= 1.00D+00 WtEn= 0.00D+00
 Coeff-Com:  0.145D-02-0.589D-03-0.184D-01-0.302D+00 0.132D+01
 Coeff:      0.145D-02-0.589D-03-0.184D-01-0.302D+00 0.132D+01
 Gap=     0.291 Goal=   None    Shift=    0.000
 Gap=     0.254 Goal=   None    Shift=    0.000
 RMSDP=1.22D-06 MaxDP=1.59D-05 DE=-4.33D-09 OVMax= 1.48D-05

 Cycle   6  Pass 1  IDiag  1:
 E= -461.097324211417     Delta-E=       -0.000000000283 Rises=F Damp=F
 DIIS: error= 2.55D-07 at cycle   6 NSaved=   6.
 NSaved= 6 IEnMin= 6 EnMin= -461.097324211417     IErMin= 6 ErrMin= 2.55D-07
 ErrMax= 2.55D-07  0.00D+00 EMaxC= 1.00D-01 BMatC= 1.92D-12 BMatP= 3.11D-10
 IDIUse=1 WtCom= 1.00D+00 WtEn= 0.00D+00
 Coeff-Com: -0.636D-04 0.654D-03 0.201D-02 0.182D-03-0.759D-01 0.107D+01
 Coeff:     -0.636D-04 0.654D-03 0.201D-02 0.182D-03-0.759D-01 0.107D+01
 Gap=     0.291 Goal=   None    Shift=    0.000
 Gap=     0.254 Goal=   None    Shift=    0.000
 RMSDP=9.27D-08 MaxDP=1.21D-06 DE=-2.83D-10 OVMax= 9.86D-07

 Cycle   7  Pass 1  IDiag  1:
 E= -461.097324211419     Delta-E=       -0.000000000002 Rises=F Damp=F
 DIIS: error= 1.60D-08 at cycle   7 NSaved=   7.
 NSaved= 7 IEnMin= 7 EnMin= -461.097324211419     IErMin= 7 ErrMin= 1.60D-08
 ErrMax= 1.60D-08  0.00D+00 EMaxC= 1.00D-01 BMatC= 1.48D-14 BMatP= 1.92D-12
 IDIUse=1 WtCom= 1.00D+00 WtEn= 0.00D+00
 Coeff-Com: -0.372D-05-0.375D-04-0.127D-03 0.201D-02-0.771D-03-0.109D+00
 Coeff-Com:  0.111D+01
 Coeff:     -0.372D-05-0.375D-04-0.127D-03 0.201D-02-0.771D-03-0.109D+00
 Coeff:      0.111D+01
 Gap=     0.291 Goal=   None    Shift=    0.000
 Gap=     0.254 Goal=   None    Shift=    0.000
 RMSDP=8.96D-09 MaxDP=1.05D-07 DE=-1.82D-12 OVMax= 3.23D-08

 SCF Done:  E(UPBE1PBE) =  -461.097324211     A.U. after    7 cycles
            NFock=  7  Conv=0.90D-08     -V/T= 2.0012
 <Sx>= 0.0000 <Sy>= 0.0000 <Sz>= 0.5000 <S**2>= 0.7680 S= 0.5090
 <L.S>= 0.000000000000E+00
 KE= 4.605219272061D+02 PE=-1.121083901459D+03 EE= 1.872476932453D+02
 Annihilation of the first spin contaminant:
 S**2 before annihilation     0.7680,   after     0.7500
 Leave Link  502 at Wed Oct  7 14:32:25 2020, MaxMem=  2684354560 cpu:               6.9 elap:               0.9
 (Enter /udrive/faculty/rpeverati/g16/g16/l508.exe)
 QCSCF skips out because SCF is already converged.
 Leave Link  508 at Wed Oct  7 14:32:26 2020, MaxMem=  2684354560 cpu:               0.3 elap:               0.4
 (Enter /udrive/faculty/rpeverati/g16/g16/l701.exe)
 ... and contract with generalized density number  0.
 Compute integral first derivatives.
 R6Disp: Adding Grimme-D3(BJ) dispersion energy 1st derivatives to the gradient.
 Leave Link  701 at Wed Oct  7 14:32:26 2020, MaxMem=  2684354560 cpu:               3.8 elap:               0.7
 (Enter /udrive/faculty/rpeverati/g16/g16/l702.exe)
 L702 exits ... SP integral derivatives will be done elsewhere.
 Leave Link  702 at Wed Oct  7 14:32:27 2020, MaxMem=  2684354560 cpu:               0.9 elap:               0.3
 (Enter /udrive/faculty/rpeverati/g16/g16/l703.exe)
 Integral derivatives from FoFJK, PRISM(SPDF).
 Compute integral first derivatives, UseDBF=F ICtDFT=           0.
 Calling FoFJK, ICntrl=      2127 FMM=F ISym2X=1 I1Cent= 0 IOpClX= 1 NMat=1 NMatS=1 NMatT=0.
 FoFJK:  IHMeth= 1 ICntrl=    2127 DoSepK=F KAlg= 0 I1Cent=           0 FoldK=F
 IRaf=         0 NMat=       1 IRICut=       1 DoRegI=T DoRafI=F ISym2E= 1 IDoP0=0 IntGTp=1.
 FoFCou: FMM=F IPFlag=           0 FMFlag=      100000 FMFlg1=         800
         NFxFlg=           0 DoJE=F BraDBF=F KetDBF=F FulRan=T
         wScrn=  0.000000 ICntrl=      2127 IOpCl=  1 I1Cent=           0 NGrid=           0
         NMat0=    1 NMatS0=      1 NMatT0=    0 NMatD0=    1 NMtDS0=    0 NMtDT0=    0
 Petite list used in FoFCou.
 Leave Link  703 at Wed Oct  7 14:32:28 2020, MaxMem=  2684354560 cpu:               5.8 elap:               0.9
 (Enter /udrive/faculty/rpeverati/g16/g16/l716.exe)
 Dipole        = 4.67721326D-17-1.22514361D-31 0.00000000D+00
 ***** Axes restored to original set *****
 -------------------------------------------------------------------
 Center     Atomic                   Forces (Hartrees/Bohr)
 Number     Number              X              Y              Z
 -------------------------------------------------------------------
      1        1          -0.000000000   -0.000000000    0.000745946
      2       17           0.000000000    0.000000000   -0.000000000
      3        1          -0.000000000   -0.000000000   -0.000745946
 -------------------------------------------------------------------
 Cartesian Forces:  Max     0.000745946 RMS     0.000351643
 Leave Link  716 at Wed Oct  7 14:32:29 2020, MaxMem=  2684354560 cpu:               1.1 elap:               0.4
 (Enter /udrive/faculty/rpeverati/g16/g16/l103.exe)

 GradGradGradGradGradGradGradGradGradGradGradGradGradGradGradGradGradGrad
 Berny optimization.
 Optmz: redundant internal coordinate code flag= 1
 Red2BG:  D1=  7.52D-01 OD1=  3.33D-16 B2RMS=  0.00D+00 IAprox=1
 Red2BG is reusing G-inverse.
 Internal  Forces:  Max     0.000745946 RMS     0.000527464
 Search for a saddle point.
 Step number   2 out of a maximum of   50
 All quantities printed in internal units (Hartrees-Bohrs-Radians)
 Swapping is turned off.
 Update second derivatives using D2CorX and points    1    2
 The second derivative matrix:
                          R1        R2        A1        A2
           R1           0.15285
           R2          -0.02217   0.15285
           A1           0.00000   0.00000   0.00230
           A2           0.00000   0.00000  -0.00000   0.00230
 ITU=  0  0
 Eigenvectors of the second derivative matrix:
                           1         2         3         4
     Eigenvalues --     0.00230   0.00230   0.13067   0.17502
   1         R1         0.00000  -0.00000   0.70711  -0.70711
   2         R2         0.00000  -0.00000   0.70711   0.70711
   3         A1        -1.00000  -0.00000   0.00000  -0.00000
   4         A2        -0.00000   1.00000   0.00000   0.00000
 Eigenvalue     1 is   2.30D-03 should be less than     0.000000 Eigenvector:
                          A1        A2        R1        R2
   1                   -1.00000  -0.00000   0.00000   0.00000
 RLam0= 2.30D-03.
 Iter=   1 RLamda= 0.00000000D+00 Sum=-8.51647636D-06.
 Iter=   2 RLamda=-8.51647636D-06 Sum=-8.51592134D-06.
 RFO step:  Lambda0=2.300010000D-03 Lambda=-8.51647636D-06.
 Linear search not attempted -- option 19 set.
 Iteration  1 RMS(Cart)=  0.00615353 RMS(Int)=  0.00001722
 Iteration  2 RMS(Cart)=  0.00001865 RMS(Int)=  0.00000000
 Iteration  3 RMS(Cart)=  0.00000000 RMS(Int)=  0.00000000
 ITry= 1 IFail=0 DXMaxC= 7.61D-03 DCOld= 1.00D+10 DXMaxT= 1.00D-01 DXLimC= 3.00D+00 Rises=F
 ClnCor:  largest displacement from symmetrization is 7.61D-03 for atom     2.
 Variable       Old X    -DE/DX   Delta X   Delta X   Delta X     New X
                                 (Linear)    (Quad)   (Total)
    R1        2.82381   0.00075   0.00000   0.00571   0.00569   2.82950
    R2        2.82381   0.00075   0.00000   0.00571   0.00569   2.82950
    A1        3.14159   0.00000   0.00000   0.00807   0.00000   3.14159
    A2        3.14159  -0.00000   0.00000  -0.00000   0.00000   3.14159
         Item               Value     Threshold  Converged?
 Maximum Force            0.000746     0.000450     NO 
 RMS     Force            0.000527     0.000300     NO 
 Maximum Displacement     0.005685     0.001800     NO 
 RMS     Displacement     0.004020     0.001200     NO 
 Predicted change in Energy=-4.258167D-06
 Lowest energy point so far.  Saving SCF results.
 Largest change from initial coordinates is atom    1       0.012 Angstoms.
 GradGradGradGradGradGradGradGradGradGradGradGradGradGradGradGradGradGrad

 Leave Link  103 at Wed Oct  7 14:32:29 2020, MaxMem=  2684354560 cpu:               1.5 elap:               0.4
 (Enter /udrive/faculty/rpeverati/g16/g16/l202.exe)
                          Input orientation:                          
 ---------------------------------------------------------------------
 Center     Atomic      Atomic             Coordinates (Angstroms)
 Number     Number       Type             X           Y           Z
 ---------------------------------------------------------------------
      1          1           0        0.000000    0.000000    1.497305
      2         17           0        0.000000    0.000000   -0.000000
      3          1           0        0.000000    0.000000   -1.497305
 ---------------------------------------------------------------------
                    Distance matrix (angstroms):
                    1          2          3
     1  H    0.000000
     2  Cl   1.497305   0.000000
     3  H    2.994610   1.497305   0.000000
 Stoichiometry    ClH2(2)
 Framework group  D*H[O(Cl),C*(H.H)]
 Deg. of freedom     1
 Full point group                 D*H     NOp   8
 RotChk:  IX=0 Diff= 0.00D+00
 Largest Abelian subgroup         D2H     NOp   8
 Largest concise Abelian subgroup C2      NOp   2
                         Standard orientation:                         
 ---------------------------------------------------------------------
 Center     Atomic      Atomic             Coordinates (Angstroms)
 Number     Number       Type             X           Y           Z
 ---------------------------------------------------------------------
      1          1           0        0.000000    0.000000    1.497305
      2         17           0        0.000000    0.000000    0.000000
      3          1           0        0.000000    0.000000   -1.497305
 ---------------------------------------------------------------------
 Rotational constants (GHZ):           0.0000000         111.8359495         111.8359495
 Leave Link  202 at Wed Oct  7 14:32:30 2020, MaxMem=  2684354560 cpu:               1.1 elap:               0.4
 (Enter /udrive/faculty/rpeverati/g16/g16/l301.exe)
 Standard basis: 6-31G(d) (5D, 7F)
 Ernie: Thresh=  0.10000D-02 Tol=  0.10000D-05 Strict=F.
 There are     9 symmetry adapted cartesian basis functions of AG  symmetry.
 There are     1 symmetry adapted cartesian basis functions of B1G symmetry.
 There are     1 symmetry adapted cartesian basis functions of B2G symmetry.
 There are     1 symmetry adapted cartesian basis functions of B3G symmetry.
 There are     0 symmetry adapted cartesian basis functions of AU  symmetry.
 There are     5 symmetry adapted cartesian basis functions of B1U symmetry.
 There are     3 symmetry adapted cartesian basis functions of B2U symmetry.
 There are     3 symmetry adapted cartesian basis functions of B3U symmetry.
 There are     8 symmetry adapted basis functions of AG  symmetry.
 There are     1 symmetry adapted basis functions of B1G symmetry.
 There are     1 symmetry adapted basis functions of B2G symmetry.
 There are     1 symmetry adapted basis functions of B3G symmetry.
 There are     0 symmetry adapted basis functions of AU  symmetry.
 There are     5 symmetry adapted basis functions of B1U symmetry.
 There are     3 symmetry adapted basis functions of B2U symmetry.
 There are     3 symmetry adapted basis functions of B3U symmetry.
    22 basis functions,    60 primitive gaussians,    23 cartesian basis functions
    10 alpha electrons        9 beta electrons
       nuclear repulsion energy        12.1929814302 Hartrees.
 IExCor= 1009 DFT=T Ex+Corr=PBE1PBE ExCW=0 ScaHFX=  0.250000
 ScaDFX=  0.750000  0.750000  1.000000  1.000000 ScalE2=  1.000000  1.000000
 IRadAn=      5 IRanWt=     -1 IRanGd=            0 ICorTp=0 IEmpDi=141
 NAtoms=    3 NActive=    3 NUniq=    2 SFac= 2.25D+00 NAtFMM=   60 NAOKFM=F Big=F
 Integral buffers will be    131072 words long.
 Raffenetti 2 integral format.
 Two-electron integral symmetry is turned on.
 R6Disp:  Grimme-D3(BJ) Dispersion energy=       -0.0005722852 Hartrees.
 Nuclear repulsion after empirical dispersion term =       12.1924091449 Hartrees.
 Leave Link  301 at Wed Oct  7 14:32:30 2020, MaxMem=  2684354560 cpu:               1.4 elap:               0.5
 (Enter /udrive/faculty/rpeverati/g16/g16/l302.exe)
 NPDir=0 NMtPBC=     1 NCelOv=     1 NCel=       1 NClECP=     1 NCelD=      1
         NCelK=      1 NCelE2=     1 NClLst=     1 CellRange=     0.0.
 One-electron integrals computed using PRISM.
 One-electron integral symmetry used in STVInt
 NBasis=    22 RedAO= T EigKep=  5.68D-02  NBF=     8     1     1     1     0     5     3     3
 NBsUse=    22 1.00D-06 EigRej= -1.00D+00 NBFU=     8     1     1     1     0     5     3     3
 Precomputing XC quadrature grid using
 IXCGrd= 4 IRadAn=           5 IRanWt=          -1 IRanGd=           0 AccXCQ= 0.00D+00.
 Generated NRdTot=       0 NPtTot=           0 NUsed=           0 NTot=          32
 NSgBfM=    23    23    23    23    23 MxSgAt=     3 MxSgA2=     3.
 Leave Link  302 at Wed Oct  7 14:32:31 2020, MaxMem=  2684354560 cpu:               3.2 elap:               0.7
 (Enter /udrive/faculty/rpeverati/g16/g16/l303.exe)
 DipDrv:  MaxL=1.
 Leave Link  303 at Wed Oct  7 14:32:32 2020, MaxMem=  2684354560 cpu:               0.7 elap:               0.3
 (Enter /udrive/faculty/rpeverati/g16/g16/l401.exe)
 Initial guess from the checkpoint file:  "MN_45_hclhts_BH76_PBE0DBJ_631Gs.chk"
 SCF N**3 symmetry information disabled.
 B after Tr=     0.000000    0.000000    0.000000
         Rot=    1.000000    0.000000    0.000000    0.000000 Ang=   0.00 deg.
 Guess basis will be translated and rotated to current coordinates.
 JPrj=2 DoOrth=T DoCkMO=T.
 Initial guess orbital symmetries:
 Alpha Orbitals:
       Occupied  (SGG) (SGG) (SGU) (PIU) (PIU) (SGG) (SGU) (PIU)
                 (PIU) (SGG)
       Virtual   (SGU) (SGG) (PIU) (PIU) (SGU) (SGG) (SGU) (PIG)
                 (PIG) (DLTG) (DLTG) (SGG)
 Beta  Orbitals:
       Occupied  (SGG) (SGG) (SGU) (PIU) (PIU) (SGG) (SGU) (PIU)
                 (PIU)
       Virtual   (SGG) (SGU) (SGG) (PIU) (PIU) (SGU) (SGG) (SGU)
                 (PIG) (PIG) (DLTG) (DLTG) (SGG)
 The electronic state of the initial guess is 2-SGG.
 Initial guess <Sx>= 0.0000 <Sy>= 0.0000 <Sz>= 0.5000 <S**2>= 0.7681 S= 0.5090
 Leave Link  401 at Wed Oct  7 14:32:32 2020, MaxMem=  2684354560 cpu:               1.4 elap:               0.4
 (Enter /udrive/faculty/rpeverati/g16/g16/l502.exe)
 Keep R1 and R2 ints in memory in symmetry-blocked form, NReq=10378099.
 FoFCou: FMM=F IPFlag=           0 FMFlag=           0 FMFlg1=           0
         NFxFlg=           0 DoJE=F BraDBF=F KetDBF=F FulRan=T
         wScrn=  0.000000 ICntrl=       600 IOpCl=  0 I1Cent=           0 NGrid=           0
         NMat0=    1 NMatS0=    253 NMatT0=    0 NMatD0=    1 NMtDS0=    0 NMtDT0=    0
 Petite list used in FoFCou.
 UHF open shell SCF:
 Using DIIS extrapolation, IDIIS=  1040.
 NGot=  2684354560 LenX=  2684339476 LenY=  2684338506
 Requested convergence on RMS density matrix=1.00D-08 within 120 cycles.
 Requested convergence on MAX density matrix=1.00D-06.
 Requested convergence on             energy=1.00D-06.
 No special actions if energy rises.

 Cycle   1  Pass 1  IDiag  1:
 E= -461.097326271304    
 DIIS: error= 3.44D-04 at cycle   1 NSaved=   1.
 NSaved= 1 IEnMin= 1 EnMin= -461.097326271304     IErMin= 1 ErrMin= 3.44D-04
 ErrMax= 3.44D-04  0.00D+00 EMaxC= 1.00D-01 BMatC= 5.01D-06 BMatP= 5.01D-06
 IDIUse=3 WtCom= 9.97D-01 WtEn= 3.44D-03
 Coeff-Com:  0.100D+01
 Coeff-En:   0.100D+01
 Coeff:      0.100D+01
 Gap=     0.290 Goal=   None    Shift=    0.000
 Gap=     0.253 Goal=   None    Shift=    0.000
 RMSDP=1.41D-04 MaxDP=1.69D-03              OVMax= 8.85D-04

 Cycle   2  Pass 1  IDiag  1:
 E= -461.097328491139     Delta-E=       -0.000002219835 Rises=F Damp=F
 DIIS: error= 5.71D-05 at cycle   2 NSaved=   2.
 NSaved= 2 IEnMin= 2 EnMin= -461.097328491139     IErMin= 2 ErrMin= 5.71D-05
 ErrMax= 5.71D-05  0.00D+00 EMaxC= 1.00D-01 BMatC= 2.41D-07 BMatP= 5.01D-06
 IDIUse=1 WtCom= 1.00D+00 WtEn= 0.00D+00
 Coeff-Com:  0.365D-01 0.964D+00
 Coeff:      0.365D-01 0.964D+00
 Gap=     0.290 Goal=   None    Shift=    0.000
 Gap=     0.253 Goal=   None    Shift=    0.000
 RMSDP=4.04D-05 MaxDP=4.92D-04 DE=-2.22D-06 OVMax= 1.68D-04

 Cycle   3  Pass 1  IDiag  1:
 E= -461.097328545830     Delta-E=       -0.000000054691 Rises=F Damp=F
 DIIS: error= 4.49D-05 at cycle   3 NSaved=   3.
 NSaved= 3 IEnMin= 3 EnMin= -461.097328545830     IErMin= 3 ErrMin= 4.49D-05
 ErrMax= 4.49D-05  0.00D+00 EMaxC= 1.00D-01 BMatC= 1.22D-07 BMatP= 2.41D-07
 IDIUse=1 WtCom= 1.00D+00 WtEn= 0.00D+00
 Coeff-Com: -0.298D-01 0.411D+00 0.618D+00
 Coeff:     -0.298D-01 0.411D+00 0.618D+00
 Gap=     0.290 Goal=   None    Shift=    0.000
 Gap=     0.253 Goal=   None    Shift=    0.000
 RMSDP=1.12D-05 MaxDP=1.06D-04 DE=-5.47D-08 OVMax= 9.63D-05

 Cycle   4  Pass 1  IDiag  1:
 E= -461.097328583550     Delta-E=       -0.000000037720 Rises=F Damp=F
 DIIS: error= 6.55D-06 at cycle   4 NSaved=   4.
 NSaved= 4 IEnMin= 4 EnMin= -461.097328583550     IErMin= 4 ErrMin= 6.55D-06
 ErrMax= 6.55D-06  0.00D+00 EMaxC= 1.00D-01 BMatC= 7.83D-10 BMatP= 1.22D-07
 IDIUse=1 WtCom= 1.00D+00 WtEn= 0.00D+00
 Coeff-Com: -0.160D-02-0.525D-01-0.216D-01 0.108D+01
 Coeff:     -0.160D-02-0.525D-01-0.216D-01 0.108D+01
 Gap=     0.290 Goal=   None    Shift=    0.000
 Gap=     0.253 Goal=   None    Shift=    0.000
 RMSDP=1.52D-06 MaxDP=1.82D-05 DE=-3.77D-08 OVMax= 1.80D-05

 Cycle   5  Pass 1  IDiag  1:
 E= -461.097328584098     Delta-E=       -0.000000000548 Rises=F Damp=F
 DIIS: error= 1.18D-06 at cycle   5 NSaved=   5.
 NSaved= 5 IEnMin= 5 EnMin= -461.097328584098     IErMin= 5 ErrMin= 1.18D-06
 ErrMax= 1.18D-06  0.00D+00 EMaxC= 1.00D-01 BMatC= 3.94D-11 BMatP= 7.83D-10
 IDIUse=1 WtCom= 1.00D+00 WtEn= 0.00D+00
 Coeff-Com:  0.146D-02-0.565D-03-0.182D-01-0.303D+00 0.132D+01
 Coeff:      0.146D-02-0.565D-03-0.182D-01-0.303D+00 0.132D+01
 Gap=     0.290 Goal=   None    Shift=    0.000
 Gap=     0.253 Goal=   None    Shift=    0.000
 RMSDP=4.35D-07 MaxDP=5.69D-06 DE=-5.48D-10 OVMax= 5.30D-06

 Cycle   6  Pass 1  IDiag  1:
 E= -461.097328584135     Delta-E=       -0.000000000036 Rises=F Damp=F
 DIIS: error= 8.93D-08 at cycle   6 NSaved=   6.
 NSaved= 6 IEnMin= 6 EnMin= -461.097328584135     IErMin= 6 ErrMin= 8.93D-08
 ErrMax= 8.93D-08  0.00D+00 EMaxC= 1.00D-01 BMatC= 2.38D-13 BMatP= 3.94D-11
 IDIUse=1 WtCom= 1.00D+00 WtEn= 0.00D+00
 Coeff-Com: -0.630D-04 0.652D-03 0.201D-02 0.639D-04-0.742D-01 0.107D+01
 Coeff:     -0.630D-04 0.652D-03 0.201D-02 0.639D-04-0.742D-01 0.107D+01
 Gap=     0.290 Goal=   None    Shift=    0.000
 Gap=     0.253 Goal=   None    Shift=    0.000
 RMSDP=3.24D-08 MaxDP=4.24D-07 DE=-3.64D-11 OVMax= 3.47D-07

 Cycle   7  Pass 1  IDiag  1:
 E= -461.097328584135     Delta-E=       -0.000000000000 Rises=F Damp=F
 DIIS: error= 5.60D-09 at cycle   7 NSaved=   7.
 NSaved= 7 IEnMin= 7 EnMin= -461.097328584135     IErMin= 7 ErrMin= 5.60D-09
 ErrMax= 5.60D-09  0.00D+00 EMaxC= 1.00D-01 BMatC= 1.82D-15 BMatP= 2.38D-13
 IDIUse=1 WtCom= 1.00D+00 WtEn= 0.00D+00
 Coeff-Com: -0.379D-05-0.363D-04-0.126D-03 0.201D-02-0.945D-03-0.108D+00
 Coeff-Com:  0.111D+01
 Coeff:     -0.379D-05-0.363D-04-0.126D-03 0.201D-02-0.945D-03-0.108D+00
 Coeff:      0.111D+01
 Gap=     0.290 Goal=   None    Shift=    0.000
 Gap=     0.253 Goal=   None    Shift=    0.000
 RMSDP=3.12D-09 MaxDP=3.67D-08 DE=-1.14D-13 OVMax= 1.13D-08

 SCF Done:  E(UPBE1PBE) =  -461.097328584     A.U. after    7 cycles
            NFock=  7  Conv=0.31D-08     -V/T= 2.0013
 <Sx>= 0.0000 <Sy>= 0.0000 <Sz>= 0.5000 <S**2>= 0.7682 S= 0.5091
 <L.S>= 0.000000000000E+00
 KE= 4.605171271551D+02 PE=-1.121033678308D+03 EE= 1.872268134239D+02
 Annihilation of the first spin contaminant:
 S**2 before annihilation     0.7682,   after     0.7500
 Leave Link  502 at Wed Oct  7 14:32:33 2020, MaxMem=  2684354560 cpu:               7.7 elap:               1.0
 (Enter /udrive/faculty/rpeverati/g16/g16/l508.exe)
 QCSCF skips out because SCF is already converged.
 Leave Link  508 at Wed Oct  7 14:32:34 2020, MaxMem=  2684354560 cpu:               0.1 elap:               0.3
 (Enter /udrive/faculty/rpeverati/g16/g16/l701.exe)
 ... and contract with generalized density number  0.
 Compute integral first derivatives.
 R6Disp: Adding Grimme-D3(BJ) dispersion energy 1st derivatives to the gradient.
 Leave Link  701 at Wed Oct  7 14:32:35 2020, MaxMem=  2684354560 cpu:               3.5 elap:               0.5
 (Enter /udrive/faculty/rpeverati/g16/g16/l702.exe)
 L702 exits ... SP integral derivatives will be done elsewhere.
 Leave Link  702 at Wed Oct  7 14:32:35 2020, MaxMem=  2684354560 cpu:               0.7 elap:               0.3
 (Enter /udrive/faculty/rpeverati/g16/g16/l703.exe)
 Integral derivatives from FoFJK, PRISM(SPDF).
 Compute integral first derivatives, UseDBF=F ICtDFT=           0.
 Calling FoFJK, ICntrl=      2127 FMM=F ISym2X=1 I1Cent= 0 IOpClX= 1 NMat=1 NMatS=1 NMatT=0.
 FoFJK:  IHMeth= 1 ICntrl=    2127 DoSepK=F KAlg= 0 I1Cent=           0 FoldK=F
 IRaf=         0 NMat=       1 IRICut=       1 DoRegI=T DoRafI=F ISym2E= 1 IDoP0=0 IntGTp=1.
 FoFCou: FMM=F IPFlag=           0 FMFlag=      100000 FMFlg1=         800
         NFxFlg=           0 DoJE=F BraDBF=F KetDBF=F FulRan=T
         wScrn=  0.000000 ICntrl=      2127 IOpCl=  1 I1Cent=           0 NGrid=           0
         NMat0=    1 NMatS0=      1 NMatT0=    0 NMatD0=    1 NMtDS0=    0 NMtDT0=    0
 Petite list used in FoFCou.
 Leave Link  703 at Wed Oct  7 14:32:36 2020, MaxMem=  2684354560 cpu:               5.5 elap:               0.7
 (Enter /udrive/faculty/rpeverati/g16/g16/l716.exe)
 Dipole        = 4.68956411D-17 1.42905492D-32 0.00000000D+00
 ***** Axes restored to original set *****
 -------------------------------------------------------------------
 Center     Atomic                   Forces (Hartrees/Bohr)
 Number     Number              X              Y              Z
 -------------------------------------------------------------------
      1        1          -0.000000000   -0.000000000    0.000025096
      2       17           0.000000000    0.000000000   -0.000000000
      3        1          -0.000000000   -0.000000000   -0.000025096
 -------------------------------------------------------------------
 Cartesian Forces:  Max     0.000025096 RMS     0.000011830
 Leave Link  716 at Wed Oct  7 14:32:36 2020, MaxMem=  2684354560 cpu:               0.8 elap:               0.4
 (Enter /udrive/faculty/rpeverati/g16/g16/l103.exe)

 GradGradGradGradGradGradGradGradGradGradGradGradGradGradGradGradGradGrad
 Berny optimization.
 Optmz: redundant internal coordinate code flag= 1
 Red2BG:  D1=  7.49D-01 OD1=  3.33D-16 B2RMS=  0.00D+00 IAprox=1
 Red2BG is reusing G-inverse.
 Internal  Forces:  Max     0.000025096 RMS     0.000017745
 Search for a saddle point.
 Step number   3 out of a maximum of   50
 All quantities printed in internal units (Hartrees-Bohrs-Radians)
 Swapping is turned off.
 Update second derivatives using D2CorX and points    1    2    3
 The second derivative matrix:
                          R1        R2        A1        A2
           R1           0.15091
           R2          -0.02411   0.15091
           A1           0.00000   0.00000   0.00230
           A2           0.00000   0.00000  -0.00000   0.00230
 ITU=  0  0  0
 Eigenvectors of the second derivative matrix:
                           1         2         3         4
     Eigenvalues --     0.00230   0.00230   0.12680   0.17502
   1         R1        -0.00000  -0.00000   0.70711  -0.70711
   2         R2        -0.00000  -0.00000   0.70711   0.70711
   3         A1        -0.00000  -1.00000  -0.00000  -0.00000
   4         A2         1.00000  -0.00000   0.00000   0.00000
 Eigenvalue     1 is   2.30D-03 should be less than     0.000000 Eigenvector:
                          A2        R1        R2        A1
   1                    1.00000  -0.00000  -0.00000  -0.00000
 RLam0= 2.30D-03.
 Iter=   1 RLamda= 0.00000000D+00 Sum=-9.93402485D-09.
 RFO step:  Lambda0=2.300010000D-03 Lambda= 0.00000000D+00.
 Linear search not attempted -- option 19 set.
 Iteration  1 RMS(Cart)=  0.00021382 RMS(Int)=  0.00000002
 Iteration  2 RMS(Cart)=  0.00000002 RMS(Int)=  0.00000000
 ITry= 1 IFail=0 DXMaxC= 2.64D-04 DCOld= 1.00D+10 DXMaxT= 1.00D-01 DXLimC= 3.00D+00 Rises=F
 ClnCor:  largest displacement from symmetrization is 2.64D-04 for atom     2.
 Variable       Old X    -DE/DX   Delta X   Delta X   Delta X     New X
                                 (Linear)    (Quad)   (Total)
    R1        2.82950   0.00003   0.00000   0.00020   0.00020   2.82969
    R2        2.82950   0.00003   0.00000   0.00020   0.00020   2.82969
    A1        3.14159   0.00000   0.00000   0.00000   0.00000   3.14159
    A2        3.14159  -0.00000   0.00000  -0.00028   0.00000   3.14159
         Item               Value     Threshold  Converged?
 Maximum Force            0.000025     0.000450     YES
 RMS     Force            0.000018     0.000300     YES
 Maximum Displacement     0.000198     0.001800     YES
 RMS     Displacement     0.000140     0.001200     YES
 Predicted change in Energy=-4.967012D-09
 Optimization completed.
    -- Stationary point found.
                           ----------------------------
                           !   Optimized Parameters   !
                           ! (Angstroms and Degrees)  !
 --------------------------                            --------------------------
 ! Name  Definition              Value          Derivative Info.                !
 --------------------------------------------------------------------------------
 ! R1    R(1,2)                  1.4973         -DE/DX =    0.0                 !
 ! R2    R(2,3)                  1.4973         -DE/DX =    0.0                 !
 ! A1    L(1,2,3,-1,-1)        180.0            -DE/DX =    0.0                 !
 ! A2    L(1,2,3,-2,-2)        180.0            -DE/DX =    0.0                 !
 --------------------------------------------------------------------------------
 Lowest energy point so far.  Saving SCF results.
 Largest change from initial coordinates is atom    1       0.012 Angstoms.
 GradGradGradGradGradGradGradGradGradGradGradGradGradGradGradGradGradGrad

 Leave Link  103 at Wed Oct  7 14:32:37 2020, MaxMem=  2684354560 cpu:               0.6 elap:               0.2
 (Enter /udrive/faculty/rpeverati/g16/g16/l202.exe)
                          Input orientation:                          
 ---------------------------------------------------------------------
 Center     Atomic      Atomic             Coordinates (Angstroms)
 Number     Number       Type             X           Y           Z
 ---------------------------------------------------------------------
      1          1           0        0.000000    0.000000    1.497305
      2         17           0        0.000000    0.000000    0.000000
      3          1           0        0.000000    0.000000   -1.497305
 ---------------------------------------------------------------------
                    Distance matrix (angstroms):
                    1          2          3
     1  H    0.000000
     2  Cl   1.497305   0.000000
     3  H    2.994610   1.497305   0.000000
 Stoichiometry    ClH2(2)
 Framework group  D*H[O(Cl),C*(H.H)]
 Deg. of freedom     1
 Full point group                 D*H     NOp   8
 RotChk:  IX=0 Diff= 0.00D+00
 Largest Abelian subgroup         D2H     NOp   8
 Largest concise Abelian subgroup C2      NOp   2
                         Standard orientation:                         
 ---------------------------------------------------------------------
 Center     Atomic      Atomic             Coordinates (Angstroms)
 Number     Number       Type             X           Y           Z
 ---------------------------------------------------------------------
      1          1           0        0.000000    0.000000    1.497305
      2         17           0        0.000000    0.000000    0.000000
      3          1           0        0.000000    0.000000   -1.497305
 ---------------------------------------------------------------------
 Rotational constants (GHZ):           0.0000000         111.8359495         111.8359495
 Leave Link  202 at Wed Oct  7 14:32:38 2020, MaxMem=  2684354560 cpu:               1.2 elap:               0.4
 (Enter /udrive/faculty/rpeverati/g16/g16/l601.exe)
 Copying SCF densities to generalized density rwf, IOpCl= 1 IROHF=0.

 **********************************************************************

            Population analysis using the SCF density.

 **********************************************************************

 Orbital symmetries:
 Alpha Orbitals:
       Occupied  (SGG) (SGG) (SGU) (PIU) (PIU) (SGG) (SGU) (PIU)
                 (PIU) (SGG)
       Virtual   (SGU) (SGG) (PIU) (PIU) (SGU) (SGG) (SGU) (PIG)
                 (PIG) (DLTG) (DLTG) (SGG)
 Beta  Orbitals:
       Occupied  (SGG) (SGG) (SGU) (PIU) (PIU) (SGG) (SGU) (PIU)
                 (PIU)
       Virtual   (SGG) (SGU) (SGG) (PIU) (PIU) (SGU) (SGG) (SGU)
                 (PIG) (PIG) (DLTG) (DLTG) (SGG)
 The electronic state is 2-SGG.
 Alpha  occ. eigenvalues -- -101.72351  -9.55328  -7.28853  -7.27791  -7.27791
 Alpha  occ. eigenvalues --   -0.87306  -0.55314  -0.35570  -0.35570  -0.26400
 Alpha virt. eigenvalues --    0.02647   0.40418   0.44313   0.44313   0.63499
 Alpha virt. eigenvalues --    0.64461   0.72599   0.83761   0.83761   0.86464
 Alpha virt. eigenvalues --    0.86464   1.10200
  Beta  occ. eigenvalues -- -101.72305  -9.55198  -7.29092  -7.27676  -7.27676
  Beta  occ. eigenvalues --   -0.86353  -0.50836  -0.34922  -0.34922
  Beta virt. eigenvalues --   -0.09621   0.09783   0.40416   0.44848   0.44848
  Beta virt. eigenvalues --    0.64071   0.70036   0.82077   0.83011   0.83011
  Beta virt. eigenvalues --    0.87425   0.87425   1.14558
          Condensed to atoms (all electrons):
               1          2          3
     1  H    0.891051  -0.053456   0.025989
     2  Cl  -0.053456  17.379743  -0.053456
     3  H    0.025989  -0.053456   0.891051
          Atomic-Atomic Spin Densities.
               1          2          3
     1  H    0.768147  -0.228774   0.027367
     2  Cl  -0.228774   0.324069  -0.228774
     3  H    0.027367  -0.228774   0.768147
 Mulliken charges and spin densities:
               1          2
     1  H    0.136416   0.566740
     2  Cl  -0.272832  -0.133479
     3  H    0.136416   0.566740
 Sum of Mulliken charges =  -0.00000   1.00000
 Mulliken charges and spin densities with hydrogens summed into heavy atoms:
               1          2
     2  Cl  -0.000000   1.000000
 Electronic spatial extent (au):  <R**2>=             47.3995
 Charge=             -0.0000 electrons
 Dipole moment (field-independent basis, Debye):
    X=              0.0000    Y=              0.0000    Z=             -0.0000  Tot=              0.0000
 Quadrupole moment (field-independent basis, Debye-Ang):
   XX=            -15.2115   YY=            -15.2115   ZZ=            -11.7941
   XY=             -0.0000   XZ=             -0.0000   YZ=              0.0000
 Traceless Quadrupole moment (field-independent basis, Debye-Ang):
   XX=             -1.1391   YY=             -1.1391   ZZ=              2.2782
   XY=             -0.0000   XZ=             -0.0000   YZ=              0.0000
 Octapole moment (field-independent basis, Debye-Ang**2):
  XXX=             -0.0000  YYY=              0.0000  ZZZ=             -0.0000  XYY=             -0.0000
  XXY=             -0.0000  XXZ=             -0.0000  XZZ=             -0.0000  YZZ=              0.0000
  YYZ=             -0.0000  XYZ=             -0.0000
 Hexadecapole moment (field-independent basis, Debye-Ang**3):
 XXXX=            -16.8782 YYYY=            -16.8782 ZZZZ=            -38.6206 XXXY=             -0.0000
 XXXZ=              0.0000 YYYX=             -0.0000 YYYZ=              0.0000 ZZZX=              0.0000
 ZZZY=              0.0000 XXYY=             -5.6261 XXZZ=             -9.6937 YYZZ=             -9.6937
 XXYZ=              0.0000 YYXZ=              0.0000 ZZXY=             -0.0000
 N-N= 1.219240914495D+01 E-N=-1.121033678079D+03  KE= 4.605171271551D+02
                          Isotropic Fermi Contact Couplings
        Atom                 a.u.       MegaHertz       Gauss      10(-4) cm-1
     1  H(1)               0.19313     863.28522     308.04163     287.96095
     2  Cl(35)             1.34276     588.75224     210.08144     196.38661
     3  H(1)               0.19313     863.28522     308.04163     287.96095
 --------------------------------------------------------
       Center         ----  Spin Dipole Couplings  ----
                      3XX-RR        3YY-RR        3ZZ-RR
 --------------------------------------------------------
     1   Atom        0.006370      0.006370     -0.012741
     2   Atom        0.501435      0.501435     -1.002870
     3   Atom        0.006370      0.006370     -0.012741
 --------------------------------------------------------
                        XY            XZ            YZ
 --------------------------------------------------------
     1   Atom        0.000000     -0.000000      0.000000
     2   Atom        0.000000      0.000000      0.000000
     3   Atom        0.000000      0.000000      0.000000
 --------------------------------------------------------


 ---------------------------------------------------------------------------------
              Anisotropic Spin Dipole Couplings in Principal Axis System
 ---------------------------------------------------------------------------------

       Atom             a.u.   MegaHertz   Gauss  10(-4) cm-1        Axes

              Baa    -0.0127    -6.798    -2.426    -2.268  0.0000  0.0000  1.0000
     1 H(1)   Bbb     0.0064     3.399     1.213     1.134  0.0000  1.0000  0.0000
              Bcc     0.0064     3.399     1.213     1.134  1.0000  0.0000 -0.0000
 
              Baa    -1.0029   -52.488   -18.729   -17.508 -0.0000  0.0000  1.0000
     2 Cl(35) Bbb     0.5014    26.244     9.364     8.754  0.0000  1.0000  0.0000
              Bcc     0.5014    26.244     9.364     8.754  1.0000  0.0000  0.0000
 
              Baa    -0.0127    -6.798    -2.426    -2.268 -0.0000  0.0000  1.0000
     3 H(1)   Bbb     0.0064     3.399     1.213     1.134  0.0000  1.0000  0.0000
              Bcc     0.0064     3.399     1.213     1.134  1.0000  0.0000  0.0000
 

 ---------------------------------------------------------------------------------

 No NMR shielding tensors so no spin-rotation constants.
 Leave Link  601 at Wed Oct  7 14:32:39 2020, MaxMem=  2684354560 cpu:               5.3 elap:               0.8
 (Enter /udrive/faculty/rpeverati/g16/g16/l9999.exe)

 Test job not archived.
 1\1\GINC-NODE23\FTS\UPBE1PBE\6-31G(d)\Cl1H2(2)\RPEVERATI\07-Oct-2020\0
 \\#P Opt(TS,MaxCyc=50,NoEigenTest,MaxStep=10,AddRedundant) PBE1PBE/6-3
 1G* 5D 7F Integral=UltraFineGrid SCF=(NoSymm,XQC,MaxCyc=120) Empirical
 Dispersion=GD3BJ IOp(1/33=1)\\TS search on BH76.\\0,2\H,0.,0.,1.497305
 1408\Cl,0.,0.,0.\H,0.,0.,-1.4973051408\\Version=ES64L-G16RevA.03\State
 =2-SGG\HF=-461.0973286\S2=0.768217\S2-1=0.\S2A=0.750013\RMSD=3.123e-09
 \RMSF=1.183e-05\Dipole=0.,0.,0.\Quadrupole=-0.8469029,-0.8469029,1.693
[...]
     1   Atom        0.000000     -0.000000      0.000000
     2   Atom        0.000000      0.000000      0.000000
     3   Atom        0.000000      0.000000      0.000000
 --------------------------------------------------------


 ---------------------------------------------------------------------------------
              Anisotropic Spin Dipole Couplings in Principal Axis System
 ---------------------------------------------------------------------------------

       Atom             a.u.   MegaHertz   Gauss  10(-4) cm-1        Axes

              Baa    -0.0127    -6.798    -2.426    -2.268  0.0000  0.0000  1.0000
     1 H(1)   Bbb     0.0064     3.399     1.213     1.134  0.0000  1.0000  0.0000
              Bcc     0.0064     3.399     1.213     1.134  1.0000  0.0000 -0.0000
 
              Baa    -1.0029   -52.488   -18.729   -17.508 -0.0000  0.0000  1.0000
     2 Cl(35) Bbb     0.5014    26.244     9.364     8.754  1.0000  0.0025  0.0000
              Bcc     0.5014    26.244     9.364     8.754 -0.0025  1.0000 -0.0000
 
              Baa    -0.0127    -6.798    -2.426    -2.268 -0.0000  0.0000  1.0000
     3 H(1)   Bbb     0.0064     3.399     1.213     1.134  0.0000  1.0000  0.0000
              Bcc     0.0064     3.399     1.213     1.134  1.0000  0.0000  0.0000
 

 ---------------------------------------------------------------------------------

 No NMR shielding tensors so no spin-rotation constants.
 Leave Link  601 at Wed Oct  7 14:32:53 2020, MaxMem=  2684354560 cpu:               5.8 elap:               0.9
 (Enter /udrive/faculty/rpeverati/g16/g16/l701.exe)
 ... and contract with generalized density number  0.
 Compute integral second derivatives.
 R6Disp: Adding Grimme-D3(BJ) dispersion energy 2nd derivatives to the Hessian.
 Leave Link  701 at Wed Oct  7 14:32:54 2020, MaxMem=  2684354560 cpu:               4.2 elap:               0.7
 (Enter /udrive/faculty/rpeverati/g16/g16/l702.exe)
 L702 exits ... SP integral derivatives will be done elsewhere.
 Leave Link  702 at Wed Oct  7 14:32:55 2020, MaxMem=  2684354560 cpu:               1.1 elap:               0.3
 (Enter /udrive/faculty/rpeverati/g16/g16/l703.exe)
 Integral derivatives from FoFJK, PRISM(SPDF).
 Compute integral second derivatives, UseDBF=F ICtDFT=           0.
 Calling FoFJK, ICntrl=    100127 FMM=F ISym2X=1 I1Cent= 0 IOpClX= 1 NMat=1 NMatS=1 NMatT=0.
 FoFJK:  IHMeth= 1 ICntrl=  100127 DoSepK=F KAlg= 0 I1Cent=           0 FoldK=F
 IRaf=         0 NMat=       1 IRICut=       1 DoRegI=T DoRafI=F ISym2E= 1 IDoP0=0 IntGTp=1.
 FoFCou: FMM=F IPFlag=           0 FMFlag=      100000 FMFlg1=         800
         NFxFlg=           0 DoJE=F BraDBF=F KetDBF=F FulRan=T
         wScrn=  0.000000 ICntrl=    100127 IOpCl=  1 I1Cent=           0 NGrid=           0
         NMat0=    1 NMatS0=      1 NMatT0=    0 NMatD0=    1 NMtDS0=    0 NMtDT0=    0
 Petite list used in FoFCou.
 Leave Link  703 at Wed Oct  7 14:32:56 2020, MaxMem=  2684354560 cpu:              10.3 elap:               1.1
 (Enter /udrive/faculty/rpeverati/g16/g16/l716.exe)
 Dipole        = 4.68956410D-17 3.89918790D-32 0.00000000D+00
 Polarizability= 6.30291757D+00 1.16275245D-14 6.30291757D+00
                -2.67787690D-15-1.03517263D-14 3.82620413D+01
 Full mass-weighted force constant matrix:
 Low frequencies ----1365.4389  -31.7520  -31.7520   -0.0100   -0.0100   -0.0069
 Low frequencies ---  311.8671  311.8671 1816.1608
 ******    1 imaginary frequencies (negative Signs) ****** 
 Diagonal vibrational polarizability:
       12.6894952      12.6894952      16.5376039
 Harmonic frequencies (cm**-1), IR intensities (KM/Mole), Raman scattering
 activities (A**4/AMU), depolarization ratios for plane and unpolarized
 incident light, reduced masses (AMU), force constants (mDyne/A),
 and normal coordinates:
                      1                      2                      3
                     SGU                    PIU                    PIU
 Frequencies --  -1365.4389               311.8671               311.8671
 Red. masses --      1.0641                 1.0641                 1.0641
 Frc consts  --      1.1690                 0.0610                 0.0610
 IR Inten    --   1145.7346                45.8617                45.8617
  Atom  AN      X      Y      Z        X      Y      Z        X      Y      Z
     1   1     0.00  -0.00   0.71    -0.00   0.71  -0.00     0.71   0.00  -0.00
     2  17    -0.00   0.00  -0.04     0.00  -0.04  -0.00    -0.04  -0.00   0.00
     3   1     0.00  -0.00   0.71    -0.00   0.71   0.00     0.71   0.00  -0.00
                      4
                     SGG
 Frequencies --   1816.1608
 Red. masses --      1.0078
 Frc consts  --      1.9586
 IR Inten    --      0.0000
  Atom  AN      X      Y      Z
     1   1    -0.00   0.00   0.71
     2  17     0.00  -0.00  -0.00
     3   1    -0.00   0.00  -0.71

 -------------------
 - Thermochemistry -
 -------------------
 Temperature   298.150 Kelvin.  Pressure   1.00000 Atm.
 Atom     1 has atomic number  1 and mass   1.00783
 Atom     2 has atomic number 17 and mass  34.96885
 Atom     3 has atomic number  1 and mass   1.00783
 Molecular mass:    36.98450 amu.
 Principal axes and moments of inertia in atomic units:
                           1         2         3
     Eigenvalues --     0.00000  16.13740  16.13740
           X           -0.00000   1.00000   0.00000
           Y            0.00000   0.00000   1.00000
           Z            1.00000   0.00000   0.00000
 This molecule is a prolate symmetric top.
 Rotational symmetry number  2.
 Rotational temperature (Kelvin)      5.36728
 Rotational constant (GHZ):         111.835950
    1 imaginary frequencies ignored.
 Zero-point vibrational energy      14593.8 (Joules/Mol)
                                    3.48800 (Kcal/Mol)
 Warning -- explicit consideration of   2 degrees of freedom as
           vibrations may cause significant error
 Vibrational temperatures:    448.71   448.71  2613.05
          (Kelvin)
 
 Zero-point correction=                           0.005558 (Hartree/Particle)
 Thermal correction to Energy=                    0.008731
 Thermal correction to Enthalpy=                  0.009675
 Thermal correction to Gibbs Free Energy=        -0.013811
 Sum of electronic and zero-point Energies=           -461.091770
 Sum of electronic and thermal Energies=              -461.088597
 Sum of electronic and thermal Enthalpies=            -461.087653
 Sum of electronic and thermal Free Energies=         -461.111139
 
                     E (Thermal)             CV                S
                      KCal/Mol        Cal/Mol-Kelvin    Cal/Mol-Kelvin
 Total                    5.479              8.294             49.431
 Electronic               0.000              0.000              1.377
 Translational            0.889              2.981             36.753
 Rotational               0.592              1.987              8.593
 Vibrational              3.998              3.326              2.708
 Vibration     1          0.700              1.651              1.352
 Vibration     2          0.700              1.651              1.352
                       Q            Log10(Q)             Ln(Q)
 Total Bot       0.225203D+07          6.352574         14.627342
 Total V=0       0.811520D+09          8.909299         20.514420
 Vib (Bot)       0.458574D-02         -2.338590         -5.384803
 Vib (Bot)    1  0.605666D+00         -0.217767         -0.501426
 Vib (Bot)    2  0.605666D+00         -0.217767         -0.501426
 Vib (V=0)       0.165248D+01          0.218135          0.502275
 Vib (V=0)    1  0.128539D+01          0.109034          0.251059
 Vib (V=0)    2  0.128539D+01          0.109034          0.251059
 Electronic      0.200000D+01          0.301030          0.693147
 Translational   0.884064D+07          6.946484         15.994869
 Rotational      0.277748D+02          1.443651          3.324128
 
                                                          TS search on BH76.
                                                             IR Spectrum
 
     1                                                                                                                               
     8                                                                                                         3                     
     1                                                                                                         1                     
     6                                                                                                         2                     
 
                                                                                                               X                     
                                                                                                               X                     
                                                                                                               X                     
                                                                                                               X                     
                                                                                                               X                     
                                                                                                               X                     
                                                                                                               X                     
                                                                                                               X                     
                                                                                                               X                     
                                                                                                               X                     
                                                                                                               X                     
                                                                                                               X                     
                                                                                                               X                     
                                                                                                               X                     
                                                                                                               X                     
                                                                                                               X                     
                                                                                                               X                     
                                                                                                               X                     
                                                                                                               X                     
                                                                                                               X                     
 
 ***** Axes restored to original set *****
 -------------------------------------------------------------------
 Center     Atomic                   Forces (Hartrees/Bohr)
 Number     Number              X              Y              Z
 -------------------------------------------------------------------
      1        1           0.000000000   -0.000000000    0.000025096
      2       17           0.000000000    0.000000000    0.000000000
      3        1          -0.000000000   -0.000000000   -0.000025096
 -------------------------------------------------------------------
 Cartesian Forces:  Max     0.000025096 RMS     0.000011830
 Force constants in Cartesian coordinates: 
                1             2             3             4             5 
      1  0.173444D-02
      2  0.000000D+00  0.173444D-02
      3  0.000000D+00  0.000000D+00  0.292841D-01
      4 -0.350733D-02  0.000000D+00  0.000000D+00  0.701467D-02
      5  0.000000D+00 -0.350733D-02  0.000000D+00  0.000000D+00  0.701467D-02
      6  0.000000D+00  0.000000D+00  0.672330D-01  0.000000D+00  0.000000D+00
      7  0.177289D-02  0.000000D+00  0.000000D+00 -0.350733D-02  0.000000D+00
      8  0.000000D+00  0.177289D-02  0.000000D+00  0.000000D+00 -0.350733D-02
      9  0.000000D+00  0.000000D+00 -0.965172D-01  0.000000D+00  0.000000D+00
                6             7             8             9 
      6 -0.134466D+00
      7  0.000000D+00  0.173444D-02
      8  0.000000D+00  0.000000D+00  0.173444D-02
      9  0.672330D-01  0.000000D+00  0.000000D+00  0.292841D-01
 FormGI is forming the generalized inverse of G from B-inverse, IUseBI=4.
 Force constants in internal coordinates: 
                1             2             3             4 
      1  0.292841D-01
      2  0.965172D-01  0.292841D-01
      3  0.000000D+00  0.000000D+00  0.140755D-01
      4  0.000000D+00  0.000000D+00  0.000000D+00  0.140755D-01
 Leave Link  716 at Wed Oct  7 14:32:57 2020, MaxMem=  2684354560 cpu:               0.9 elap:               0.3
 (Enter /udrive/faculty/rpeverati/g16/g16/l103.exe)

 GradGradGradGradGradGradGradGradGradGradGradGradGradGradGradGradGradGrad
 Berny optimization.
 Optmz: redundant internal coordinate code flag= 1
 Red2BG:  D1=  7.49D-01 OD1=  3.33D-16 B2RMS=  0.00D+00 IAprox=1
 Red2BG is reusing G-inverse.
 Internal  Forces:  Max     0.000025096 RMS     0.000017746
 Search for a local minimum.
 Step number   1 out of a maximum of    2
 All quantities printed in internal units (Hartrees-Bohrs-Radians)
 Second derivative matrix not updated -- analytic derivatives used.
 The second derivative matrix:
                          R1        R2        A1        A2
           R1           0.02928
           R2           0.09652   0.02928
           A1          -0.00000  -0.00000   0.01408
           A2          -0.00000   0.00000  -0.00000   0.01408
 ITU=  0
 Eigenvectors of the second derivative matrix:
                           1         2         3         4
     Eigenvalues --    -0.06723   0.01408   0.01408   0.12580
   1         R1        -0.70711  -0.00000  -0.00000   0.70711
   2         R2         0.70711  -0.00000   0.00000   0.70711
   3         A1        -0.00000  -1.00000  -0.00037  -0.00000
   4         A2        -0.00000  -0.00037   1.00000   0.00000
 Eigenvalue     1 is  -6.72D-02 should be greater than     0.000000 Eigenvector:
                          R2        R1        A1        A2
   1                    0.70711  -0.70711  -0.00000  -0.00000
 Angle between quadratic step and forces=   0.00 degrees.
 Linear search not attempted -- first point.
 Iteration  1 RMS(Cart)=  0.00014106 RMS(Int)=  0.00000000
 Iteration  2 RMS(Cart)=  0.00000000 RMS(Int)=  0.00000000
 ITry= 1 IFail=0 DXMaxC= 1.99D-04 DCOld= 1.00D+10 DXMaxT= 3.00D-01 DXLimC= 3.00D+00 Rises=F
 ClnCor:  largest displacement from symmetrization is 1.03D-13 for atom     2.
 Variable       Old X    -DE/DX   Delta X   Delta X   Delta X     New X
                                 (Linear)    (Quad)   (Total)
    R1        2.82950   0.00003   0.00000   0.00020   0.00020   2.82970
    R2        2.82950   0.00003   0.00000   0.00020   0.00020   2.82970
    A1        3.14159   0.00000   0.00000   0.00000   0.00000   3.14159
    A2        3.14159  -0.00000   0.00000  -0.00000   0.00000   3.14159
         Item               Value     Threshold  Converged?
 Maximum Force            0.000025     0.000450     YES
 RMS     Force            0.000018     0.000300     YES
 Maximum Displacement     0.000199     0.001800     YES
 RMS     Displacement     0.000141     0.001200     YES
 Predicted change in Energy=-5.006369D-09
 Optimization completed.
    -- Stationary point found.
                           ----------------------------
                           !   Optimized Parameters   !
                           ! (Angstroms and Degrees)  !
 --------------------------                            --------------------------
 ! Name  Definition              Value          Derivative Info.                !
 --------------------------------------------------------------------------------
 ! R1    R(1,2)                  1.4973         -DE/DX =    0.0                 !
 ! R2    R(2,3)                  1.4973         -DE/DX =    0.0                 !
 ! A1    L(1,2,3,-1,-1)        180.0            -DE/DX =    0.0                 !
 ! A2    L(1,2,3,-2,-2)        180.0            -DE/DX =    0.0                 !
 --------------------------------------------------------------------------------
 GradGradGradGradGradGradGradGradGradGradGradGradGradGradGradGradGradGrad

 Leave Link  103 at Wed Oct  7 14:32:57 2020, MaxMem=  2684354560 cpu:               1.2 elap:               0.3
 (Enter /udrive/faculty/rpeverati/g16/g16/l9999.exe)
 Dipole is zero, so no output in dipole orientation.

 ----------------------------------------------------------------------

 Electric dipole moment (input orientation):
 (Debye = 10**-18 statcoulomb cm , SI units = C m)
                  (au)            (Debye)         (10**-30 SI)
   Tot        0.000000D+00      0.000000D+00      0.000000D+00
   x          0.000000D+00      0.000000D+00      0.000000D+00
   y          0.000000D+00      0.000000D+00      0.000000D+00
   z          0.000000D+00      0.000000D+00      0.000000D+00

 Dipole polarizability, Alpha (input orientation).
 (esu units = cm**3 , SI units = C**2 m**2 J**-1)
 Alpha(0;0):
               (au)            (10**-24 esu)      (10**-40 SI)
   iso        0.169560D+02      0.251261D+01      0.279566D+01
   aniso      0.319591D+02      0.473585D+01      0.526935D+01
   xx         0.630292D+01      0.933996D+00      0.103921D+01
   yx         0.000000D+00      0.000000D+00      0.000000D+00
   yy         0.630292D+01      0.933996D+00      0.103921D+01
   zx         0.000000D+00      0.000000D+00      0.000000D+00
   zy         0.000000D+00      0.000000D+00      0.000000D+00
   zz         0.382620D+02      0.566985D+01      0.630856D+01

 ----------------------------------------------------------------------

 Test job not archived.
 1\1\GINC-NODE23\Freq\UPBE1PBE\6-31G(d)\Cl1H2(2)\RPEVERATI\07-Oct-2020\
 0\\#P Freq PBE1PBE/6-31G* 5D 7F Integral=UltraFineGrid SCF=(NoSymm,XQC
 ,MaxCyc=120) EmpiricalDispersion=GD3BJ IOp(1/33=1) Geom=Check Guess=Re
 ad\\TS search on BH76.\\0,2\H,0.,0.,1.4973051408\Cl,0.,0.,0.\H,0.,0.,-
 1.4973051408\\Version=ES64L-G16RevA.03\State=2-SGG\HF=-461.0973286\S2=
 0.768217\S2-1=0.\S2A=0.750013\RMSD=3.067e-10\RMSF=1.183e-05\ZeroPoint=
 0.0055585\Thermal=0.0087313\Dipole=0.,0.,0.\DipoleDeriv=0.1497124,0.,0
 .,0.,0.1497124,0.,0.,0.,-0.7482983,-0.2994249,0.,0.,0.,-0.2994249,0.,0
 .,0.,1.4965966,0.1497124,0.,0.,0.,0.1497124,0.,0.,0.,-0.7482983\Polar=
 6.3029176,0.,6.3029176,0.,0.,38.2620413\Quadrupole=-0.8469029,-0.84690
 29,1.6938057,0.,0.,0.\PG=D*H [O(Cl1),C*(H1.H1)]\NImag=1\\0.00173444,0.
 ,0.00173444,0.,0.,0.02928413,-0.00350733,0.,0.,0.00701467,0.,-0.003507
 33,0.,0.,0.00701467,0.,0.,0.06723304,0.,0.,-0.13446608,0.00177289,0.,0
 .,-0.00350733,0.,0.,0.00173444,0.,0.00177289,0.,0.,-0.00350733,0.,0.,0
 .00173444,0.,0.,-0.09651717,0.,0.,0.06723304,0.,0.,0.02928413\\0.,0.,-
 0.00002510,0.,0.,0.,0.,0.,0.00002510\\\@


 WHEN YOU REACH FOR THE STARS, YOU MAY NOT QUITE GET ONE,
 BUT YOU WON'T COME UP WITH A HANDFUL OF MUD, EITHER.

                                         -- LEO BURNETT (AD AGENCY HEAD)
 Job cpu time:       0 days  0 hours  1 minutes 20.0 seconds.
 Elapsed time:       0 days  0 hours  0 minutes 13.3 seconds.
 File lengths (MBytes):  RWF=      5 Int=      0 D2E=      0 Chk=      1 Scr=      1
 Normal termination of Gaussian 16 at Wed Oct  7 14:32:58 2020.
