 Entering Gaussian System, Link 0=g16
 Input=MN_51_hcots_BH76_PBE0DBJ_631Gs.in
 Output=MN_51_hcots_BH76_PBE0DBJ_631Gs.log
 Initial command:
 /udrive/faculty/rpeverati/g16/g16/l1.exe "/udrive/scratch-directories/gaussian09/rpeverati/Gau-2689.inp" -scrdir="/udrive/scratch-directories/gaussian09/rpeverati/"
 Entering Link 1 = /udrive/faculty/rpeverati/g16/g16/l1.exe PID=      2690.
  
 Copyright (c) 1988,1990,1992,1993,1995,1998,2003,2009,2016,
            Gaussian, Inc.  All Rights Reserved.
  
 This is part of the Gaussian(R) 16 program.  It is based on
 the Gaussian(R) 09 system (copyright 2009, Gaussian, Inc.),
 the Gaussian(R) 03 system (copyright 2003, Gaussian, Inc.),
 the Gaussian(R) 98 system (copyright 1998, Gaussian, Inc.),
 the Gaussian(R) 94 system (copyright 1995, Gaussian, Inc.),
 the Gaussian 92(TM) system (copyright 1992, Gaussian, Inc.),
 the Gaussian 90(TM) system (copyright 1990, Gaussian, Inc.),
 the Gaussian 88(TM) system (copyright 1988, Gaussian, Inc.),
 the Gaussian 86(TM) system (copyright 1986, Carnegie Mellon
 University), and the Gaussian 82(TM) system (copyright 1983,
 Carnegie Mellon University). Gaussian is a federally registered
 trademark of Gaussian, Inc.
  
 This software contains proprietary and confidential information,
 including trade secrets, belonging to Gaussian, Inc.
  
 This software is provided under written license and may be
 used, copied, transmitted, or stored only in accord with that
 written license.
  
 The following legend is applicable only to US Government
 contracts under FAR:
  
                    RESTRICTED RIGHTS LEGEND
  
 Use, reproduction and disclosure by the US Government is
 subject to restrictions as set forth in subparagraphs (a)
 and (c) of the Commercial Computer Software - Restricted
 Rights clause in FAR 52.227-19.
  
 Gaussian, Inc.
 340 Quinnipiac St., Bldg. 40, Wallingford CT 06492
  
  
 ---------------------------------------------------------------
 Warning -- This program may not be used in any manner that
 competes with the business of Gaussian, Inc. or will provide
 assistance to any competitor of Gaussian, Inc.  The licensee
 of this program is prohibited from giving any competitor of
 Gaussian, Inc. access to this program.  By using this program,
 the user acknowledges that Gaussian, Inc. is engaged in the
 business of creating and licensing software in the field of
 computational chemistry and represents and warrants to the
 licensee that it is not a competitor of Gaussian, Inc. and that
 it will not use this program in any manner prohibited above.
 ---------------------------------------------------------------
  

 Cite this work as:
 Gaussian 16, Revision A.03,
 M. J. Frisch, G. W. Trucks, H. B. Schlegel, G. E. Scuseria, 
 M. A. Robb, J. R. Cheeseman, G. Scalmani, V. Barone, 
 G. A. Petersson, H. Nakatsuji, X. Li, M. Caricato, A. V. Marenich, 
 J. Bloino, B. G. Janesko, R. Gomperts, B. Mennucci, H. P. Hratchian, 
 J. V. Ortiz, A. F. Izmaylov, J. L. Sonnenberg, D. Williams-Young, 
 F. Ding, F. Lipparini, F. Egidi, J. Goings, B. Peng, A. Petrone, 
 T. Henderson, D. Ranasinghe, V. G. Zakrzewski, J. Gao, N. Rega, 
 G. Zheng, W. Liang, M. Hada, M. Ehara, K. Toyota, R. Fukuda, 
 J. Hasegawa, M. Ishida, T. Nakajima, Y. Honda, O. Kitao, H. Nakai, 
 T. Vreven, K. Throssell, J. A. Montgomery, Jr., J. E. Peralta, 
 F. Ogliaro, M. J. Bearpark, J. J. Heyd, E. N. Brothers, K. N. Kudin, 
 V. N. Staroverov, T. A. Keith, R. Kobayashi, J. Normand, 
 K. Raghavachari, A. P. Rendell, J. C. Burant, S. S. Iyengar, 
 J. Tomasi, M. Cossi, J. M. Millam, M. Klene, C. Adamo, R. Cammi, 
 J. W. Ochterski, R. L. Martin, K. Morokuma, O. Farkas, 
 J. B. Foresman, and D. J. Fox, Gaussian, Inc., Wallingford CT, 2016.
 
 ******************************************
 Gaussian 16:  ES64L-G16RevA.03 25-Dec-2016
                 7-Oct-2020 
 ******************************************
 %NoSave
 %nproc=12
 Will use up to   12 processors via shared memory.
 %mem=20GB
 %chk=MN_51_hcots_BH76_PBE0DBJ_631Gs
 ----------------------------------------------------------------------
 #P Opt(TS,MaxCyc=50,NoEigenTest,MaxStep=10,AddRedundant) PBE1PBE/6-31G
 * 5D 7F Integral=UltraFineGrid SCF=(NoSymm,XQC,MaxCyc=120) EmpiricalDi
 spersion=GD3BJ IOp(1/33=1)
 ----------------------------------------------------------------------
 1/5=1,6=50,8=10,11=1,18=120,26=4,33=1,38=1/1,3;
 2/9=110,12=2,17=6,18=5,40=1/2;
 3/5=1,6=6,7=1,8=11,11=2,25=1,30=1,71=1,74=-13,75=-5,124=41/1,2,3;
 4/9=2/1;
 5/5=2,7=120,8=3,13=1,38=5/2,8;
 6/7=2,8=2,9=2,10=2,28=1/1;
 7//1,2,3,16;
 1/5=1,6=50,8=10,11=1,18=20,26=4,33=1/3(2);
 2/9=110/2;
 99//99;
 2/9=110/2;
 3/5=1,6=6,7=1,8=11,11=2,25=1,30=1,71=1,74=-13,75=-5,124=41/1,2,3;
 4/5=5,9=2,16=3,69=1/1;
 5/5=2,7=120,8=3,13=1,38=5/2,8;
 7//1,2,3,16;
 1/5=1,6=50,8=10,11=1,18=20,26=4,33=1/3(-5);
 2/9=110/2;
 6/7=2,8=2,9=2,10=2,19=2,28=1/1;
 99/9=1/99;
 Leave Link    1 at Wed Oct  7 14:32:08 2020, MaxMem=  2684354560 cpu:              13.2 elap:               1.4
 (Enter /udrive/faculty/rpeverati/g16/g16/l101.exe)
 ONIOM data not found on unit 2.
 ------------------
 TS search on BH76.
 ------------------
 TstMul:  ICh=     0
 TstMul:  Mul=     2
 TstMul:  ICh=     0
 TstMul:  Mul=     2
 Symbolic Z-matrix:
 Charge =  0 Multiplicity = 2
 c
 o                    1    oc2
 h                    1    hc3      2    hco3
       Variables:
  oc2                   1.12985                  
  hc3                   1.84662                  
  hco3                114.804                    
 
 RdStrC is calling ZToCFu for IStruc=1 NZ=     3.
 PrtBox:  NBox=     1 Levels=  1 BoxLen=    8.00 SMaxX=        3.60
          Shift=            0.000000            0.000000            1.463947
 Box      1 Number                   0 centers from      1 to      3:
 After GenITR:
 ITRead=  0  0  0
 MicOpt= -1 -1 -1
 Add virtual bond connecting atoms H3         and C1         Dist= 3.49D+00.
 The following ModRedundant input section has been read:
 B       1       2 D                                                           
 B       1       3 D                                                           
 
 ITRead=  0  0  0
 MicOpt= -1 -1 -1
 NAtoms=      3 NQM=        3 NQMF=       0 NMMI=      0 NMMIF=      0
                NMic=       0 NMicF=      0.
                    Isotopes and Nuclear Properties:
 (Nuclear quadrupole moments (NQMom) in fm**2, nuclear magnetic moments (NMagM)
  in nuclear magnetons)

  Atom         1           2           3
 IAtWgt=          12          16           1
 AtmWgt=  12.0000000  15.9949146   1.0078250
 NucSpn=           0           0           1
 AtZEff=   0.0000000   0.0000000   0.0000000
 NQMom=    0.0000000   0.0000000   0.0000000
 NMagM=    0.0000000   0.0000000   2.7928460
 AtZNuc=   6.0000000   8.0000000   1.0000000
 No MM parameters found.
 Leave Link  101 at Wed Oct  7 14:32:09 2020, MaxMem=  2684354560 cpu:              12.9 elap:               1.2
 (Enter /udrive/faculty/rpeverati/g16/g16/l103.exe)

 GradGradGradGradGradGradGradGradGradGradGradGradGradGradGradGradGradGrad
 Berny optimization.
 Optmz: redundant internal coordinate code flag= 1
 Initialization pass.
                           ----------------------------
                           !    Initial Parameters    !
                           ! (Angstroms and Degrees)  !
 --------------------------                            --------------------------
 ! Name  Definition              Value          Derivative Info.                !
 --------------------------------------------------------------------------------
 ! R1    R(1,2)                  1.1298         calc D2E/DXDY, step=    0.0026  !
 ! R2    R(1,3)                  1.8466         calc D2E/DXDY, step=    0.0026  !
 ! A1    A(2,1,3)              114.804          estimate D2E/DX2                !
 --------------------------------------------------------------------------------
 Maximum allowed force set to 1.00D+20.
 Trust Radius=1.00D-01 FncErr=1.00D-07 GrdErr=1.00D-06 EigMax=2.50D+02 EigMin=1.00D-04
 Number of steps in this run=     50 maximum allowed number of steps=    100.
 Search for a saddle point of order  1.
 GradGradGradGradGradGradGradGradGradGradGradGradGradGradGradGradGradGrad

 Leave Link  103 at Wed Oct  7 14:32:10 2020, MaxMem=  2684354560 cpu:               1.2 elap:               0.5
 (Enter /udrive/faculty/rpeverati/g16/g16/l202.exe)
                          Input orientation:                          
 ---------------------------------------------------------------------
 Center     Atomic      Atomic             Coordinates (Angstroms)
 Number     Number       Type             X           Y           Z
 ---------------------------------------------------------------------
      1          6           0        0.000000    0.000000    0.000000
      2          8           0        0.000000    0.000000    1.129848
      3          1           0        1.676270    0.000000   -0.774687
 ---------------------------------------------------------------------
                    Distance matrix (angstroms):
                    1          2          3
     1  C    0.000000
     2  O    1.129848   0.000000
     3  H    1.846624   2.537151   0.000000
 Stoichiometry    CHO(2)
 Framework group  CS[SG(CHO)]
 Deg. of freedom     3
 Full point group                 CS      NOp   2
 Largest Abelian subgroup         CS      NOp   2
 Largest concise Abelian subgroup C1      NOp   1
                         Standard orientation:                         
 ---------------------------------------------------------------------
 Center     Atomic      Atomic             Coordinates (Angstroms)
 Number     Number       Type             X           Y           Z
 ---------------------------------------------------------------------
      1          6           0        0.111751    0.550940    0.000000
      2          8           0        0.111751   -0.578908   -0.000000
      3          1           0       -1.564518    1.325627   -0.000000
 ---------------------------------------------------------------------
 Rotational constants (GHZ):         239.5034914          44.5743973          37.5802700
 Leave Link  202 at Wed Oct  7 14:32:11 2020, MaxMem=  2684354560 cpu:               1.6 elap:               0.4
 (Enter /udrive/faculty/rpeverati/g16/g16/l301.exe)
 Standard basis: 6-31G(d) (5D, 7F)
 Ernie: Thresh=  0.10000D-02 Tol=  0.10000D-05 Strict=F.
 There are    24 symmetry adapted cartesian basis functions of A'  symmetry.
 There are     8 symmetry adapted cartesian basis functions of A"  symmetry.
 There are    22 symmetry adapted basis functions of A'  symmetry.
 There are     8 symmetry adapted basis functions of A"  symmetry.
    30 basis functions,    60 primitive gaussians,    32 cartesian basis functions
     8 alpha electrons        7 beta electrons
       nuclear repulsion energy        25.8693076323 Hartrees.
 IExCor= 1009 DFT=T Ex+Corr=PBE1PBE ExCW=0 ScaHFX=  0.250000
 ScaDFX=  0.750000  0.750000  1.000000  1.000000 ScalE2=  1.000000  1.000000
 IRadAn=      5 IRanWt=     -1 IRanGd=            0 ICorTp=0 IEmpDi=141
 NAtoms=    3 NActive=    3 NUniq=    3 SFac= 1.00D+00 NAtFMM=   60 NAOKFM=F Big=F
 Integral buffers will be    131072 words long.
 Raffenetti 2 integral format.
 Two-electron integral symmetry is turned on.
 R6Disp:  Grimme-D3(BJ) Dispersion energy=       -0.0007960601 Hartrees.
 Nuclear repulsion after empirical dispersion term =       25.8685115722 Hartrees.
 Leave Link  301 at Wed Oct  7 14:32:11 2020, MaxMem=  2684354560 cpu:               2.2 elap:               0.6
 (Enter /udrive/faculty/rpeverati/g16/g16/l302.exe)
 NPDir=0 NMtPBC=     1 NCelOv=     1 NCel=       1 NClECP=     1 NCelD=      1
         NCelK=      1 NCelE2=     1 NClLst=     1 CellRange=     0.0.
 One-electron integrals computed using PRISM.
 One-electron integral symmetry used in STVInt
 NBasis=    30 RedAO= T EigKep=  1.50D-02  NBF=    22     8
 NBsUse=    30 1.00D-06 EigRej= -1.00D+00 NBFU=    22     8
 Precomputing XC quadrature grid using
 IXCGrd= 4 IRadAn=           5 IRanWt=          -1 IRanGd=           0 AccXCQ= 0.00D+00.
 Generated NRdTot=       0 NPtTot=           0 NUsed=           0 NTot=          32
 NSgBfM=    32    32    32    32    32 MxSgAt=     3 MxSgA2=     3.
 Leave Link  302 at Wed Oct  7 14:32:12 2020, MaxMem=  2684354560 cpu:               3.8 elap:               0.7
 (Enter /udrive/faculty/rpeverati/g16/g16/l303.exe)
 DipDrv:  MaxL=1.
 Leave Link  303 at Wed Oct  7 14:32:13 2020, MaxMem=  2684354560 cpu:               3.8 elap:               0.8
 (Enter /udrive/faculty/rpeverati/g16/g16/l401.exe)
 SCF N**3 symmetry information disabled.
 ExpMin= 1.61D-01 ExpMax= 5.48D+03 ExpMxC= 8.25D+02 IAcc=3 IRadAn=         5 AccDes= 0.00D+00
 Harris functional with IExCor= 1009 and IRadAn=       5 diagonalized for initial guess.
 HarFok:  IExCor= 1009 AccDes= 0.00D+00 IRadAn=         5 IDoV= 1 UseB2=F ITyADJ=14
 ICtDFT=  3500011 ScaDFX=  1.000000  1.000000  1.000000  1.000000
 FoFCou: FMM=F IPFlag=           0 FMFlag=      100000 FMFlg1=           0
         NFxFlg=           0 DoJE=T BraDBF=F KetDBF=T FulRan=T
         wScrn=  0.000000 ICntrl=       500 IOpCl=  0 I1Cent=   200000004 NGrid=           0
         NMat0=    1 NMatS0=      1 NMatT0=    0 NMatD0=    1 NMtDS0=    0 NMtDT0=    0
 Petite list used in FoFCou.
 Harris En= -113.654972681762    
 JPrj=0 DoOrth=F DoCkMO=F.
 Initial guess orbital symmetries:
 Alpha Orbitals:
       Occupied  (A') (A') (A') (A') (A') (A") (A') (A')
       Virtual   (A") (A') (A') (A") (A') (A') (A') (A') (A') (A")
                 (A') (A") (A') (A') (A') (A") (A") (A') (A') (A")
                 (A') (A')
 Beta  Orbitals:
       Occupied  (A') (A') (A') (A') (A') (A") (A')
       Virtual   (A') (A") (A') (A') (A") (A') (A') (A') (A') (A')
                 (A") (A') (A") (A') (A') (A') (A") (A") (A') (A')
                 (A") (A') (A')
 The electronic state of the initial guess is 2-A'.
 Initial guess <Sx>= 0.0000 <Sy>= 0.0000 <Sz>= 0.5000 <S**2>= 0.7500 S= 0.5000
 Leave Link  401 at Wed Oct  7 14:32:15 2020, MaxMem=  2684354560 cpu:              10.6 elap:               1.3
 (Enter /udrive/faculty/rpeverati/g16/g16/l502.exe)
 Keep R1 and R2 ints in memory in symmetry-blocked form, NReq=10465801.
 FoFCou: FMM=F IPFlag=           0 FMFlag=           0 FMFlg1=           0
         NFxFlg=           0 DoJE=F BraDBF=F KetDBF=F FulRan=T
         wScrn=  0.000000 ICntrl=       600 IOpCl=  0 I1Cent=           0 NGrid=           0
         NMat0=    1 NMatS0=    465 NMatT0=    0 NMatD0=    1 NMtDS0=    0 NMtDT0=    0
 Petite list used in FoFCou.
 UHF open shell SCF:
 Using DIIS extrapolation, IDIIS=  1040.
 NGot=  2684354560 LenX=  2684235289 LenY=  2684233824
 Requested convergence on RMS density matrix=1.00D-08 within 120 cycles.
 Requested convergence on MAX density matrix=1.00D-06.
 Requested convergence on             energy=1.00D-06.
 No special actions if energy rises.
 Integral accuracy reduced to 1.0D-05 until final iterations.

 Cycle   1  Pass 0  IDiag  1:
 E= -113.650359579937    
 DIIS: error= 3.07D-02 at cycle   1 NSaved=   1.
 NSaved= 1 IEnMin= 1 EnMin= -113.650359579937     IErMin= 1 ErrMin= 3.07D-02
 ErrMax= 3.07D-02  0.00D+00 EMaxC= 1.00D-01 BMatC= 1.16D-01 BMatP= 1.16D-01
 IDIUse=3 WtCom= 6.93D-01 WtEn= 3.07D-01
 Coeff-Com:  0.100D+01
 Coeff-En:   0.100D+01
 Coeff:      0.100D+01
 Gap=     0.285 Goal=   None    Shift=    0.000
 Gap=     0.280 Goal=   None    Shift=    0.000
 GapD=    0.280 DampG=1.000 DampE=0.500 DampFc=0.5000 IDamp=-1.
 Damping current iteration by 5.00D-01
 RMSDP=9.71D-03 MaxDP=1.19D-01              OVMax= 1.89D-01

 Cycle   2  Pass 0  IDiag  1:
 E= -113.652572755059     Delta-E=       -0.002213175121 Rises=F Damp=T
 DIIS: error= 2.04D-02 at cycle   2 NSaved=   2.
 NSaved= 2 IEnMin= 2 EnMin= -113.652572755059     IErMin= 2 ErrMin= 2.04D-02
 ErrMax= 2.04D-02  0.00D+00 EMaxC= 1.00D-01 BMatC= 3.66D-02 BMatP= 1.16D-01
 IDIUse=3 WtCom= 7.96D-01 WtEn= 2.04D-01
 Coeff-Com:  0.329D+00 0.671D+00
 Coeff-En:   0.462D+00 0.538D+00
 Coeff:      0.357D+00 0.643D+00
 Gap=     0.265 Goal=   None    Shift=    0.000
 Gap=     0.296 Goal=   None    Shift=    0.000
 RMSDP=3.39D-03 MaxDP=4.52D-02 DE=-2.21D-03 OVMax= 1.10D-01

 Cycle   3  Pass 0  IDiag  1:
 E= -113.677150208703     Delta-E=       -0.024577453644 Rises=F Damp=F
 DIIS: error= 6.35D-03 at cycle   3 NSaved=   3.
 NSaved= 3 IEnMin= 3 EnMin= -113.677150208703     IErMin= 3 ErrMin= 6.35D-03
 ErrMax= 6.35D-03  0.00D+00 EMaxC= 1.00D-01 BMatC= 3.66D-03 BMatP= 3.66D-02
 IDIUse=3 WtCom= 9.36D-01 WtEn= 6.35D-02
 Coeff-Com:  0.493D-01 0.217D+00 0.733D+00
 Coeff-En:   0.000D+00 0.000D+00 0.100D+01
 Coeff:      0.461D-01 0.203D+00 0.750D+00
 Gap=     0.255 Goal=   None    Shift=    0.000
 Gap=     0.302 Goal=   None    Shift=    0.000
 RMSDP=1.54D-03 MaxDP=2.40D-02 DE=-2.46D-02 OVMax= 4.10D-02

 Cycle   4  Pass 0  IDiag  1:
 E= -113.678621140715     Delta-E=       -0.001470932012 Rises=F Damp=F
 DIIS: error= 3.05D-03 at cycle   4 NSaved=   4.
 NSaved= 4 IEnMin= 4 EnMin= -113.678621140715     IErMin= 4 ErrMin= 3.05D-03
 ErrMax= 3.05D-03  0.00D+00 EMaxC= 1.00D-01 BMatC= 6.32D-04 BMatP= 3.66D-03
 IDIUse=3 WtCom= 9.70D-01 WtEn= 3.05D-02
 Coeff-Com: -0.262D-01-0.589D-01 0.225D+00 0.860D+00
 Coeff-En:   0.000D+00 0.000D+00 0.000D+00 0.100D+01
 Coeff:     -0.254D-01-0.571D-01 0.219D+00 0.864D+00
 Gap=     0.263 Goal=   None    Shift=    0.000
 Gap=     0.305 Goal=   None    Shift=    0.000
 RMSDP=7.52D-04 MaxDP=8.98D-03 DE=-1.47D-03 OVMax= 1.55D-02

 Cycle   5  Pass 0  IDiag  1:
 E= -113.678967602291     Delta-E=       -0.000346461576 Rises=F Damp=F
 DIIS: error= 6.77D-04 at cycle   5 NSaved=   5.
 NSaved= 5 IEnMin= 5 EnMin= -113.678967602291     IErMin= 5 ErrMin= 6.77D-04
 ErrMax= 6.77D-04  0.00D+00 EMaxC= 1.00D-01 BMatC= 2.53D-05 BMatP= 6.32D-04
 IDIUse=3 WtCom= 9.93D-01 WtEn= 6.77D-03
 Coeff-Com:  0.239D-02-0.452D-02-0.891D-01-0.249D+00 0.134D+01
 Coeff-En:   0.000D+00 0.000D+00 0.000D+00 0.000D+00 0.100D+01
 Coeff:      0.238D-02-0.449D-02-0.885D-01-0.247D+00 0.134D+01
 Gap=     0.265 Goal=   None    Shift=    0.000
 Gap=     0.308 Goal=   None    Shift=    0.000
 RMSDP=3.30D-04 MaxDP=3.57D-03 DE=-3.46D-04 OVMax= 8.52D-03

 Cycle   6  Pass 0  IDiag  1:
 E= -113.679005283645     Delta-E=       -0.000037681355 Rises=F Damp=F
 DIIS: error= 1.23D-04 at cycle   6 NSaved=   6.
 NSaved= 6 IEnMin= 6 EnMin= -113.679005283645     IErMin= 6 ErrMin= 1.23D-04
 ErrMax= 1.23D-04  0.00D+00 EMaxC= 1.00D-01 BMatC= 1.64D-06 BMatP= 2.53D-05
 IDIUse=3 WtCom= 9.99D-01 WtEn= 1.23D-03
 Coeff-Com:  0.118D-02 0.330D-02-0.226D-01-0.814D-01 0.228D+00 0.872D+00
 Coeff-En:   0.000D+00 0.000D+00 0.000D+00 0.000D+00 0.000D+00 0.100D+01
 Coeff:      0.118D-02 0.330D-02-0.226D-01-0.813D-01 0.228D+00 0.872D+00
 Gap=     0.265 Goal=   None    Shift=    0.000
 Gap=     0.309 Goal=   None    Shift=    0.000
 RMSDP=4.40D-05 MaxDP=5.26D-04 DE=-3.77D-05 OVMax= 1.06D-03

 Cycle   7  Pass 0  IDiag  1:
 E= -113.679006383638     Delta-E=       -0.000001099993 Rises=F Damp=F
 DIIS: error= 4.66D-05 at cycle   7 NSaved=   7.
 NSaved= 7 IEnMin= 7 EnMin= -113.679006383638     IErMin= 7 ErrMin= 4.66D-05
 ErrMax= 4.66D-05  0.00D+00 EMaxC= 1.00D-01 BMatC= 1.67D-07 BMatP= 1.64D-06
 IDIUse=1 WtCom= 1.00D+00 WtEn= 0.00D+00
 Coeff-Com: -0.316D-03 0.927D-04 0.118D-01 0.294D-01-0.137D+00-0.120D+00
 Coeff-Com:  0.122D+01
 Coeff:     -0.316D-03 0.927D-04 0.118D-01 0.294D-01-0.137D+00-0.120D+00
 Coeff:      0.122D+01
 Gap=     0.265 Goal=   None    Shift=    0.000
 Gap=     0.309 Goal=   None    Shift=    0.000
 RMSDP=2.24D-05 MaxDP=3.47D-04 DE=-1.10D-06 OVMax= 5.57D-04

 Cycle   8  Pass 0  IDiag  1:
 E= -113.679006599689     Delta-E=       -0.000000216051 Rises=F Damp=F
 DIIS: error= 2.51D-05 at cycle   8 NSaved=   8.
 NSaved= 8 IEnMin= 8 EnMin= -113.679006599689     IErMin= 8 ErrMin= 2.51D-05
 ErrMax= 2.51D-05  0.00D+00 EMaxC= 1.00D-01 BMatC= 3.37D-08 BMatP= 1.67D-07
 IDIUse=1 WtCom= 1.00D+00 WtEn= 0.00D+00
 Coeff-Com: -0.157D-04-0.479D-03 0.371D-02 0.996D-02-0.368D-01-0.954D-01
 Coeff-Com:  0.745D-01 0.104D+01
 Coeff:     -0.157D-04-0.479D-03 0.371D-02 0.996D-02-0.368D-01-0.954D-01
 Coeff:      0.745D-01 0.104D+01
 Gap=     0.265 Goal=   None    Shift=    0.000
 Gap=     0.309 Goal=   None    Shift=    0.000
 RMSDP=8.96D-06 MaxDP=1.02D-04 DE=-2.16D-07 OVMax= 1.65D-04

 Initial convergence to 1.0D-05 achieved.  Increase integral accuracy.
 Cycle   9  Pass 1  IDiag  1:
 E= -113.679005236530     Delta-E=        0.000001363160 Rises=F Damp=F
 DIIS: error= 8.41D-06 at cycle   1 NSaved=   1.
 NSaved= 1 IEnMin= 1 EnMin= -113.679005236530     IErMin= 1 ErrMin= 8.41D-06
 ErrMax= 8.41D-06  0.00D+00 EMaxC= 1.00D-01 BMatC= 3.62D-09 BMatP= 3.62D-09
 IDIUse=1 WtCom= 1.00D+00 WtEn= 0.00D+00
 Coeff-Com:  0.100D+01
 Coeff:      0.100D+01
 Gap=     0.265 Goal=   None    Shift=    0.000
 Gap=     0.309 Goal=   None    Shift=    0.000
 RMSDP=8.96D-06 MaxDP=1.02D-04 DE= 1.36D-06 OVMax= 4.24D-05

 Cycle  10  Pass 1  IDiag  1:
 E= -113.679005239757     Delta-E=       -0.000000003228 Rises=F Damp=F
 DIIS: error= 6.94D-06 at cycle   2 NSaved=   2.
 NSaved= 2 IEnMin= 2 EnMin= -113.679005239757     IErMin= 2 ErrMin= 6.94D-06
 ErrMax= 6.94D-06  0.00D+00 EMaxC= 1.00D-01 BMatC= 2.36D-09 BMatP= 3.62D-09
 IDIUse=1 WtCom= 1.00D+00 WtEn= 0.00D+00
 Coeff-Com:  0.373D+00 0.627D+00
 Coeff:      0.373D+00 0.627D+00
 Gap=     0.265 Goal=   None    Shift=    0.000
 Gap=     0.309 Goal=   None    Shift=    0.000
 RMSDP=1.01D-06 MaxDP=1.28D-05 DE=-3.23D-09 OVMax= 1.93D-05

 Cycle  11  Pass 1  IDiag  1:
 E= -113.679005240491     Delta-E=       -0.000000000734 Rises=F Damp=F
 DIIS: error= 6.81D-06 at cycle   3 NSaved=   3.
 NSaved= 3 IEnMin= 3 EnMin= -113.679005240491     IErMin= 3 ErrMin= 6.81D-06
 ErrMax= 6.81D-06  0.00D+00 EMaxC= 1.00D-01 BMatC= 2.01D-09 BMatP= 2.36D-09
 IDIUse=1 WtCom= 1.00D+00 WtEn= 0.00D+00
 Coeff-Com: -0.403D+00 0.575D+00 0.828D+00
 Coeff:     -0.403D+00 0.575D+00 0.828D+00
 Gap=     0.265 Goal=   None    Shift=    0.000
 Gap=     0.309 Goal=   None    Shift=    0.000
 RMSDP=1.25D-06 MaxDP=1.51D-05 DE=-7.34D-10 OVMax= 2.42D-05

 Cycle  12  Pass 1  IDiag  1:
 E= -113.679005241431     Delta-E=       -0.000000000940 Rises=F Damp=F
 DIIS: error= 1.20D-06 at cycle   4 NSaved=   4.
 NSaved= 4 IEnMin= 4 EnMin= -113.679005241431     IErMin= 4 ErrMin= 1.20D-06
 ErrMax= 1.20D-06  0.00D+00 EMaxC= 1.00D-01 BMatC= 1.08D-10 BMatP= 2.01D-09
 IDIUse=1 WtCom= 1.00D+00 WtEn= 0.00D+00
 Coeff-Com: -0.227D+00 0.487D-01 0.253D+00 0.925D+00
 Coeff:     -0.227D+00 0.487D-01 0.253D+00 0.925D+00
 Gap=     0.265 Goal=   None    Shift=    0.000
 Gap=     0.309 Goal=   None    Shift=    0.000
 RMSDP=5.25D-07 MaxDP=4.75D-06 DE=-9.40D-10 OVMax= 1.29D-05

 Cycle  13  Pass 1  IDiag  1:
 E= -113.679005241540     Delta-E=       -0.000000000109 Rises=F Damp=F
 DIIS: error= 3.23D-07 at cycle   5 NSaved=   5.
 NSaved= 5 IEnMin= 5 EnMin= -113.679005241540     IErMin= 5 ErrMin= 3.23D-07
 ErrMax= 3.23D-07  0.00D+00 EMaxC= 1.00D-01 BMatC= 5.80D-12 BMatP= 1.08D-10
 IDIUse=1 WtCom= 1.00D+00 WtEn= 0.00D+00
 Coeff-Com:  0.294D-01-0.403D-01-0.726D-01 0.460D-01 0.104D+01
 Coeff:      0.294D-01-0.403D-01-0.726D-01 0.460D-01 0.104D+01
 Gap=     0.265 Goal=   None    Shift=    0.000
 Gap=     0.309 Goal=   None    Shift=    0.000
 RMSDP=9.09D-08 MaxDP=1.47D-06 DE=-1.09D-10 OVMax= 1.71D-06

 Cycle  14  Pass 1  IDiag  1:
 E= -113.679005241544     Delta-E=       -0.000000000004 Rises=F Damp=F
 DIIS: error= 8.18D-08 at cycle   6 NSaved=   6.
 NSaved= 6 IEnMin= 6 EnMin= -113.679005241544     IErMin= 6 ErrMin= 8.18D-08
 ErrMax= 8.18D-08  0.00D+00 EMaxC= 1.00D-01 BMatC= 5.73D-13 BMatP= 5.80D-12
 IDIUse=1 WtCom= 1.00D+00 WtEn= 0.00D+00
 Coeff-Com:  0.289D-01-0.168D-01-0.401D-01-0.719D-01 0.181D+00 0.919D+00
 Coeff:      0.289D-01-0.168D-01-0.401D-01-0.719D-01 0.181D+00 0.919D+00
 Gap=     0.265 Goal=   None    Shift=    0.000
 Gap=     0.309 Goal=   None    Shift=    0.000
 RMSDP=2.60D-08 MaxDP=2.58D-07 DE=-4.15D-12 OVMax= 4.20D-07

 Cycle  15  Pass 1  IDiag  1:
 E= -113.679005241545     Delta-E=       -0.000000000000 Rises=F Damp=F
 DIIS: error= 3.00D-08 at cycle   7 NSaved=   7.
 NSaved= 7 IEnMin= 7 EnMin= -113.679005241545     IErMin= 7 ErrMin= 3.00D-08
 ErrMax= 3.00D-08  0.00D+00 EMaxC= 1.00D-01 BMatC= 7.04D-14 BMatP= 5.73D-13
 IDIUse=1 WtCom= 1.00D+00 WtEn= 0.00D+00
 Coeff-Com: -0.530D-02 0.505D-02 0.113D-01 0.131D-02-0.131D+00-0.562D-01
 Coeff-Com:  0.118D+01
 Coeff:     -0.530D-02 0.505D-02 0.113D-01 0.131D-02-0.131D+00-0.562D-01
 Coeff:      0.118D+01
 Gap=     0.265 Goal=   None    Shift=    0.000
 Gap=     0.309 Goal=   None    Shift=    0.000
 RMSDP=1.19D-08 MaxDP=1.01D-07 DE=-2.84D-13 OVMax= 1.78D-07

 Cycle  16  Pass 1  IDiag  1:
 E= -113.679005241545     Delta-E=       -0.000000000000 Rises=F Damp=F
 DIIS: error= 1.07D-08 at cycle   8 NSaved=   8.
 NSaved= 8 IEnMin= 8 EnMin= -113.679005241545     IErMin= 8 ErrMin= 1.07D-08
 ErrMax= 1.07D-08  0.00D+00 EMaxC= 1.00D-01 BMatC= 9.79D-15 BMatP= 7.04D-14
 IDIUse=1 WtCom= 1.00D+00 WtEn= 0.00D+00
 Coeff-Com: -0.491D-02 0.266D-02 0.712D-02 0.111D-01-0.217D-01-0.151D+00
 Coeff-Com:  0.314D-01 0.113D+01
 Coeff:     -0.491D-02 0.266D-02 0.712D-02 0.111D-01-0.217D-01-0.151D+00
 Coeff:      0.314D-01 0.113D+01
 Gap=     0.265 Goal=   None    Shift=    0.000
 Gap=     0.309 Goal=   None    Shift=    0.000
 RMSDP=5.40D-09 MaxDP=6.78D-08 DE=-2.27D-13 OVMax= 8.27D-08

 SCF Done:  E(UPBE1PBE) =  -113.679005242     A.U. after   16 cycles
            NFock= 16  Conv=0.54D-08     -V/T= 2.0053
 <Sx>= 0.0000 <Sy>= 0.0000 <Sz>= 0.5000 <S**2>= 0.7629 S= 0.5064
 <L.S>= 0.000000000000E+00
 KE= 1.130763385880D+02 PE=-3.185912970835D+02 EE= 6.596744168169D+01
 Annihilation of the first spin contaminant:
 S**2 before annihilation     0.7629,   after     0.7500
 Leave Link  502 at Wed Oct  7 14:32:25 2020, MaxMem=  2684354560 cpu:              97.7 elap:               9.5
 (Enter /udrive/faculty/rpeverati/g16/g16/l508.exe)
 QCSCF skips out because SCF is already converged.
 Leave Link  508 at Wed Oct  7 14:32:25 2020, MaxMem=  2684354560 cpu:               0.7 elap:               0.5
 (Enter /udrive/faculty/rpeverati/g16/g16/l601.exe)
 Copying SCF densities to generalized density rwf, IOpCl= 1 IROHF=0.

 **********************************************************************

            Population analysis using the SCF density.

 **********************************************************************

 Orbital symmetries:
 Alpha Orbitals:
       Occupied  (A') (A') (A') (A') (A') (A") (A') (A')
       Virtual   (A") (A') (A') (A") (A') (A') (A') (A') (A') (A")
                 (A') (A") (A') (A') (A') (A") (A") (A') (A') (A")
                 (A') (A')
 Beta  Orbitals:
       Occupied  (A') (A') (A') (A') (A") (A') (A')
       Virtual   (A') (A") (A') (A') (A") (A') (A') (A') (A') (A')
                 (A") (A') (A") (A') (A') (A") (A') (A") (A') (A')
                 (A") (A') (A')
 The electronic state is 2-A'.
 Alpha  occ. eigenvalues --  -19.32362 -10.35312  -1.19070  -0.59044  -0.49811
 Alpha  occ. eigenvalues --   -0.48366  -0.42899  -0.27980
 Alpha virt. eigenvalues --   -0.01494   0.01819   0.26567   0.52530   0.54162
 Alpha virt. eigenvalues --    0.68119   0.75150   0.78509   0.85861   0.94355
 Alpha virt. eigenvalues --    0.97862   1.47907   1.48819   1.52861   1.55095
 Alpha virt. eigenvalues --    1.55221   1.95251   1.95680   2.44832   2.61677
 Alpha virt. eigenvalues --    2.62542   2.99034
  Beta  occ. eigenvalues --  -19.32078 -10.35042  -1.18584  -0.58397  -0.48118
  Beta  occ. eigenvalues --   -0.48000  -0.39419
  Beta virt. eigenvalues --   -0.08550  -0.00908   0.06224   0.26989   0.52903
  Beta virt. eigenvalues --    0.56001   0.69482   0.78085   0.86080   0.88151
  Beta virt. eigenvalues --    0.94526   1.00833   1.48303   1.49328   1.53419
  Beta virt. eigenvalues --    1.55702   1.55830   1.95877   1.96385   2.45598
  Beta virt. eigenvalues --    2.62128   2.63260   2.99330
          Condensed to atoms (all electrons):
               1          2          3
     1  C    5.255291   0.578902   0.020551
     2  O    0.578902   7.596401  -0.015518
     3  H    0.020551  -0.015518   0.980438
          Atomic-Atomic Spin Densities.
               1          2          3
     1  C    0.190294  -0.024444  -0.078604
     2  O   -0.024444   0.118518  -0.010173
     3  H   -0.078604  -0.010173   0.917629
 Mulliken charges and spin densities:
               1          2
     1  C    0.145256   0.087246
     2  O   -0.159785   0.083901
     3  H    0.014529   0.828852
 Sum of Mulliken charges =   0.00000   1.00000
 Mulliken charges and spin densities with hydrogens summed into heavy atoms:
               1          2
     1  C    0.159785   0.916099
     2  O   -0.159785   0.083901
 Electronic spatial extent (au):  <R**2>=             58.0236
 Charge=              0.0000 electrons
 Dipole moment (field-independent basis, Debye):
    X=             -0.0524    Y=              0.0554    Z=              0.0000  Tot=              0.0762
 Quadrupole moment (field-independent basis, Debye-Ang):
   XX=            -11.3112   YY=            -12.9664   ZZ=            -11.1034
   XY=             -0.0651   XZ=              0.0000   YZ=             -0.0000
 Traceless Quadrupole moment (field-independent basis, Debye-Ang):
   XX=              0.4824   YY=             -1.1727   ZZ=              0.6903
   XY=             -0.0651   XZ=              0.0000   YZ=             -0.0000
 Octapole moment (field-independent basis, Debye-Ang**2):
  XXX=              2.7046  YYY=             -6.9769  ZZZ=             -0.0000  XYY=              0.5448
  XXY=             -1.8929  XXZ=             -0.0000  XZZ=              0.8948  YZZ=             -1.7919
  YYZ=             -0.0000  XYZ=             -0.0000
 Hexadecapole moment (field-independent basis, Debye-Ang**3):
 XXXX=            -29.0404 YYYY=            -46.4989 ZZZZ=             -9.1136 XXXY=              7.8512
 XXXZ=             -0.0000 YYYX=              7.4712 YYYZ=             -0.0000 ZZZX=             -0.0000
 ZZZY=              0.0000 XXYY=            -12.3284 XXZZ=             -6.3710 YYZZ=             -8.9320
 XXYZ=             -0.0000 YYXZ=             -0.0000 ZZXY=              2.6264
 N-N= 2.586851157223D+01 E-N=-3.185912972426D+02  KE= 1.130763385880D+02
                          Isotropic Fermi Contact Couplings
        Atom                 a.u.       MegaHertz       Gauss      10(-4) cm-1
     1  C(13)              0.19048     214.13549      76.40887      71.42791
     2  O(17)              0.01867     -11.31840      -4.03869      -3.77541
     3  H(1)               0.26263    1173.94347     418.89222     391.58539
 --------------------------------------------------------
       Center         ----  Spin Dipole Couplings  ----
                      3XX-RR        3YY-RR        3ZZ-RR
 --------------------------------------------------------
     1   Atom       -0.018707      0.065596     -0.046889
     2   Atom        0.398219     -0.168163     -0.230057
     3   Atom       -0.011303      0.005239      0.006064
 --------------------------------------------------------
                        XY            XZ            YZ
 --------------------------------------------------------
     1   Atom        0.193811      0.000000     -0.000000
     2   Atom        0.230243      0.000000      0.000000
     3   Atom        0.005431     -0.000000      0.000000
 --------------------------------------------------------


 ---------------------------------------------------------------------------------
              Anisotropic Spin Dipole Couplings in Principal Axis System
 ---------------------------------------------------------------------------------

       Atom             a.u.   MegaHertz   Gauss  10(-4) cm-1        Axes

              Baa    -0.1749   -23.470    -8.375    -7.829  0.7786 -0.6275  0.0000
     1 C(13)  Bbb    -0.0469    -6.292    -2.245    -2.099  0.0000  0.0000  1.0000
              Bcc     0.2218    29.762    10.620     9.927  0.6275  0.7786  0.0000
 
              Baa    -0.2500    18.086     6.454     6.033 -0.3347  0.9423  0.0000
     2 O(17)  Bbb    -0.2301    16.647     5.940     5.553  0.0000  0.0000  1.0000
              Bcc     0.4800   -34.733   -12.394   -11.586  0.9423  0.3347  0.0000
 
              Baa    -0.0129    -6.897    -2.461    -2.301  0.9581 -0.2865  0.0000
     3 H(1)   Bbb     0.0061     3.235     1.154     1.079  0.0000  0.0000  1.0000
              Bcc     0.0069     3.662     1.307     1.221  0.2865  0.9581  0.0000
 

 ---------------------------------------------------------------------------------

 No NMR shielding tensors so no spin-rotation constants.
 Leave Link  601 at Wed Oct  7 14:32:27 2020, MaxMem=  2684354560 cpu:              11.7 elap:               1.4
 (Enter /udrive/faculty/rpeverati/g16/g16/l701.exe)
 ... and contract with generalized density number  0.
 Compute integral first derivatives.
 R6Disp: Adding Grimme-D3(BJ) dispersion energy 1st derivatives to the gradient.
 Leave Link  701 at Wed Oct  7 14:32:28 2020, MaxMem=  2684354560 cpu:               6.0 elap:               1.0
 (Enter /udrive/faculty/rpeverati/g16/g16/l702.exe)
 L702 exits ... SP integral derivatives will be done elsewhere.
 Leave Link  702 at Wed Oct  7 14:32:29 2020, MaxMem=  2684354560 cpu:               1.5 elap:               0.4
 (Enter /udrive/faculty/rpeverati/g16/g16/l703.exe)
 Integral derivatives from FoFJK, PRISM(SPDF).
 Compute integral first derivatives, UseDBF=F ICtDFT=           0.
 Calling FoFJK, ICntrl=      2127 FMM=F ISym2X=1 I1Cent= 0 IOpClX= 1 NMat=1 NMatS=1 NMatT=0.
 FoFJK:  IHMeth= 1 ICntrl=    2127 DoSepK=F KAlg= 0 I1Cent=           0 FoldK=F
 IRaf=         0 NMat=       1 IRICut=       1 DoRegI=T DoRafI=F ISym2E= 1 IDoP0=0 IntGTp=1.
 FoFCou: FMM=F IPFlag=           0 FMFlag=      100000 FMFlg1=         800
         NFxFlg=           0 DoJE=F BraDBF=F KetDBF=F FulRan=T
         wScrn=  0.000000 ICntrl=      2127 IOpCl=  1 I1Cent=           0 NGrid=           0
         NMat0=    1 NMatS0=      1 NMatT0=    0 NMatD0=    1 NMtDS0=    0 NMtDT0=    0
 Petite list used in FoFCou.
 Leave Link  703 at Wed Oct  7 14:32:30 2020, MaxMem=  2684354560 cpu:               8.2 elap:               1.1
 (Enter /udrive/faculty/rpeverati/g16/g16/l716.exe)
 Dipole        =-2.06065522D-02 2.17827484D-02 3.69953671D-33
 ***** Axes restored to original set *****
 -------------------------------------------------------------------
 Center     Atomic                   Forces (Hartrees/Bohr)
 Number     Number              X              Y              Z
 -------------------------------------------------------------------
      1        6           0.007940349   -0.000000000   -0.030895286
      2        8          -0.001617806    0.000000000    0.029064008
      3        1          -0.006322543    0.000000000    0.001831278
 -------------------------------------------------------------------
 Cartesian Forces:  Max     0.030895286 RMS     0.014561097
 Leave Link  716 at Wed Oct  7 14:32:31 2020, MaxMem=  2684354560 cpu:               2.0 elap:               0.5
 (Enter /udrive/faculty/rpeverati/g16/g16/l103.exe)

 GradGradGradGradGradGradGradGradGradGradGradGradGradGradGradGradGradGrad
 Berny optimization.
 Optmz: redundant internal coordinate code flag= 1
 FormGI is forming the generalized inverse of G from B-inverse, IUseBI=4.
 Internal  Forces:  Max     0.029063947 RMS     0.017310820
 Numerically estimating second derivatives.
 Iteration  1 RMS(Cart)=  0.00220308 RMS(Int)=  0.00000056
 Iteration  2 RMS(Cart)=  0.00000068 RMS(Int)=  0.00000000
 Largest change from initial coordinates is atom    2       0.001 Angstoms.
 GradGradGradGradGradGradGradGradGradGradGradGradGradGradGradGradGradGrad

 Leave Link  103 at Wed Oct  7 14:32:32 2020, MaxMem=  2684354560 cpu:               4.3 elap:               0.7
 (Enter /udrive/faculty/rpeverati/g16/g16/l202.exe)
                          Input orientation:                          
 ---------------------------------------------------------------------
 Center     Atomic      Atomic             Coordinates (Angstroms)
 Number     Number       Type             X           Y           Z
 ---------------------------------------------------------------------
      1          6           0        0.000048   -0.000000   -0.001105
      2          8           0       -0.000404    0.000000    1.131389
      3          1           0        1.676626   -0.000000   -0.775124
 ---------------------------------------------------------------------
                    Distance matrix (angstroms):
                    1          2          3
     1  C    0.000000
     2  O    1.132494   0.000000
     3  H    1.846624   2.539138   0.000000
 Stoichiometry    CHO(2)
 Framework group  CS[SG(CHO)]
 Deg. of freedom     3
 Full point group                 CS      NOp   2
 RotChk:  IX=0 Diff= 5.63D-04
 Largest Abelian subgroup         CS      NOp   2
 Largest concise Abelian subgroup C1      NOp   1
                         Standard orientation:                         
 ---------------------------------------------------------------------
 Center     Atomic      Atomic             Coordinates (Angstroms)
 Number     Number       Type             X           Y           Z
 ---------------------------------------------------------------------
      1          6           0        0.111751    0.552351    0.000000
      2          8           0        0.111751   -0.580143   -0.000000
      3          1           0       -1.564518    1.327038    0.000000
 ---------------------------------------------------------------------
 Rotational constants (GHZ):         239.2984382          44.4043763          37.4543267
 Leave Link  202 at Wed Oct  7 14:32:32 2020, MaxMem=  2684354560 cpu:               1.7 elap:               0.4
 (Enter /udrive/faculty/rpeverati/g16/g16/l301.exe)
 Standard basis: 6-31G(d) (5D, 7F)
 Ernie: Thresh=  0.10000D-02 Tol=  0.10000D-05 Strict=F.
 There are    24 symmetry adapted cartesian basis functions of A'  symmetry.
 There are     8 symmetry adapted cartesian basis functions of A"  symmetry.
 There are    22 symmetry adapted basis functions of A'  symmetry.
 There are     8 symmetry adapted basis functions of A"  symmetry.
    30 basis functions,    60 primitive gaussians,    32 cartesian basis functions
     8 alpha electrons        7 beta electrons
       nuclear repulsion energy        25.8154780715 Hartrees.
 IExCor= 1009 DFT=T Ex+Corr=PBE1PBE ExCW=0 ScaHFX=  0.250000
 ScaDFX=  0.750000  0.750000  1.000000  1.000000 ScalE2=  1.000000  1.000000
 IRadAn=      5 IRanWt=     -1 IRanGd=            0 ICorTp=0 IEmpDi=141
 NAtoms=    3 NActive=    3 NUniq=    3 SFac= 1.00D+00 NAtFMM=   60 NAOKFM=F Big=F
 Integral buffers will be    131072 words long.
 Raffenetti 2 integral format.
 Two-electron integral symmetry is turned on.
 R6Disp:  Grimme-D3(BJ) Dispersion energy=       -0.0007959645 Hartrees.
 Nuclear repulsion after empirical dispersion term =       25.8146821070 Hartrees.
 Leave Link  301 at Wed Oct  7 14:32:33 2020, MaxMem=  2684354560 cpu:               2.0 elap:               0.5
 (Enter /udrive/faculty/rpeverati/g16/g16/l302.exe)
 NPDir=0 NMtPBC=     1 NCelOv=     1 NCel=       1 NClECP=     1 NCelD=      1
         NCelK=      1 NCelE2=     1 NClLst=     1 CellRange=     0.0.
 One-electron integrals computed using PRISM.
 One-electron integral symmetry used in STVInt
 NBasis=    30 RedAO= T EigKep=  1.51D-02  NBF=    22     8
 NBsUse=    30 1.00D-06 EigRej= -1.00D+00 NBFU=    22     8
 Precomputing XC quadrature grid using
 IXCGrd= 4 IRadAn=           5 IRanWt=          -1 IRanGd=           0 AccXCQ= 0.00D+00.
 Generated NRdTot=       0 NPtTot=           0 NUsed=           0 NTot=          32
 NSgBfM=    32    32    32    32    32 MxSgAt=     3 MxSgA2=     3.
 Leave Link  302 at Wed Oct  7 14:32:34 2020, MaxMem=  2684354560 cpu:               7.1 elap:               0.9
 (Enter /udrive/faculty/rpeverati/g16/g16/l303.exe)
 DipDrv:  MaxL=1.
 Leave Link  303 at Wed Oct  7 14:32:35 2020, MaxMem=  2684354560 cpu:               2.9 elap:               0.5
 (Enter /udrive/faculty/rpeverati/g16/g16/l401.exe)
 Initial guess from the checkpoint file:  "MN_51_hcots_BH76_PBE0DBJ_631Gs.chk"
 SCF N**3 symmetry information disabled.
 B after Tr=     0.000000    0.000000   -0.000000
         Rot=    1.000000   -0.000000    0.000000    0.000133 Ang=   0.02 deg.
 Guess basis will be translated and rotated to current coordinates.
 JPrj=2 DoOrth=T DoCkMO=T.
 Initial guess orbital symmetries:
 Alpha Orbitals:
       Occupied  (A') (A') (A') (A') (A') (A") (A') (A')
       Virtual   (A") (A') (A') (A") (A') (A') (A') (A') (A') (A")
                 (A') (A") (A') (A') (A') (A") (A") (A') (A') (A")
                 (A') (A')
 Beta  Orbitals:
       Occupied  (A') (A') (A') (A') (A") (A') (A')
       Virtual   (A') (A") (A') (A') (A") (A') (A') (A') (A') (A')
                 (A") (A') (A") (A') (A') (A") (A') (A") (A') (A')
                 (A") (A') (A')
 The electronic state of the initial guess is 2-A'.
 Initial guess <Sx>= 0.0000 <Sy>= 0.0000 <Sz>= 0.5000 <S**2>= 0.7629 S= 0.5064
 Generating alternative initial guess.
 ExpMin= 1.61D-01 ExpMax= 5.48D+03 ExpMxC= 8.25D+02 IAcc=2 IRadAn=         4 AccDes= 0.00D+00
 Harris functional with IExCor= 1009 and IRadAn=       4 diagonalized for initial guess.
 HarFok:  IExCor= 1009 AccDes= 0.00D+00 IRadAn=         4 IDoV= 1 UseB2=F ITyADJ=14
 ICtDFT=  3500011 ScaDFX=  1.000000  1.000000  1.000000  1.000000
 FoFCou: FMM=F IPFlag=           0 FMFlag=      100000 FMFlg1=           0
         NFxFlg=           0 DoJE=T BraDBF=F KetDBF=T FulRan=T
         wScrn=  0.000000 ICntrl=       500 IOpCl=  0 I1Cent=   200000004 NGrid=           0
         NMat0=    1 NMatS0=      1 NMatT0=    0 NMatD0=    1 NMtDS0=    0 NMtDT0=    0
 Petite list used in FoFCou.
 Harris En= -113.654771831761    
 Leave Link  401 at Wed Oct  7 14:32:37 2020, MaxMem=  2684354560 cpu:              19.4 elap:               2.0
 (Enter /udrive/faculty/rpeverati/g16/g16/l502.exe)
 Keep R1 and R2 ints in memory in symmetry-blocked form, NReq=10465801.
 FoFCou: FMM=F IPFlag=           0 FMFlag=           0 FMFlg1=           0
         NFxFlg=           0 DoJE=F BraDBF=F KetDBF=F FulRan=T
         wScrn=  0.000000 ICntrl=       600 IOpCl=  0 I1Cent=           0 NGrid=           0
         NMat0=    1 NMatS0=    465 NMatT0=    0 NMatD0=    1 NMtDS0=    0 NMtDT0=    0
 Petite list used in FoFCou.
 UHF open shell SCF:
 Using DIIS extrapolation, IDIIS=  1040.
 NGot=  2684354560 LenX=  2684235289 LenY=  2684233824
 Requested convergence on RMS density matrix=1.00D-08 within 120 cycles.
 Requested convergence on MAX density matrix=1.00D-06.
 Requested convergence on             energy=1.00D-06.
 No special actions if energy rises.
 Integral accuracy reduced to 1.0D-05 until final iterations.

 Cycle   1  Pass 0  IDiag  1:
 E= -113.679130150736    
 DIIS: error= 3.18D-04 at cycle   1 NSaved=   1.
 NSaved= 1 IEnMin= 1 EnMin= -113.679130150736     IErMin= 1 ErrMin= 3.18D-04
 ErrMax= 3.18D-04  0.00D+00 EMaxC= 1.00D-01 BMatC= 1.81D-05 BMatP= 1.81D-05
 IDIUse=3 WtCom= 9.97D-01 WtEn= 3.18D-03
 Coeff-Com:  0.100D+01
 Coeff-En:   0.100D+01
 Coeff:      0.100D+01
 Gap=     0.264 Goal=   None    Shift=    0.000
 Gap=     0.308 Goal=   None    Shift=    0.000
 RMSDP=9.08D-05 MaxDP=6.27D-04              OVMax= 9.31D-04

 Cycle   2  Pass 0  IDiag  1:
 E= -113.679134320961     Delta-E=       -0.000004170225 Rises=F Damp=F
 DIIS: error= 1.88D-04 at cycle   2 NSaved=   2.
 NSaved= 2 IEnMin= 2 EnMin= -113.679134320961     IErMin= 2 ErrMin= 1.88D-04
 ErrMax= 1.88D-04  0.00D+00 EMaxC= 1.00D-01 BMatC= 4.85D-06 BMatP= 1.81D-05
 IDIUse=3 WtCom= 9.98D-01 WtEn= 1.88D-03
 Coeff-Com:  0.291D+00 0.709D+00
 Coeff-En:   0.000D+00 0.100D+01
 Coeff:      0.291D+00 0.709D+00
 Gap=     0.264 Goal=   None    Shift=    0.000
 Gap=     0.308 Goal=   None    Shift=    0.000
 RMSDP=3.97D-05 MaxDP=5.14D-04 DE=-4.17D-06 OVMax= 5.49D-04

 Cycle   3  Pass 0  IDiag  1:
 E= -113.679134509682     Delta-E=       -0.000000188720 Rises=F Damp=F
 DIIS: error= 2.13D-04 at cycle   3 NSaved=   3.
 NSaved= 3 IEnMin= 3 EnMin= -113.679134509682     IErMin= 2 ErrMin= 1.88D-04
 ErrMax= 2.13D-04  0.00D+00 EMaxC= 1.00D-01 BMatC= 4.09D-06 BMatP= 4.85D-06
 IDIUse=3 WtCom= 9.98D-01 WtEn= 2.13D-03
 Coeff-Com:  0.642D-01 0.474D+00 0.462D+00
 Coeff-En:   0.000D+00 0.450D+00 0.550D+00
 Coeff:      0.640D-01 0.474D+00 0.462D+00
 Gap=     0.264 Goal=   None    Shift=    0.000
 Gap=     0.308 Goal=   None    Shift=    0.000
 RMSDP=2.22D-05 MaxDP=2.64D-04 DE=-1.89D-07 OVMax= 4.14D-04

 Cycle   4  Pass 0  IDiag  1:
 E= -113.679135226101     Delta-E=       -0.000000716419 Rises=F Damp=F
 DIIS: error= 5.67D-05 at cycle   4 NSaved=   4.
 NSaved= 4 IEnMin= 4 EnMin= -113.679135226101     IErMin= 4 ErrMin= 5.67D-05
 ErrMax= 5.67D-05  0.00D+00 EMaxC= 1.00D-01 BMatC= 2.54D-07 BMatP= 4.09D-06
 IDIUse=1 WtCom= 1.00D+00 WtEn= 0.00D+00
 Coeff-Com: -0.143D-01 0.116D+00 0.250D+00 0.648D+00
 Coeff:     -0.143D-01 0.116D+00 0.250D+00 0.648D+00
 Gap=     0.264 Goal=   None    Shift=    0.000
 Gap=     0.308 Goal=   None    Shift=    0.000
 RMSDP=6.64D-06 MaxDP=9.78D-05 DE=-7.16D-07 OVMax= 1.13D-04

 Initial convergence to 1.0D-05 achieved.  Increase integral accuracy.
 Cycle   5  Pass 1  IDiag  1:
 E= -113.679133910915     Delta-E=        0.000001315185 Rises=F Damp=F
 DIIS: error= 4.90D-06 at cycle   1 NSaved=   1.
 NSaved= 1 IEnMin= 1 EnMin= -113.679133910915     IErMin= 1 ErrMin= 4.90D-06
 ErrMax= 4.90D-06  0.00D+00 EMaxC= 1.00D-01 BMatC= 2.15D-09 BMatP= 2.15D-09
 IDIUse=1 WtCom= 1.00D+00 WtEn= 0.00D+00
 Coeff-Com:  0.100D+01
 Coeff:      0.100D+01
 Gap=     0.264 Goal=   None    Shift=    0.000
 Gap=     0.308 Goal=   None    Shift=    0.000
 RMSDP=6.64D-06 MaxDP=9.78D-05 DE= 1.32D-06 OVMax= 5.00D-05

 Cycle   6  Pass 1  IDiag  1:
 E= -113.679133912970     Delta-E=       -0.000000002055 Rises=F Damp=F
 DIIS: error= 2.64D-06 at cycle   2 NSaved=   2.
 NSaved= 2 IEnMin= 2 EnMin= -113.679133912970     IErMin= 2 ErrMin= 2.64D-06
 ErrMax= 2.64D-06  0.00D+00 EMaxC= 1.00D-01 BMatC= 6.85D-10 BMatP= 2.15D-09
 IDIUse=1 WtCom= 1.00D+00 WtEn= 0.00D+00
 Coeff-Com:  0.166D+00 0.834D+00
 Coeff:      0.166D+00 0.834D+00
 Gap=     0.264 Goal=   None    Shift=    0.000
 Gap=     0.308 Goal=   None    Shift=    0.000
 RMSDP=7.38D-07 MaxDP=5.70D-06 DE=-2.06D-09 OVMax= 2.01D-05

 Cycle   7  Pass 1  IDiag  1:
 E= -113.679133913499     Delta-E=       -0.000000000528 Rises=F Damp=F
 DIIS: error= 1.41D-06 at cycle   3 NSaved=   3.
 NSaved= 3 IEnMin= 3 EnMin= -113.679133913499     IErMin= 3 ErrMin= 1.41D-06
 ErrMax= 1.41D-06  0.00D+00 EMaxC= 1.00D-01 BMatC= 1.94D-10 BMatP= 6.85D-10
 IDIUse=1 WtCom= 1.00D+00 WtEn= 0.00D+00
 Coeff-Com: -0.384D+00 0.435D-02 0.138D+01
 Coeff:     -0.384D+00 0.435D-02 0.138D+01
 Gap=     0.264 Goal=   None    Shift=    0.000
 Gap=     0.308 Goal=   None    Shift=    0.000
 RMSDP=1.04D-06 MaxDP=9.29D-06 DE=-5.28D-10 OVMax= 2.04D-05

 Cycle   8  Pass 1  IDiag  1:
 E= -113.679133913765     Delta-E=       -0.000000000267 Rises=F Damp=F
 DIIS: error= 4.88D-07 at cycle   4 NSaved=   4.
 NSaved= 4 IEnMin= 4 EnMin= -113.679133913765     IErMin= 4 ErrMin= 4.88D-07
 ErrMax= 4.88D-07  0.00D+00 EMaxC= 1.00D-01 BMatC= 1.25D-11 BMatP= 1.94D-10
 IDIUse=1 WtCom= 1.00D+00 WtEn= 0.00D+00
 Coeff-Com: -0.138D+00-0.194D-01 0.440D+00 0.717D+00
 Coeff:     -0.138D+00-0.194D-01 0.440D+00 0.717D+00
 Gap=     0.264 Goal=   None    Shift=    0.000
 Gap=     0.308 Goal=   None    Shift=    0.000
 RMSDP=1.08D-07 MaxDP=1.55D-06 DE=-2.67D-10 OVMax= 1.85D-06

 Cycle   9  Pass 1  IDiag  1:
 E= -113.679133913768     Delta-E=       -0.000000000003 Rises=F Damp=F
 DIIS: error= 5.03D-07 at cycle   5 NSaved=   5.
 NSaved= 5 IEnMin= 5 EnMin= -113.679133913768     IErMin= 4 ErrMin= 4.88D-07
 ErrMax= 5.03D-07  0.00D+00 EMaxC= 1.00D-01 BMatC= 1.35D-11 BMatP= 1.25D-11
 IDIUse=1 WtCom= 1.00D+00 WtEn= 0.00D+00
 Coeff-Com: -0.946D-02-0.648D-02-0.149D-01 0.540D+00 0.491D+00
 Coeff:     -0.946D-02-0.648D-02-0.149D-01 0.540D+00 0.491D+00
 Gap=     0.264 Goal=   None    Shift=    0.000
 Gap=     0.308 Goal=   None    Shift=    0.000
 RMSDP=4.39D-08 MaxDP=6.44D-07 DE=-2.64D-12 OVMax= 1.01D-06

 Cycle  10  Pass 1  IDiag  1:
 E= -113.679133913771     Delta-E=       -0.000000000003 Rises=F Damp=F
 DIIS: error= 1.19D-07 at cycle   6 NSaved=   6.
 NSaved= 6 IEnMin= 6 EnMin= -113.679133913771     IErMin= 6 ErrMin= 1.19D-07
 ErrMax= 1.19D-07  0.00D+00 EMaxC= 1.00D-01 BMatC= 3.64D-13 BMatP= 1.25D-11
 IDIUse=1 WtCom= 1.00D+00 WtEn= 0.00D+00
 Coeff-Com:  0.222D-01 0.923D-03-0.725D-01-0.684D-01 0.761D-01 0.104D+01
 Coeff:      0.222D-01 0.923D-03-0.725D-01-0.684D-01 0.761D-01 0.104D+01
 Gap=     0.264 Goal=   None    Shift=    0.000
 Gap=     0.308 Goal=   None    Shift=    0.000
 RMSDP=1.76D-08 MaxDP=2.80D-07 DE=-2.98D-12 OVMax= 4.79D-07

 Cycle  11  Pass 1  IDiag  1:
 E= -113.679133913771     Delta-E=       -0.000000000000 Rises=F Damp=F
 DIIS: error= 3.00D-08 at cycle   7 NSaved=   7.
 NSaved= 7 IEnMin= 7 EnMin= -113.679133913771     IErMin= 7 ErrMin= 3.00D-08
 ErrMax= 3.00D-08  0.00D+00 EMaxC= 1.00D-01 BMatC= 3.33D-14 BMatP= 3.64D-13
 IDIUse=1 WtCom= 1.00D+00 WtEn= 0.00D+00
 Coeff-Com:  0.670D-03-0.238D-03 0.511D-02-0.644D-01-0.617D-01-0.935D-01
 Coeff-Com:  0.121D+01
 Coeff:      0.670D-03-0.238D-03 0.511D-02-0.644D-01-0.617D-01-0.935D-01
 Coeff:      0.121D+01
 Gap=     0.264 Goal=   None    Shift=    0.000
 Gap=     0.308 Goal=   None    Shift=    0.000
 RMSDP=8.23D-09 MaxDP=1.36D-07 DE=-3.41D-13 OVMax= 2.18D-07

 SCF Done:  E(UPBE1PBE) =  -113.679133914     A.U. after   11 cycles
            NFock= 11  Conv=0.82D-08     -V/T= 2.0055
 <Sx>= 0.0000 <Sy>= 0.0000 <Sz>= 0.5000 <S**2>= 0.7630 S= 0.5065
 <L.S>= 0.000000000000E+00
 KE= 1.130627640510D+02 PE=-3.184771326938D+02 EE= 6.592055262198D+01
 Annihilation of the first spin contaminant:
 S**2 before annihilation     0.7630,   after     0.7500
 Leave Link  502 at Wed Oct  7 14:32:45 2020, MaxMem=  2684354560 cpu:              83.3 elap:               8.1
 (Enter /udrive/faculty/rpeverati/g16/g16/l508.exe)
 QCSCF skips out because SCF is already converged.
 Leave Link  508 at Wed Oct  7 14:32:46 2020, MaxMem=  2684354560 cpu:               0.8 elap:               0.5
 (Enter /udrive/faculty/rpeverati/g16/g16/l701.exe)
 ... and contract with generalized density number  0.
 Compute integral first derivatives.
 R6Disp: Adding Grimme-D3(BJ) dispersion energy 1st derivatives to the gradient.
 Leave Link  701 at Wed Oct  7 14:32:47 2020, MaxMem=  2684354560 cpu:               6.1 elap:               0.9
 (Enter /udrive/faculty/rpeverati/g16/g16/l702.exe)
 L702 exits ... SP integral derivatives will be done elsewhere.
 Leave Link  702 at Wed Oct  7 14:32:48 2020, MaxMem=  2684354560 cpu:               1.8 elap:               0.6
 (Enter /udrive/faculty/rpeverati/g16/g16/l703.exe)
 Integral derivatives from FoFJK, PRISM(SPDF).
 Compute integral first derivatives, UseDBF=F ICtDFT=           0.
 Calling FoFJK, ICntrl=      2127 FMM=F ISym2X=1 I1Cent= 0 IOpClX= 1 NMat=1 NMatS=1 NMatT=0.
 FoFJK:  IHMeth= 1 ICntrl=    2127 DoSepK=F KAlg= 0 I1Cent=           0 FoldK=F
 IRaf=         0 NMat=       1 IRICut=       1 DoRegI=T DoRafI=F ISym2E= 1 IDoP0=0 IntGTp=1.
 FoFCou: FMM=F IPFlag=           0 FMFlag=      100000 FMFlg1=         800
         NFxFlg=           0 DoJE=F BraDBF=F KetDBF=F FulRan=T
         wScrn=  0.000000 ICntrl=      2127 IOpCl=  1 I1Cent=           0 NGrid=           0
         NMat0=    1 NMatS0=      1 NMatT0=    0 NMatD0=    1 NMtDS0=    0 NMtDT0=    0
 Petite list used in FoFCou.
 Leave Link  703 at Wed Oct  7 14:32:49 2020, MaxMem=  2684354560 cpu:               8.9 elap:               1.2
 (Enter /udrive/faculty/rpeverati/g16/g16/l716.exe)
 Dipole        =-2.26435952D-02 2.64185243D-02 6.72489947D-33
 ***** Axes restored to original set *****
 -------------------------------------------------------------------
 Center     Atomic                   Forces (Hartrees/Bohr)
 Number     Number              X              Y              Z
 -------------------------------------------------------------------
      1        6           0.008061530   -0.000000000   -0.024333914
      2        8          -0.001598838    0.000000000    0.022424495
      3        1          -0.006462693    0.000000000    0.001909419
 -------------------------------------------------------------------
 Cartesian Forces:  Max     0.024333914 RMS     0.011585212
 Leave Link  716 at Wed Oct  7 14:32:50 2020, MaxMem=  2684354560 cpu:               1.9 elap:               0.5
 (Enter /udrive/faculty/rpeverati/g16/g16/l103.exe)

 GradGradGradGradGradGradGradGradGradGradGradGradGradGradGradGradGradGrad
 Berny optimization.
 Optmz: redundant internal coordinate code flag= 1
 Red2BG:  D1=  4.91D-01 OD1=  1.25D-03 B2RMS=  0.00D+00 IAprox=0
 FormGI is forming the generalized inverse of G from B-inverse, IUseBI=4.
 Internal  Forces:  Max     0.022425069 RMS     0.013649461
 Numerically estimating second derivatives.
 Iteration  1 RMS(Cart)=  0.00230063 RMS(Int)=  0.00000021
 Iteration  2 RMS(Cart)=  0.00000025 RMS(Int)=  0.00000000
 Largest change from initial coordinates is atom    3       0.002 Angstoms.
 GradGradGradGradGradGradGradGradGradGradGradGradGradGradGradGradGradGrad

 Leave Link  103 at Wed Oct  7 14:32:51 2020, MaxMem=  2684354560 cpu:               6.4 elap:               0.9
 (Enter /udrive/faculty/rpeverati/g16/g16/l202.exe)
                          Input orientation:                          
 ---------------------------------------------------------------------
 Center     Atomic      Atomic             Coordinates (Angstroms)
 Number     Number       Type             X           Y           Z
 ---------------------------------------------------------------------
      1          6           0        0.000830   -0.000000   -0.000506
      2          8           0        0.000554    0.000000    1.129342
      3          1           0        1.674886   -0.000000   -0.773675
 ---------------------------------------------------------------------
                    Distance matrix (angstroms):
                    1          2          3
     1  C    0.000000
     2  O    1.129848   0.000000
     3  H    1.843978   2.534731   0.000000
 Stoichiometry    CHO(2)
 Framework group  CS[SG(CHO)]
 Deg. of freedom     3
 Full point group                 CS      NOp   2
 RotChk:  IX=0 Diff= 2.18D-04
 Largest Abelian subgroup         CS      NOp   2
 Largest concise Abelian subgroup C1      NOp   1
                         Standard orientation:                         
 ---------------------------------------------------------------------
 Center     Atomic      Atomic             Coordinates (Angstroms)
 Number     Number       Type             X           Y           Z
 ---------------------------------------------------------------------
      1          6           0        0.111591    0.551014    0.000000
      2          8           0        0.111591   -0.578834   -0.000000
      3          1           0       -1.562277    1.324591   -0.000000
 ---------------------------------------------------------------------
 Rotational constants (GHZ):         240.0651028          44.5978294          37.6107364
 Leave Link  202 at Wed Oct  7 14:32:52 2020, MaxMem=  2684354560 cpu:               2.3 elap:               0.6
 (Enter /udrive/faculty/rpeverati/g16/g16/l301.exe)
 Standard basis: 6-31G(d) (5D, 7F)
 Ernie: Thresh=  0.10000D-02 Tol=  0.10000D-05 Strict=F.
 There are    24 symmetry adapted cartesian basis functions of A'  symmetry.
 There are     8 symmetry adapted cartesian basis functions of A"  symmetry.
 There are    22 symmetry adapted basis functions of A'  symmetry.
 There are     8 symmetry adapted basis functions of A"  symmetry.
    30 basis functions,    60 primitive gaussians,    32 cartesian basis functions
     8 alpha electrons        7 beta electrons
       nuclear repulsion energy        25.8733676887 Hartrees.
 IExCor= 1009 DFT=T Ex+Corr=PBE1PBE ExCW=0 ScaHFX=  0.250000
 ScaDFX=  0.750000  0.750000  1.000000  1.000000 ScalE2=  1.000000  1.000000
 IRadAn=      5 IRanWt=     -1 IRanGd=            0 ICorTp=0 IEmpDi=141
 NAtoms=    3 NActive=    3 NUniq=    3 SFac= 1.00D+00 NAtFMM=   60 NAOKFM=F Big=F
 Integral buffers will be    131072 words long.
 Raffenetti 2 integral format.
 Two-electron integral symmetry is turned on.
 R6Disp:  Grimme-D3(BJ) Dispersion energy=       -0.0007961821 Hartrees.
 Nuclear repulsion after empirical dispersion term =       25.8725715066 Hartrees.
 Leave Link  301 at Wed Oct  7 14:32:53 2020, MaxMem=  2684354560 cpu:               2.6 elap:               0.6
 (Enter /udrive/faculty/rpeverati/g16/g16/l302.exe)
 NPDir=0 NMtPBC=     1 NCelOv=     1 NCel=       1 NClECP=     1 NCelD=      1
         NCelK=      1 NCelE2=     1 NClLst=     1 CellRange=     0.0.
 One-electron integrals computed using PRISM.
 One-electron integral symmetry used in STVInt
 NBasis=    30 RedAO= T EigKep=  1.50D-02  NBF=    22     8
 NBsUse=    30 1.00D-06 EigRej= -1.00D+00 NBFU=    22     8
 Precomputing XC quadrature grid using
 IXCGrd= 4 IRadAn=           5 IRanWt=          -1 IRanGd=           0 AccXCQ= 0.00D+00.
 Generated NRdTot=       0 NPtTot=           0 NUsed=           0 NTot=          32
 NSgBfM=    32    32    32    32    32 MxSgAt=     3 MxSgA2=     3.
 Leave Link  302 at Wed Oct  7 14:32:54 2020, MaxMem=  2684354560 cpu:               9.5 elap:               1.3
 (Enter /udrive/faculty/rpeverati/g16/g16/l303.exe)
 DipDrv:  MaxL=1.
 Leave Link  303 at Wed Oct  7 14:32:55 2020, MaxMem=  2684354560 cpu:               4.2 elap:               0.7
 (Enter /udrive/faculty/rpeverati/g16/g16/l401.exe)
 Initial guess from the checkpoint file:  "MN_51_hcots_BH76_PBE0DBJ_631Gs.chk"
 SCF N**3 symmetry information disabled.
 B after Tr=    -0.000000    0.000000   -0.000000
         Rot=    1.000000   -0.000000    0.000000   -0.000051 Ang=  -0.01 deg.
 Guess basis will be translated and rotated to current coordinates.
 JPrj=2 DoOrth=T DoCkMO=T.
 Initial guess orbital symmetries:
 Alpha Orbitals:
       Occupied  (A') (A') (A') (A') (A') (A") (A') (A')
       Virtual   (A") (A') (A') (A") (A') (A') (A') (A') (A') (A")
                 (A') (A") (A') (A') (A') (A") (A") (A') (A') (A")
                 (A') (A')
 Beta  Orbitals:
       Occupied  (A') (A') (A') (A') (A") (A') (A')
       Virtual   (A') (A") (A') (A') (A") (A') (A') (A') (A') (A')
                 (A") (A') (A") (A') (A') (A") (A') (A") (A') (A')
                 (A") (A') (A')
 The electronic state of the initial guess is 2-A'.
 Initial guess <Sx>= 0.0000 <Sy>= 0.0000 <Sz>= 0.5000 <S**2>= 0.7630 S= 0.5065
 Generating alternative initial guess.
 ExpMin= 1.61D-01 ExpMax= 5.48D+03 ExpMxC= 8.25D+02 IAcc=2 IRadAn=         4 AccDes= 0.00D+00
 Harris functional with IExCor= 1009 and IRadAn=       4 diagonalized for initial guess.
 HarFok:  IExCor= 1009 AccDes= 0.00D+00 IRadAn=         4 IDoV= 1 UseB2=F ITyADJ=14
 ICtDFT=  3500011 ScaDFX=  1.000000  1.000000  1.000000  1.000000
 FoFCou: FMM=F IPFlag=           0 FMFlag=      100000 FMFlg1=           0
         NFxFlg=           0 DoJE=T BraDBF=F KetDBF=T FulRan=T
         wScrn=  0.000000 ICntrl=       500 IOpCl=  0 I1Cent=   200000004 NGrid=           0
         NMat0=    1 NMatS0=      1 NMatT0=    0 NMatD0=    1 NMtDS0=    0 NMtDT0=    0
 Petite list used in FoFCou.
 Harris En= -113.654720912354    
 Leave Link  401 at Wed Oct  7 14:32:58 2020, MaxMem=  2684354560 cpu:              25.2 elap:               2.6
 (Enter /udrive/faculty/rpeverati/g16/g16/l502.exe)
 Keep R1 and R2 ints in memory in symmetry-blocked form, NReq=10465801.
 FoFCou: FMM=F IPFlag=           0 FMFlag=           0 FMFlg1=           0
         NFxFlg=           0 DoJE=F BraDBF=F KetDBF=F FulRan=T
         wScrn=  0.000000 ICntrl=       600 IOpCl=  0 I1Cent=           0 NGrid=           0
         NMat0=    1 NMatS0=    465 NMatT0=    0 NMatD0=    1 NMtDS0=    0 NMtDT0=    0
 Petite list used in FoFCou.
 UHF open shell SCF:
 Using DIIS extrapolation, IDIIS=  1040.
 NGot=  2684354560 LenX=  2684235289 LenY=  2684233824
 Requested convergence on RMS density matrix=1.00D-08 within 120 cycles.
 Requested convergence on MAX density matrix=1.00D-06.
 Requested convergence on             energy=1.00D-06.
 No special actions if energy rises.
 Integral accuracy reduced to 1.0D-05 until final iterations.

 Cycle   1  Pass 0  IDiag  1:
 E= -113.679034421570    
 DIIS: error= 3.23D-04 at cycle   1 NSaved=   1.
 NSaved= 1 IEnMin= 1 EnMin= -113.679034421570     IErMin= 1 ErrMin= 3.23D-04
 ErrMax= 3.23D-04  0.00D+00 EMaxC= 1.00D-01 BMatC= 1.80D-05 BMatP= 1.80D-05
 IDIUse=3 WtCom= 9.97D-01 WtEn= 3.23D-03
 Coeff-Com:  0.100D+01
 Coeff-En:   0.100D+01
 Coeff:      0.100D+01
 Gap=     0.265 Goal=   None    Shift=    0.000
 Gap=     0.309 Goal=   None    Shift=    0.000
 RMSDP=9.11D-05 MaxDP=5.88D-04              OVMax= 7.95D-04

 Cycle   2  Pass 0  IDiag  1:
 E= -113.679038631944     Delta-E=       -0.000004210375 Rises=F Damp=F
 DIIS: error= 1.76D-04 at cycle   2 NSaved=   2.
 NSaved= 2 IEnMin= 2 EnMin= -113.679038631944     IErMin= 2 ErrMin= 1.76D-04
 ErrMax= 1.76D-04  0.00D+00 EMaxC= 1.00D-01 BMatC= 4.15D-06 BMatP= 1.80D-05
 IDIUse=3 WtCom= 9.98D-01 WtEn= 1.76D-03
 Coeff-Com:  0.271D+00 0.729D+00
 Coeff-En:   0.000D+00 0.100D+01
 Coeff:      0.271D+00 0.729D+00
 Gap=     0.265 Goal=   None    Shift=    0.000
 Gap=     0.309 Goal=   None    Shift=    0.000
 RMSDP=3.62D-05 MaxDP=4.35D-04 DE=-4.21D-06 OVMax= 5.03D-04

 Cycle   3  Pass 0  IDiag  1:
 E= -113.679038882548     Delta-E=       -0.000000250604 Rises=F Damp=F
 DIIS: error= 1.83D-04 at cycle   3 NSaved=   3.
 NSaved= 3 IEnMin= 3 EnMin= -113.679038882548     IErMin= 2 ErrMin= 1.76D-04
 ErrMax= 1.83D-04  0.00D+00 EMaxC= 1.00D-01 BMatC= 3.18D-06 BMatP= 4.15D-06
 IDIUse=3 WtCom= 9.98D-01 WtEn= 1.83D-03
 Coeff-Com:  0.613D-01 0.464D+00 0.475D+00
 Coeff-En:   0.000D+00 0.415D+00 0.585D+00
 Coeff:      0.611D-01 0.464D+00 0.475D+00
 Gap=     0.265 Goal=   None    Shift=    0.000
 Gap=     0.309 Goal=   None    Shift=    0.000
 RMSDP=2.07D-05 MaxDP=2.41D-04 DE=-2.51D-07 OVMax= 3.56D-04

 Cycle   4  Pass 0  IDiag  1:
 E= -113.679039416505     Delta-E=       -0.000000533957 Rises=F Damp=F
 DIIS: error= 6.64D-05 at cycle   4 NSaved=   4.
 NSaved= 4 IEnMin= 4 EnMin= -113.679039416505     IErMin= 4 ErrMin= 6.64D-05
 ErrMax= 6.64D-05  0.00D+00 EMaxC= 1.00D-01 BMatC= 3.23D-07 BMatP= 3.18D-06
 IDIUse=1 WtCom= 1.00D+00 WtEn= 0.00D+00
 Coeff-Com: -0.147D-01 0.118D+00 0.285D+00 0.612D+00
 Coeff:     -0.147D-01 0.118D+00 0.285D+00 0.612D+00
 Gap=     0.265 Goal=   None    Shift=    0.000
 Gap=     0.309 Goal=   None    Shift=    0.000
 RMSDP=7.48D-06 MaxDP=1.30D-04 DE=-5.34D-07 OVMax= 1.01D-04

 Initial convergence to 1.0D-05 achieved.  Increase integral accuracy.
 Cycle   5  Pass 1  IDiag  1:
 E= -113.679038108895     Delta-E=        0.000001307610 Rises=F Damp=F
 DIIS: error= 4.66D-06 at cycle   1 NSaved=   1.
 NSaved= 1 IEnMin= 1 EnMin= -113.679038108895     IErMin= 1 ErrMin= 4.66D-06
 ErrMax= 4.66D-06  0.00D+00 EMaxC= 1.00D-01 BMatC= 1.60D-09 BMatP= 1.60D-09
 IDIUse=1 WtCom= 1.00D+00 WtEn= 0.00D+00
 Coeff-Com:  0.100D+01
 Coeff:      0.100D+01
 Gap=     0.265 Goal=   None    Shift=    0.000
 Gap=     0.309 Goal=   None    Shift=    0.000
 RMSDP=7.48D-06 MaxDP=1.30D-04 DE= 1.31D-06 OVMax= 5.46D-05

 Cycle   6  Pass 1  IDiag  1:
 E= -113.679038110585     Delta-E=       -0.000000001690 Rises=F Damp=F
 DIIS: error= 2.41D-06 at cycle   2 NSaved=   2.
 NSaved= 2 IEnMin= 2 EnMin= -113.679038110585     IErMin= 2 ErrMin= 2.41D-06
 ErrMax= 2.41D-06  0.00D+00 EMaxC= 1.00D-01 BMatC= 8.85D-10 BMatP= 1.60D-09
 IDIUse=1 WtCom= 1.00D+00 WtEn= 0.00D+00
 Coeff-Com:  0.364D+00 0.636D+00
 Coeff:      0.364D+00 0.636D+00
 Gap=     0.265 Goal=   None    Shift=    0.000
 Gap=     0.309 Goal=   None    Shift=    0.000
 RMSDP=7.35D-07 MaxDP=8.48D-06 DE=-1.69D-09 OVMax= 1.60D-05

 Cycle   7  Pass 1  IDiag  1:
 E= -113.679038110933     Delta-E=       -0.000000000348 Rises=F Damp=F
 DIIS: error= 2.76D-06 at cycle   3 NSaved=   3.
 NSaved= 3 IEnMin= 3 EnMin= -113.679038110933     IErMin= 2 ErrMin= 2.41D-06
 ErrMax= 2.76D-06  0.00D+00 EMaxC= 1.00D-01 BMatC= 4.51D-10 BMatP= 8.85D-10
 IDIUse=1 WtCom= 1.00D+00 WtEn= 0.00D+00
 Coeff-Com: -0.735D-01 0.368D+00 0.705D+00
 Coeff:     -0.735D-01 0.368D+00 0.705D+00
 Gap=     0.265 Goal=   None    Shift=    0.000
 Gap=     0.309 Goal=   None    Shift=    0.000
 RMSDP=6.00D-07 MaxDP=8.82D-06 DE=-3.48D-10 OVMax= 1.02D-05

 Cycle   8  Pass 1  IDiag  1:
 E= -113.679038111130     Delta-E=       -0.000000000197 Rises=F Damp=F
 DIIS: error= 1.58D-06 at cycle   4 NSaved=   4.
 NSaved= 4 IEnMin= 4 EnMin= -113.679038111130     IErMin= 4 ErrMin= 1.58D-06
 ErrMax= 1.58D-06  0.00D+00 EMaxC= 1.00D-01 BMatC= 1.68D-10 BMatP= 4.51D-10
 IDIUse=1 WtCom= 1.00D+00 WtEn= 0.00D+00
 Coeff-Com: -0.221D+00-0.909D-01 0.513D+00 0.799D+00
 Coeff:     -0.221D+00-0.909D-01 0.513D+00 0.799D+00
 Gap=     0.265 Goal=   None    Shift=    0.000
 Gap=     0.309 Goal=   None    Shift=    0.000
 RMSDP=4.61D-07 MaxDP=3.66D-06 DE=-1.97D-10 OVMax= 1.36D-05

 Cycle   9  Pass 1  IDiag  1:
 E= -113.679038111227     Delta-E=       -0.000000000097 Rises=F Damp=F
 DIIS: error= 3.33D-07 at cycle   5 NSaved=   5.
 NSaved= 5 IEnMin= 5 EnMin= -113.679038111227     IErMin= 5 ErrMin= 3.33D-07
 ErrMax= 3.33D-07  0.00D+00 EMaxC= 1.00D-01 BMatC= 4.61D-12 BMatP= 1.68D-10
 IDIUse=1 WtCom= 1.00D+00 WtEn= 0.00D+00
 Coeff-Com:  0.209D-01-0.211D-02-0.111D+00-0.442D-01 0.114D+01
 Coeff:      0.209D-01-0.211D-02-0.111D+00-0.442D-01 0.114D+01
 Gap=     0.265 Goal=   None    Shift=    0.000
 Gap=     0.309 Goal=   None    Shift=    0.000
 RMSDP=9.79D-08 MaxDP=8.33D-07 DE=-9.67D-11 OVMax= 2.18D-06

 Cycle  10  Pass 1  IDiag  1:
 E= -113.679038111231     Delta-E=       -0.000000000004 Rises=F Damp=F
 DIIS: error= 8.10D-08 at cycle   6 NSaved=   6.
 NSaved= 6 IEnMin= 6 EnMin= -113.679038111231     IErMin= 6 ErrMin= 8.10D-08
 ErrMax= 8.10D-08  0.00D+00 EMaxC= 1.00D-01 BMatC= 5.61D-13 BMatP= 4.61D-12
 IDIUse=1 WtCom= 1.00D+00 WtEn= 0.00D+00
 Coeff-Com:  0.344D-01 0.131D-01-0.785D-01-0.126D+00-0.397D-01 0.120D+01
 Coeff:      0.344D-01 0.131D-01-0.785D-01-0.126D+00-0.397D-01 0.120D+01
 Gap=     0.265 Goal=   None    Shift=    0.000
 Gap=     0.309 Goal=   None    Shift=    0.000
 RMSDP=4.24D-08 MaxDP=3.95D-07 DE=-4.49D-12 OVMax= 7.51D-07

 Cycle  11  Pass 1  IDiag  1:
 E= -113.679038111232     Delta-E=       -0.000000000001 Rises=F Damp=F
 DIIS: error= 1.79D-08 at cycle   7 NSaved=   7.
 NSaved= 7 IEnMin= 7 EnMin= -113.679038111232     IErMin= 7 ErrMin= 1.79D-08
 ErrMax= 1.79D-08  0.00D+00 EMaxC= 1.00D-01 BMatC= 3.23D-14 BMatP= 5.61D-13
 IDIUse=1 WtCom= 1.00D+00 WtEn= 0.00D+00
 Coeff-Com: -0.118D-04 0.115D-02 0.517D-02-0.297D-02-0.881D-01 0.599D-01
 Coeff-Com:  0.102D+01
 Coeff:     -0.118D-04 0.115D-02 0.517D-02-0.297D-02-0.881D-01 0.599D-01
 Coeff:      0.102D+01
 Gap=     0.265 Goal=   None    Shift=    0.000
 Gap=     0.309 Goal=   None    Shift=    0.000
 RMSDP=7.29D-09 MaxDP=7.62D-08 DE=-5.97D-13 OVMax= 1.23D-07

 SCF Done:  E(UPBE1PBE) =  -113.679038111     A.U. after   11 cycles
            NFock= 11  Conv=0.73D-08     -V/T= 2.0053
 <Sx>= 0.0000 <Sy>= 0.0000 <Sz>= 0.5000 <S**2>= 0.7630 S= 0.5065
 <L.S>= 0.000000000000E+00
 KE= 1.130762491150D+02 PE=-3.185994036869D+02 EE= 6.597154495407D+01
 Annihilation of the first spin contaminant:
 S**2 before annihilation     0.7630,   after     0.7500
 Leave Link  502 at Wed Oct  7 14:33:09 2020, MaxMem=  2684354560 cpu:             102.0 elap:              10.4
 (Enter /udrive/faculty/rpeverati/g16/g16/l508.exe)
 QCSCF skips out because SCF is already converged.
 Leave Link  508 at Wed Oct  7 14:33:09 2020, MaxMem=  2684354560 cpu:               1.1 elap:               0.5
 (Enter /udrive/faculty/rpeverati/g16/g16/l701.exe)
 ... and contract with generalized density number  0.
 Compute integral first derivatives.
 R6Disp: Adding Grimme-D3(BJ) dispersion energy 1st derivatives to the gradient.
 Leave Link  701 at Wed Oct  7 14:33:11 2020, MaxMem=  2684354560 cpu:               7.5 elap:               1.0
 (Enter /udrive/faculty/rpeverati/g16/g16/l702.exe)
 L702 exits ... SP integral derivatives will be done elsewhere.
 Leave Link  702 at Wed Oct  7 14:33:11 2020, MaxMem=  2684354560 cpu:               1.5 elap:               0.7
 (Enter /udrive/faculty/rpeverati/g16/g16/l703.exe)
 Integral derivatives from FoFJK, PRISM(SPDF).
 Compute integral first derivatives, UseDBF=F ICtDFT=           0.
 Calling FoFJK, ICntrl=      2127 FMM=F ISym2X=1 I1Cent= 0 IOpClX= 1 NMat=1 NMatS=1 NMatT=0.
 FoFJK:  IHMeth= 1 ICntrl=    2127 DoSepK=F KAlg= 0 I1Cent=           0 FoldK=F
 IRaf=         0 NMat=       1 IRICut=       1 DoRegI=T DoRafI=F ISym2E= 1 IDoP0=0 IntGTp=1.
 FoFCou: FMM=F IPFlag=           0 FMFlag=      100000 FMFlg1=         800
         NFxFlg=           0 DoJE=F BraDBF=F KetDBF=F FulRan=T
         wScrn=  0.000000 ICntrl=      2127 IOpCl=  1 I1Cent=           0 NGrid=           0
         NMat0=    1 NMatS0=      1 NMatT0=    0 NMatD0=    1 NMtDS0=    0 NMtDT0=    0
 Petite list used in FoFCou.
 Leave Link  703 at Wed Oct  7 14:33:13 2020, MaxMem=  2684354560 cpu:              13.6 elap:               1.8
 (Enter /udrive/faculty/rpeverati/g16/g16/l716.exe)
 Dipole        =-2.09408981D-02 2.23892675D-02 4.73117131D-32
 ***** Axes restored to original set *****
 -------------------------------------------------------------------
 Center     Atomic                   Forces (Hartrees/Bohr)
 Number     Number              X              Y              Z
 -------------------------------------------------------------------
      1        6           0.008098325   -0.000000000   -0.031096048
      2        8          -0.001648007    0.000000000    0.029224646
      3        1          -0.006450318    0.000000000    0.001871403
 -------------------------------------------------------------------
 Cartesian Forces:  Max     0.031096048 RMS     0.014660801
 Leave Link  716 at Wed Oct  7 14:33:14 2020, MaxMem=  2684354560 cpu:               2.3 elap:               0.7
 (Enter /udrive/faculty/rpeverati/g16/g16/l103.exe)

 GradGradGradGradGradGradGradGradGradGradGradGradGradGradGradGradGradGrad
 Berny optimization.
 Optmz: redundant internal coordinate code flag= 1
 Red2BG:  D1=  4.93D-01 OD1=  1.69D-03 B2RMS=  0.00D+00 IAprox=0
 FormGI is forming the generalized inverse of G from B-inverse, IUseBI=4.
 Internal  Forces:  Max     0.029224985 RMS     0.017420987
 Search for a saddle point.
 Step number   1 out of a maximum of   50
 All quantities printed in internal units (Hartrees-Bohrs-Radians)
 Swapping is turned off.
 Second derivative matrix not updated -- first step.
 The second derivative matrix:
                          R1        R2        A1
           R1           1.32778
           R2           0.03221  -0.02661
           A1           0.01033   0.00985   0.16000
 ITU=  0
 Eigenvectors of the second derivative matrix:
                           1         2         3
     Eigenvalues --    -0.02787   0.16040   1.32864
   1         R1        -0.02333   0.01024   0.99968
   2         R2         0.99842  -0.05084   0.02382
   3         A1        -0.05107  -0.99865   0.00903
 RLam0= 1.82D-03.
 Iter=   1 RLamda= 0.00000000D+00 Sum=-6.79588685D-04.
 Iter=   2 RLamda=-6.79588685D-04 Sum=-6.79057233D-04.
 Iter=   3 RLamda=-6.79057233D-04 Sum=-6.79057648D-04.
 RFO step:  Lambda0=1.820423648D-03 Lambda=-6.79057233D-04.
 Linear search not attempted -- option 19 set.
 Maximum step size (   0.100) exceeded in Quadratic search.
    -- Step size scaled by   0.401
 Iteration  1 RMS(Cart)=  0.04753806 RMS(Int)=  0.00007550
 Iteration  2 RMS(Cart)=  0.00010036 RMS(Int)=  0.00000001
 Iteration  3 RMS(Cart)=  0.00000000 RMS(Int)=  0.00000000
 ITry= 1 IFail=0 DXMaxC= 5.34D-02 DCOld= 1.00D+10 DXMaxT= 1.00D-01 DXLimC= 3.00D+00 Rises=F
 ClnCor:  largest displacement from symmetrization is 2.75D-15 for atom     3.
 Variable       Old X    -DE/DX   Delta X   Delta X   Delta X     New X
                                 (Linear)    (Quad)   (Total)
    R1        2.13510   0.02906   0.00000   0.00634   0.00634   2.14144
    R2        3.48961  -0.00651   0.00000   0.09978   0.09978   3.58939
    A1        2.00371   0.00345   0.00000   0.00202   0.00202   2.00573
         Item               Value     Threshold  Converged?
 Maximum Force            0.029064     0.000450     NO 
 RMS     Force            0.017311     0.000300     NO 
 Maximum Displacement     0.053410     0.001800     NO 
 RMS     Displacement     0.047582     0.001200     NO 
 Predicted change in Energy= 3.750726D-04
 Lowest energy point so far.  Saving SCF results.
 Largest change from initial coordinates is atom    3       0.035 Angstoms.
 GradGradGradGradGradGradGradGradGradGradGradGradGradGradGradGradGradGrad

 Leave Link  103 at Wed Oct  7 14:33:16 2020, MaxMem=  2684354560 cpu:               5.7 elap:               0.8
 (Enter /udrive/faculty/rpeverati/g16/g16/l202.exe)
                          Input orientation:                          
 ---------------------------------------------------------------------
 Center     Atomic      Atomic             Coordinates (Angstroms)
 Number     Number       Type             X           Y           Z
 ---------------------------------------------------------------------
      1          6           0       -0.015753    0.000000    0.009071
      2          8           0       -0.012510    0.000000    1.142270
      3          1           0        1.704533   -0.000000   -0.796181
 ---------------------------------------------------------------------
                    Distance matrix (angstroms):
                    1          2          3
     1  C    0.000000
     2  O    1.133203   0.000000
     3  H    1.899424   2.589561   0.000000
 Stoichiometry    CHO(2)
 Framework group  CS[SG(CHO)]
 Deg. of freedom     3
 Full point group                 CS      NOp   2
 RotChk:  IX=0 Diff= 4.39D-03
 Largest Abelian subgroup         CS      NOp   2
 Largest concise Abelian subgroup C1      NOp   1
                         Standard orientation:                         
 ---------------------------------------------------------------------
 Center     Atomic      Atomic             Coordinates (Angstroms)
 Number     Number       Type             X           Y           Z
 ---------------------------------------------------------------------
      1          6           0        0.114839    0.551020   -0.000000
      2          8           0        0.114839   -0.582183    0.000000
      3          1           0       -1.607744    1.351347   -0.000000
 ---------------------------------------------------------------------
 Rotational constants (GHZ):         229.1751739          43.8512384          36.8082161
 Leave Link  202 at Wed Oct  7 14:33:16 2020, MaxMem=  2684354560 cpu:               2.4 elap:               0.6
 (Enter /udrive/faculty/rpeverati/g16/g16/l301.exe)
 Standard basis: 6-31G(d) (5D, 7F)
 Ernie: Thresh=  0.10000D-02 Tol=  0.10000D-05 Strict=F.
 There are    24 symmetry adapted cartesian basis functions of A'  symmetry.
 There are     8 symmetry adapted cartesian basis functions of A"  symmetry.
 There are    22 symmetry adapted basis functions of A'  symmetry.
 There are     8 symmetry adapted basis functions of A"  symmetry.
    30 basis functions,    60 primitive gaussians,    32 cartesian basis functions
     8 alpha electrons        7 beta electrons
       nuclear repulsion energy        25.7211771649 Hartrees.
 IExCor= 1009 DFT=T Ex+Corr=PBE1PBE ExCW=0 ScaHFX=  0.250000
 ScaDFX=  0.750000  0.750000  1.000000  1.000000 ScalE2=  1.000000  1.000000
 IRadAn=      5 IRanWt=     -1 IRanGd=            0 ICorTp=0 IEmpDi=141
 NAtoms=    3 NActive=    3 NUniq=    3 SFac= 1.00D+00 NAtFMM=   60 NAOKFM=F Big=F
 Integral buffers will be    131072 words long.
 Raffenetti 2 integral format.
 Two-electron integral symmetry is turned on.
 R6Disp:  Grimme-D3(BJ) Dispersion energy=       -0.0007931255 Hartrees.
 Nuclear repulsion after empirical dispersion term =       25.7203840394 Hartrees.
 Leave Link  301 at Wed Oct  7 14:33:17 2020, MaxMem=  2684354560 cpu:               2.9 elap:               0.7
 (Enter /udrive/faculty/rpeverati/g16/g16/l302.exe)
 NPDir=0 NMtPBC=     1 NCelOv=     1 NCel=       1 NClECP=     1 NCelD=      1
         NCelK=      1 NCelE2=     1 NClLst=     1 CellRange=     0.0.
 One-electron integrals computed using PRISM.
 One-electron integral symmetry used in STVInt
 NBasis=    30 RedAO= T EigKep=  1.51D-02  NBF=    22     8
 NBsUse=    30 1.00D-06 EigRej= -1.00D+00 NBFU=    22     8
 Precomputing XC quadrature grid using
 IXCGrd= 4 IRadAn=           5 IRanWt=          -1 IRanGd=           0 AccXCQ= 0.00D+00.
 Generated NRdTot=       0 NPtTot=           0 NUsed=           0 NTot=          32
 NSgBfM=    32    32    32    32    32 MxSgAt=     3 MxSgA2=     3.
 Leave Link  302 at Wed Oct  7 14:33:19 2020, MaxMem=  2684354560 cpu:               9.2 elap:               1.2
 (Enter /udrive/faculty/rpeverati/g16/g16/l303.exe)
 DipDrv:  MaxL=1.
 Leave Link  303 at Wed Oct  7 14:33:20 2020, MaxMem=  2684354560 cpu:               3.1 elap:               0.6
 (Enter /udrive/faculty/rpeverati/g16/g16/l401.exe)
 Initial guess from the checkpoint file:  "MN_51_hcots_BH76_PBE0DBJ_631Gs.chk"
 SCF N**3 symmetry information disabled.
 B after Tr=     0.000000   -0.000000    0.000000
         Rot=    0.999999   -0.000000   -0.000000   -0.001097 Ang=  -0.13 deg.
 Guess basis will be translated and rotated to current coordinates.
 JPrj=2 DoOrth=T DoCkMO=T.
 Initial guess orbital symmetries:
 Alpha Orbitals:
       Occupied  (A') (A') (A') (A') (A') (A") (A') (A')
       Virtual   (A") (A') (A') (A") (A') (A') (A') (A') (A') (A")
                 (A') (A") (A') (A') (A') (A") (A") (A') (A') (A")
                 (A') (A')
 Beta  Orbitals:
       Occupied  (A') (A') (A') (A') (A") (A') (A')
       Virtual   (A') (A") (A') (A') (A") (A') (A') (A') (A') (A')
                 (A") (A') (A") (A') (A') (A") (A') (A") (A') (A')
                 (A") (A') (A')
 The electronic state of the initial guess is 2-A'.
 Initial guess <Sx>= 0.0000 <Sy>= 0.0000 <Sz>= 0.5000 <S**2>= 0.7633 S= 0.5066
 Generating alternative initial guess.
 ExpMin= 1.61D-01 ExpMax= 5.48D+03 ExpMxC= 8.25D+02 IAcc=2 IRadAn=         4 AccDes= 0.00D+00
 Harris functional with IExCor= 1009 and IRadAn=       4 diagonalized for initial guess.
 HarFok:  IExCor= 1009 AccDes= 0.00D+00 IRadAn=         4 IDoV= 1 UseB2=F ITyADJ=14
 ICtDFT=  3500011 ScaDFX=  1.000000  1.000000  1.000000  1.000000
 FoFCou: FMM=F IPFlag=           0 FMFlag=      100000 FMFlg1=           0
         NFxFlg=           0 DoJE=T BraDBF=F KetDBF=T FulRan=T
         wScrn=  0.000000 ICntrl=       500 IOpCl=  0 I1Cent=   200000004 NGrid=           0
         NMat0=    1 NMatS0=      1 NMatT0=    0 NMatD0=    1 NMtDS0=    0 NMtDT0=    0
 Petite list used in FoFCou.
 Harris En= -113.652336780189    
 Leave Link  401 at Wed Oct  7 14:33:22 2020, MaxMem=  2684354560 cpu:              22.9 elap:               2.6
 (Enter /udrive/faculty/rpeverati/g16/g16/l502.exe)
 Keep R1 and R2 ints in memory in symmetry-blocked form, NReq=10465801.
 FoFCou: FMM=F IPFlag=           0 FMFlag=           0 FMFlg1=           0
         NFxFlg=           0 DoJE=F BraDBF=F KetDBF=F FulRan=T
         wScrn=  0.000000 ICntrl=       600 IOpCl=  0 I1Cent=           0 NGrid=           0
         NMat0=    1 NMatS0=    465 NMatT0=    0 NMatD0=    1 NMtDS0=    0 NMtDT0=    0
 Petite list used in FoFCou.
 UHF open shell SCF:
 Using DIIS extrapolation, IDIIS=  1040.
 NGot=  2684354560 LenX=  2684235289 LenY=  2684233824
[...]
     1 C(13)  Bbb    -0.0272    -3.651    -1.303    -1.218  0.0000  0.0000  1.0000
              Bcc     0.1293    17.344     6.189     5.785  0.6126  0.7904  0.0000
 
              Baa    -0.1450    10.489     3.743     3.499 -0.3695  0.9292  0.0000
     2 O(17)  Bbb    -0.1281     9.266     3.306     3.091  0.0000  0.0000  1.0000
              Bcc     0.2730   -19.756    -7.049    -6.590  0.9292  0.3695  0.0000
 
              Baa    -0.0080    -4.294    -1.532    -1.432  0.9490 -0.3154  0.0000
     3 H(1)   Bbb     0.0038     2.041     0.728     0.681  0.0000  0.0000  1.0000
              Bcc     0.0042     2.253     0.804     0.752  0.3154  0.9490  0.0000
 

 ---------------------------------------------------------------------------------

 No NMR shielding tensors so no spin-rotation constants.
 Leave Link  601 at Wed Oct  7 14:36:05 2020, MaxMem=  2684354560 cpu:              16.0 elap:               1.8
 (Enter /udrive/faculty/rpeverati/g16/g16/l701.exe)
 ... and contract with generalized density number  0.
 Compute integral second derivatives.
 R6Disp: Adding Grimme-D3(BJ) dispersion energy 2nd derivatives to the Hessian.
 Leave Link  701 at Wed Oct  7 14:36:07 2020, MaxMem=  2684354560 cpu:               8.1 elap:               1.0
 (Enter /udrive/faculty/rpeverati/g16/g16/l702.exe)
 L702 exits ... SP integral derivatives will be done elsewhere.
 Leave Link  702 at Wed Oct  7 14:36:07 2020, MaxMem=  2684354560 cpu:               2.1 elap:               0.5
 (Enter /udrive/faculty/rpeverati/g16/g16/l703.exe)
 Integral derivatives from FoFJK, PRISM(SPDF).
 Compute integral second derivatives, UseDBF=F ICtDFT=           0.
 Calling FoFJK, ICntrl=    100127 FMM=F ISym2X=1 I1Cent= 0 IOpClX= 1 NMat=1 NMatS=1 NMatT=0.
 FoFJK:  IHMeth= 1 ICntrl=  100127 DoSepK=F KAlg= 0 I1Cent=           0 FoldK=F
 IRaf=         0 NMat=       1 IRICut=       1 DoRegI=T DoRafI=F ISym2E= 1 IDoP0=0 IntGTp=1.
 FoFCou: FMM=F IPFlag=           0 FMFlag=      100000 FMFlg1=         800
         NFxFlg=           0 DoJE=F BraDBF=F KetDBF=F FulRan=T
         wScrn=  0.000000 ICntrl=    100127 IOpCl=  1 I1Cent=           0 NGrid=           0
         NMat0=    1 NMatS0=      1 NMatT0=    0 NMatD0=    1 NMtDS0=    0 NMtDT0=    0
 Petite list used in FoFCou.
 Leave Link  703 at Wed Oct  7 14:36:09 2020, MaxMem=  2684354560 cpu:              17.7 elap:               1.9
 (Enter /udrive/faculty/rpeverati/g16/g16/l716.exe)
 Dipole        =-1.06819090D-02 3.07321794D-03 1.17580620D-31
 Polarizability= 1.56310939D+01-4.14707315D+00 1.51969845D+01
                 1.03043077D-12-3.19262951D-13 7.95953301D+00
 Full mass-weighted force constant matrix:
 Low frequencies --- -494.3073  -10.8989   -6.0066   -0.0015   -0.0008    0.0010
 Low frequencies ---   18.1532  282.9931 2208.3507
 ******    1 imaginary frequencies (negative Signs) ****** 
 Diagonal vibrational polarizability:
        0.3367720       0.9214682       0.0000000
 Harmonic frequencies (cm**-1), IR intensities (KM/Mole), Raman scattering
 activities (A**4/AMU), depolarization ratios for plane and unpolarized
 incident light, reduced masses (AMU), force constants (mDyne/A),
 and normal coordinates:
                      1                      2                      3
                     A'                     A'                     A'
 Frequencies --   -494.3072               282.9930              2208.3507
 Red. masses --      1.0860                 1.5320                13.3013
 Frc consts  --      0.1563                 0.0723                38.2192
 IR Inten    --      2.7358                 0.9197               117.4087
  Atom  AN      X      Y      Z        X      Y      Z        X      Y      Z
     1   6    -0.08   0.02   0.00    -0.17  -0.03   0.00     0.01   0.79   0.00
     2   8     0.00   0.01   0.00     0.11  -0.03  -0.00     0.00  -0.60  -0.00
     3   1     0.91  -0.41  -0.00     0.26   0.94   0.00    -0.10   0.05   0.00

 -------------------
 - Thermochemistry -
 -------------------
 Temperature   298.150 Kelvin.  Pressure   1.00000 Atm.
 Atom     1 has atomic number  6 and mass  12.00000
 Atom     2 has atomic number  8 and mass  15.99491
 Atom     3 has atomic number  1 and mass   1.00783
 Molecular mass:    29.00274 amu.
 Principal axes and moments of inertia in atomic units:
                           1         2         3
     Eigenvalues --     8.77413  43.37372  52.14784
           X           -0.30557   0.95217   0.00000
           Y            0.95217   0.30557   0.00000
           Z            0.00000   0.00000   1.00000
 This molecule is an asymmetric top.
 Rotational symmetry number  1.
 Rotational temperatures (Kelvin)      9.87152     1.99692     1.66093
 Rotational constants (GHZ):         205.68900    41.60910    34.60817
    1 imaginary frequencies ignored.
 Zero-point vibrational energy      14901.5 (Joules/Mol)
                                    3.56155 (Kcal/Mol)
 Warning -- explicit consideration of   1 degrees of freedom as
           vibrations may cause significant error
 Vibrational temperatures:    407.16  3177.32
          (Kelvin)
 
 Zero-point correction=                           0.005676 (Hartree/Particle)
 Thermal correction to Energy=                    0.008950
 Thermal correction to Enthalpy=                  0.009895
 Thermal correction to Gibbs Free Energy=        -0.016978
 Sum of electronic and zero-point Energies=           -113.672452
 Sum of electronic and thermal Energies=              -113.669177
 Sum of electronic and thermal Enthalpies=            -113.668233
 Sum of electronic and thermal Free Energies=         -113.695105
 
                     E (Thermal)             CV                S
                      KCal/Mol        Cal/Mol-Kelvin    Cal/Mol-Kelvin
 Total                    5.616              7.672             56.557
 Electronic               0.000              0.000              1.377
 Translational            0.889              2.981             36.028
 Rotational               0.889              2.981             17.635
 Vibrational              3.839              1.710              1.516
 Vibration     1          0.682              1.705              1.516
                       Q            Log10(Q)             Ln(Q)
 Total Bot       0.644414D+08          7.809165         17.981267
 Total V=0       0.262907D+11         10.419803         23.992483
 Vib (Bot)       0.329112D-02         -2.482656         -5.716527
 Vib (Bot)    1  0.678309D+00         -0.168572         -0.388152
 Vib (V=0)       0.134271D+01          0.127982          0.294688
 Vib (V=0)    1  0.134268D+01          0.127971          0.294665
 Electronic      0.200000D+01          0.301030          0.693147
 Translational   0.613921D+07          6.788112         15.630206
 Rotational      0.159470D+04          3.202679          7.374441
 
                                                          TS search on BH76.
                                                             IR Spectrum
 
     2                                                                                                                               
     2                                                                                                              2                
     0                                                                                                              8                
     8                                                                                                              3                
 
     X                                                                                                              X                
     X                                                                                                                               
     X                                                                                                                               
     X                                                                                                                               
     X                                                                                                                               
     X                                                                                                                               
     X                                                                                                                               
     X                                                                                                                               
     X                                                                                                                               
     X                                                                                                                               
     X                                                                                                                               
     X                                                                                                                               
     X                                                                                                                               
     X                                                                                                                               
     X                                                                                                                               
     X                                                                                                                               
     X                                                                                                                               
     X                                                                                                                               
     X                                                                                                                               
     X                                                                                                                               
 
 ***** Axes restored to original set *****
 -------------------------------------------------------------------
 Center     Atomic                   Forces (Hartrees/Bohr)
 Number     Number              X              Y              Z
 -------------------------------------------------------------------
      1        6           0.000084352   -0.000000000    0.000010989
      2        8          -0.000056376    0.000000000    0.000009732
      3        1          -0.000027976    0.000000000   -0.000020721
 -------------------------------------------------------------------
 Cartesian Forces:  Max     0.000084352 RMS     0.000036088
 Force constants in Cartesian coordinates: 
                1             2             3             4             5 
      1  0.318532D-03
      2  0.000000D+00  0.319229D-04
      3  0.186026D-01  0.000000D+00  0.125808D+01
      4 -0.662385D-02  0.000000D+00 -0.350629D-02  0.608702D-02
      5  0.000000D+00 -0.816851D-05  0.000000D+00  0.000000D+00 -0.962257D-05
      6 -0.114526D-01  0.000000D+00 -0.126497D+01  0.257992D-04  0.000000D+00
      7  0.630532D-02  0.000000D+00 -0.150963D-01  0.536827D-03  0.000000D+00
      8  0.000000D+00 -0.237544D-04  0.000000D+00  0.000000D+00  0.177911D-04
      9 -0.714995D-02  0.000000D+00  0.688729D-02  0.348049D-02  0.000000D+00
                6             7             8             9 
      6  0.127220D+01
      7  0.114268D-01 -0.684215D-02
      8  0.000000D+00  0.000000D+00  0.596329D-05
      9 -0.723262D-02  0.366947D-02  0.000000D+00  0.345336D-03
 FormGI is forming the generalized inverse of G from B-inverse, IUseBI=4.
 Force constants in internal coordinates: 
                1             2             3 
      1  0.127219D+01
      2  0.134433D-01 -0.834894D-02
      3  0.564104D-02  0.232930D-02  0.282313D-01
 Leave Link  716 at Wed Oct  7 14:36:10 2020, MaxMem=  2684354560 cpu:               5.0 elap:               0.7
 (Enter /udrive/faculty/rpeverati/g16/g16/l103.exe)

 GradGradGradGradGradGradGradGradGradGradGradGradGradGradGradGradGradGrad
 Berny optimization.
 Optmz: redundant internal coordinate code flag= 1
 Red2BG:  D1=  4.67D-01 OD1=  5.00D-16 B2RMS=  0.00D+00 IAprox=1
 Red2BG is reusing G-inverse.
 Internal  Forces:  Max     0.000121185 RMS     0.000070791
 Search for a local minimum.
 Step number   1 out of a maximum of    2
 All quantities printed in internal units (Hartrees-Bohrs-Radians)
 Second derivative matrix not updated -- analytic derivatives used.
 The second derivative matrix:
                          R1        R2        A1
           R1           1.27219
           R2           0.01344  -0.00835
           A1           0.00564   0.00233   0.02823
 ITU=  0
 Eigenvectors of the second derivative matrix:
                           1         2         3
     Eigenvalues --    -0.00863   0.02835   1.27236
   1         R1         0.01020  -0.00519   0.99993
   2         R2        -0.99805   0.06146   0.01050
   3         A1         0.06151   0.99810   0.00455
 Eigenvalue     1 is  -8.63D-03 should be greater than     0.000000 Eigenvector:
                          R2        A1        R1
   1                   -0.99805   0.06151   0.01020
 Angle between quadratic step and forces=  22.14 degrees.
 Linear search not attempted -- first point.
 Iteration  1 RMS(Cart)=  0.00318493 RMS(Int)=  0.00000686
 Iteration  2 RMS(Cart)=  0.00000577 RMS(Int)=  0.00000000
 Iteration  3 RMS(Cart)=  0.00000000 RMS(Int)=  0.00000000
 ITry= 1 IFail=0 DXMaxC= 3.73D-03 DCOld= 1.00D+10 DXMaxT= 3.00D-01 DXLimC= 3.00D+00 Rises=F
 ClnCor:  largest displacement from symmetrization is 1.60D-15 for atom     3.
 Variable       Old X    -DE/DX   Delta X   Delta X   Delta X     New X
                                 (Linear)    (Quad)   (Total)
    R1        2.15028   0.00001   0.00000   0.00001   0.00001   2.15029
    R2        3.91018  -0.00002   0.00000  -0.00246  -0.00246   3.90772
    A1        2.02548   0.00012   0.00000   0.00439   0.00439   2.02987
         Item               Value     Threshold  Converged?
 Maximum Force            0.000121     0.000450     YES
 RMS     Force            0.000071     0.000300     YES
 Maximum Displacement     0.003726     0.001800     NO 
 RMS     Displacement     0.003183     0.001200     NO 
 Predicted change in Energy=-3.497165D-07
                           ----------------------------
                           ! Non-Optimized Parameters !
                           ! (Angstroms and Degrees)  !
 --------------------------                            --------------------------
 ! Name  Definition              Value          Derivative Info.                !
 --------------------------------------------------------------------------------
 ! R1    R(1,2)                  1.1379         -DE/DX =    0.0                 !
 ! R2    R(1,3)                  2.0679         -DE/DX =    0.0                 !
 ! A1    A(2,1,3)              116.3031         -DE/DX =    0.0001              !
 --------------------------------------------------------------------------------
 GradGradGradGradGradGradGradGradGradGradGradGradGradGradGradGradGradGrad

 Leave Link  103 at Wed Oct  7 14:36:12 2020, MaxMem=  2684354560 cpu:               7.3 elap:               1.1
 (Enter /udrive/faculty/rpeverati/g16/g16/l9999.exe)

 ----------------------------------------------------------------------

 Electric dipole moment (input orientation):
 (Debye = 10**-18 statcoulomb cm , SI units = C m)
                  (au)            (Debye)         (10**-30 SI)
   Tot        0.111152D-01      0.282520D-01      0.942387D-01
   x          0.106754D-01      0.271341D-01      0.905097D-01
   y          0.000000D+00      0.000000D+00      0.000000D+00
   z         -0.309580D-02     -0.786874D-02     -0.262473D-01

 Dipole polarizability, Alpha (input orientation).
 (esu units = cm**3 , SI units = C**2 m**2 J**-1)
 Alpha(0;0):
               (au)            (10**-24 esu)      (10**-40 SI)
   iso        0.129292D+02      0.191591D+01      0.213174D+01
   aniso      0.103588D+02      0.153502D+01      0.170794D+01
   xx         0.156136D+02      0.231369D+01      0.257433D+01
   yx         0.000000D+00      0.000000D+00      0.000000D+00
   yy         0.795953D+01      0.117948D+01      0.131235D+01
   zx        -0.414795D+01     -0.614663D+00     -0.683905D+00
   zy         0.000000D+00      0.000000D+00      0.000000D+00
   zz         0.152145D+02      0.225456D+01      0.250854D+01

 ----------------------------------------------------------------------

 Dipole orientation:
     6          0.04648586          0.00000000         -0.13360592
     8          2.11294234          0.00000000         -0.72813178
     1         -0.63256618          0.00000000          3.71715469

 Electric dipole moment (dipole orientation):
 (Debye = 10**-18 statcoulomb cm , SI units = C m)
                  (au)            (Debye)         (10**-30 SI)
   Tot        0.111152D-01      0.282520D-01      0.942387D-01
   x          0.000000D+00      0.000000D+00      0.000000D+00
   y          0.000000D+00      0.000000D+00      0.000000D+00
   z          0.111152D-01      0.282520D-01      0.942387D-01

 Dipole polarizability, Alpha (dipole orientation).
 (esu units = cm**3 , SI units = C**2 m**2 J**-1)
 Alpha(0;0):
               (au)            (10**-24 esu)      (10**-40 SI)
   iso        0.129292D+02      0.191591D+01      0.213174D+01
   aniso      0.103588D+02      0.153502D+01      0.170794D+01
   xx         0.130263D+02      0.193030D+01      0.214775D+01
   yx         0.000000D+00      0.000000D+00      0.000000D+00
   yy         0.795953D+01      0.117948D+01      0.131235D+01
   zx        -0.339768D+01     -0.503484D+00     -0.560201D+00
   zy         0.000000D+00      0.000000D+00      0.000000D+00
   zz         0.178017D+02      0.263795D+01      0.293511D+01

 ----------------------------------------------------------------------

 Test job not archived.
 1\1\GINC-NODE58\Freq\UPBE1PBE\6-31G(d)\C1H1O1(2)\RPEVERATI\07-Oct-2020
 \0\\#P Freq PBE1PBE/6-31G* 5D 7F Integral=UltraFineGrid SCF=(NoSymm,XQ
 C,MaxCyc=120) EmpiricalDispersion=GD3BJ IOp(1/33=1) Geom=Check Guess=R
 ead\\TS search on BH76.\\0,2\C,-0.0610522411,0.,0.0433175299\O,-0.0586
 460273,0.,1.1811940717\H,1.7959678676,0.,-0.8693509115\\Version=ES64L-
 G16RevA.03\State=2-A'\HF=-113.6781277\S2=0.756455\S2-1=0.\S2A=0.750001
 \RMSD=9.774e-10\RMSF=3.609e-05\ZeroPoint=0.0056757\Thermal=0.0089503\D
 ipole=0.0106754,0.,-0.0030958\DipoleDeriv=-0.0434155,0.,-0.018466,0.,-
 0.0040414,0.,-0.2835716,0.,0.8808285,0.0401326,0.,-0.017141,0.,0.00100
 03,0.,0.2600515,0.,-0.85698,0.0032829,0.,0.0356069,0.,0.0030411,0.,0.0
 235201,0.,-0.0238486\Polar=15.6135528,0.,7.959533,-4.1479541,0.,15.214
 5256\Quadrupole=0.4203769,0.5072291,-0.9276059,0.,-0.0343358,0.\PG=CS 
 [SG(C1H1O1)]\NImag=1\\0.00031853,0.,0.00003192,0.01860259,0.,1.2580791
 6,-0.00662385,0.,-0.00350629,0.00608702,0.,-0.00000817,0.,0.,-0.000009
 62,-0.01145263,0.,-1.26496645,0.00002580,0.,1.27219907,0.00630532,0.,-
 0.01509630,0.00053683,0.,0.01142683,-0.00684215,0.,-0.00002375,0.,0.,0
 .00001779,0.,0.,0.00000596,-0.00714995,0.,0.00688729,0.00348049,0.,-0.
 00723262,0.00366947,0.,0.00034534\\-0.00008435,0.,-0.00001099,0.000056
 38,0.,-0.00000973,0.00002798,0.,0.00002072\\\@


 ONE OF THE BENEFITS OF A COLLEGE EDUCATION
 IS TO SHOW THE BOY ITS LITTLE AVAIL 
                                    EMERSON IN 'CULTURE'
 Job cpu time:       0 days  0 hours  4 minutes 23.7 seconds.
 Elapsed time:       0 days  0 hours  0 minutes 32.4 seconds.
 File lengths (MBytes):  RWF=      5 Int=      0 D2E=      0 Chk=      1 Scr=      1
 Normal termination of Gaussian 16 at Wed Oct  7 14:36:13 2020.
