 Entering Gaussian System, Link 0=g16
 Input=MN_71_NH3_BH76_PBE0DBJ_631Gs.in
 Output=MN_71_NH3_BH76_PBE0DBJ_631Gs.log
 Initial command:
 /udrive/faculty/rpeverati/g16/g16/l1.exe "/udrive/scratch-directories/gaussian09/rpeverati/Gau-27115.inp" -scrdir="/udrive/scratch-directories/gaussian09/rpeverati/"
 Entering Link 1 = /udrive/faculty/rpeverati/g16/g16/l1.exe PID=     27132.
  
 Copyright (c) 1988,1990,1992,1993,1995,1998,2003,2009,2016,
            Gaussian, Inc.  All Rights Reserved.
  
 This is part of the Gaussian(R) 16 program.  It is based on
 the Gaussian(R) 09 system (copyright 2009, Gaussian, Inc.),
 the Gaussian(R) 03 system (copyright 2003, Gaussian, Inc.),
 the Gaussian(R) 98 system (copyright 1998, Gaussian, Inc.),
 the Gaussian(R) 94 system (copyright 1995, Gaussian, Inc.),
 the Gaussian 92(TM) system (copyright 1992, Gaussian, Inc.),
 the Gaussian 90(TM) system (copyright 1990, Gaussian, Inc.),
 the Gaussian 88(TM) system (copyright 1988, Gaussian, Inc.),
 the Gaussian 86(TM) system (copyright 1986, Carnegie Mellon
 University), and the Gaussian 82(TM) system (copyright 1983,
 Carnegie Mellon University). Gaussian is a federally registered
 trademark of Gaussian, Inc.
  
 This software contains proprietary and confidential information,
 including trade secrets, belonging to Gaussian, Inc.
  
 This software is provided under written license and may be
 used, copied, transmitted, or stored only in accord with that
 written license.
  
 The following legend is applicable only to US Government
 contracts under FAR:
  
                    RESTRICTED RIGHTS LEGEND
  
 Use, reproduction and disclosure by the US Government is
 subject to restrictions as set forth in subparagraphs (a)
 and (c) of the Commercial Computer Software - Restricted
 Rights clause in FAR 52.227-19.
  
 Gaussian, Inc.
 340 Quinnipiac St., Bldg. 40, Wallingford CT 06492
  
  
 ---------------------------------------------------------------
 Warning -- This program may not be used in any manner that
 competes with the business of Gaussian, Inc. or will provide
 assistance to any competitor of Gaussian, Inc.  The licensee
 of this program is prohibited from giving any competitor of
 Gaussian, Inc. access to this program.  By using this program,
 the user acknowledges that Gaussian, Inc. is engaged in the
 business of creating and licensing software in the field of
 computational chemistry and represents and warrants to the
 licensee that it is not a competitor of Gaussian, Inc. and that
 it will not use this program in any manner prohibited above.
 ---------------------------------------------------------------
  

 Cite this work as:
 Gaussian 16, Revision A.03,
 M. J. Frisch, G. W. Trucks, H. B. Schlegel, G. E. Scuseria, 
 M. A. Robb, J. R. Cheeseman, G. Scalmani, V. Barone, 
 G. A. Petersson, H. Nakatsuji, X. Li, M. Caricato, A. V. Marenich, 
 J. Bloino, B. G. Janesko, R. Gomperts, B. Mennucci, H. P. Hratchian, 
 J. V. Ortiz, A. F. Izmaylov, J. L. Sonnenberg, D. Williams-Young, 
 F. Ding, F. Lipparini, F. Egidi, J. Goings, B. Peng, A. Petrone, 
 T. Henderson, D. Ranasinghe, V. G. Zakrzewski, J. Gao, N. Rega, 
 G. Zheng, W. Liang, M. Hada, M. Ehara, K. Toyota, R. Fukuda, 
 J. Hasegawa, M. Ishida, T. Nakajima, Y. Honda, O. Kitao, H. Nakai, 
 T. Vreven, K. Throssell, J. A. Montgomery, Jr., J. E. Peralta, 
 F. Ogliaro, M. J. Bearpark, J. J. Heyd, E. N. Brothers, K. N. Kudin, 
 V. N. Staroverov, T. A. Keith, R. Kobayashi, J. Normand, 
 K. Raghavachari, A. P. Rendell, J. C. Burant, S. S. Iyengar, 
 J. Tomasi, M. Cossi, J. M. Millam, M. Klene, C. Adamo, R. Cammi, 
 J. W. Ochterski, R. L. Martin, K. Morokuma, O. Farkas, 
 J. B. Foresman, and D. J. Fox, Gaussian, Inc., Wallingford CT, 2016.
 
 ******************************************
 Gaussian 16:  ES64L-G16RevA.03 25-Dec-2016
                 7-Oct-2020 
 ******************************************
 %NoSave
 %nproc=12
 Will use up to   12 processors via shared memory.
 %mem=20GB
 %chk=MN_71_NH3_BH76_PBE0DBJ_631Gs
 ----------------------------------------------------------------------
 #P Opt(MaxCyc=100) PBE1PBE/6-31G* 5D 7F Integral=UltraFineGrid SCF=(No
 Symm,XQC,MaxCyc=120) EmpiricalDispersion=GD3BJ IOp(1/33=1)
 ----------------------------------------------------------------------
 1/6=100,18=20,19=15,26=4,33=1,38=1/1,3;
 2/9=110,12=2,17=6,18=5,40=1/2;
 3/5=1,6=6,7=1,8=11,11=2,25=1,30=1,71=1,74=-13,75=-5,124=41/1,2,3;
 4/9=2/1;
 5/5=2,7=120,8=3,13=1,38=5/2,8;
 6/7=2,8=2,9=2,10=2,28=1/1;
 7//1,2,3,16;
 1/6=100,18=20,19=15,26=4,33=1/3(2);
 2/9=110/2;
 99//99;
 2/9=110/2;
 3/5=1,6=6,7=1,8=11,11=2,25=1,30=1,71=1,74=-13,75=-5,124=41/1,2,3;
 4/5=5,9=2,16=3,69=1/1;
 5/5=2,7=120,8=3,13=1,38=5/2,8;
 7//1,2,3,16;
 1/6=100,18=20,19=15,26=4,33=1/3(-5);
 2/9=110/2;
 6/7=2,8=2,9=2,10=2,19=2,28=1/1;
 99/9=1/99;
 Leave Link    1 at Wed Oct  7 14:33:07 2020, MaxMem=  2684354560 cpu:               5.3 elap:               0.6
 (Enter /udrive/faculty/rpeverati/g16/g16/l101.exe)
 ONIOM data not found on unit 2.
 ------------------
 TS search on BH76.
 ------------------
 TstMul:  ICh=     0
 TstMul:  Mul=     1
 TstMul:  ICh=     0
 TstMul:  Mul=     1
 Symbolic Z-matrix:
 Charge =  0 Multiplicity = 1
 N                     0.        0.        0.28223 
 H                     0.46901   0.81235  -0.09408 
 H                     0.46901  -0.81235  -0.09408 
 H                    -0.93802   0.       -0.09408 
 
 RdStrC is calling ZToCFu for IStruc=1 NZ=     4.
 PrtBox:  NBox=     1 Levels=  1 BoxLen=    8.00 SMaxX=        3.07
          Shift=            1.772609            1.535125            0.177777
 Box      1 Number                   0 centers from      1 to      4:
 After GenITR:
 ITRead=  0  0  0  0
 MicOpt= -1 -1 -1 -1
 ITRead=  0  0  0  0
 MicOpt= -1 -1 -1 -1
 NAtoms=      4 NQM=        4 NQMF=       0 NMMI=      0 NMMIF=      0
                NMic=       0 NMicF=      0.
                    Isotopes and Nuclear Properties:
 (Nuclear quadrupole moments (NQMom) in fm**2, nuclear magnetic moments (NMagM)
  in nuclear magnetons)

  Atom         1           2           3           4
 IAtWgt=          14           1           1           1
 AtmWgt=  14.0030740   1.0078250   1.0078250   1.0078250
 NucSpn=           2           1           1           1
 AtZEff=   0.0000000   0.0000000   0.0000000   0.0000000
 NQMom=    2.0440000   0.0000000   0.0000000   0.0000000
 NMagM=    0.4037610   2.7928460   2.7928460   2.7928460
 AtZNuc=   7.0000000   1.0000000   1.0000000   1.0000000
 No MM parameters found.
 Leave Link  101 at Wed Oct  7 14:33:08 2020, MaxMem=  2684354560 cpu:               7.8 elap:               0.8
 (Enter /udrive/faculty/rpeverati/g16/g16/l103.exe)

 GradGradGradGradGradGradGradGradGradGradGradGradGradGradGradGradGradGrad
 Berny optimization.
 Optmz: redundant internal coordinate code flag= 1
 Initialization pass.
                           ----------------------------
                           !    Initial Parameters    !
                           ! (Angstroms and Degrees)  !
 --------------------------                            --------------------------
 ! Name  Definition              Value          Derivative Info.                !
 --------------------------------------------------------------------------------
 ! R1    R(1,2)                  1.0107         estimate D2E/DX2                !
 ! R2    R(1,3)                  1.0107         estimate D2E/DX2                !
 ! R3    R(1,4)                  1.0107         estimate D2E/DX2                !
 ! A1    A(2,1,3)              106.9816         estimate D2E/DX2                !
 ! A2    A(2,1,4)              106.9816         estimate D2E/DX2                !
 ! A3    A(3,1,4)              106.9816         estimate D2E/DX2                !
 ! D1    D(2,1,4,3)            114.3656         estimate D2E/DX2                !
 --------------------------------------------------------------------------------
 Maximum allowed force set to 1.00D+20.
 Trust Radius=3.00D-01 FncErr=1.00D-07 GrdErr=1.00D-06 EigMax=2.50D+02 EigMin=1.00D-04
 Number of steps in this run=    100 maximum allowed number of steps=    100.
 GradGradGradGradGradGradGradGradGradGradGradGradGradGradGradGradGradGrad

 Leave Link  103 at Wed Oct  7 14:33:09 2020, MaxMem=  2684354560 cpu:               0.6 elap:               0.3
 (Enter /udrive/faculty/rpeverati/g16/g16/l202.exe)
                          Input orientation:                          
 ---------------------------------------------------------------------
 Center     Atomic      Atomic             Coordinates (Angstroms)
 Number     Number       Type             X           Y           Z
 ---------------------------------------------------------------------
      1          7           0        0.000000    0.000000    0.282227
      2          1           0        0.469012    0.812353   -0.094076
      3          1           0        0.469012   -0.812353   -0.094076
      4          1           0       -0.938024    0.000000   -0.094076
 ---------------------------------------------------------------------
                    Distance matrix (angstroms):
                    1          2          3          4
     1  N    0.000000
     2  H    1.010689   0.000000
     3  H    1.010689   1.624706   0.000000
     4  H    1.010689   1.624706   1.624706   0.000000
 Stoichiometry    H3N
 Framework group  C3V[C3(N),3SGV(H)]
 Deg. of freedom     2
 Full point group                 C3V     NOp   6
 Largest Abelian subgroup         CS      NOp   2
 Largest concise Abelian subgroup CS      NOp   2
                         Standard orientation:                         
 ---------------------------------------------------------------------
 Center     Atomic      Atomic             Coordinates (Angstroms)
 Number     Number       Type             X           Y           Z
 ---------------------------------------------------------------------
      1          7           0        0.000000    0.000000    0.112891
      2          1           0        0.000000    0.938024   -0.263412
      3          1           0        0.812353   -0.469012   -0.263412
      4          1           0       -0.812353   -0.469012   -0.263412
 ---------------------------------------------------------------------
 Rotational constants (GHZ):         300.4147259         300.4147259         189.9688874
 Leave Link  202 at Wed Oct  7 14:33:09 2020, MaxMem=  2684354560 cpu:               1.0 elap:               0.4
 (Enter /udrive/faculty/rpeverati/g16/g16/l301.exe)
 Standard basis: 6-31G(d) (5D, 7F)
 Ernie: Thresh=  0.10000D-02 Tol=  0.10000D-05 Strict=F.
 There are    15 symmetry adapted cartesian basis functions of A'  symmetry.
 There are     6 symmetry adapted cartesian basis functions of A"  symmetry.
 There are    14 symmetry adapted basis functions of A'  symmetry.
 There are     6 symmetry adapted basis functions of A"  symmetry.
    20 basis functions,    40 primitive gaussians,    21 cartesian basis functions
     5 alpha electrons        5 beta electrons
       nuclear repulsion energy        11.9723081244 Hartrees.
 IExCor= 1009 DFT=T Ex+Corr=PBE1PBE ExCW=0 ScaHFX=  0.250000
 ScaDFX=  0.750000  0.750000  1.000000  1.000000 ScalE2=  1.000000  1.000000
 IRadAn=      5 IRanWt=     -1 IRanGd=            0 ICorTp=0 IEmpDi=141
 NAtoms=    4 NActive=    4 NUniq=    2 SFac= 4.00D+00 NAtFMM=   60 NAOKFM=F Big=F
 Integral buffers will be    131072 words long.
 Raffenetti 2 integral format.
 Two-electron integral symmetry is turned on.
 R6Disp:  Grimme-D3(BJ) Dispersion energy=       -0.0005886047 Hartrees.
 Nuclear repulsion after empirical dispersion term =       11.9717195198 Hartrees.
 Leave Link  301 at Wed Oct  7 14:33:10 2020, MaxMem=  2684354560 cpu:               1.9 elap:               0.5
 (Enter /udrive/faculty/rpeverati/g16/g16/l302.exe)
 NPDir=0 NMtPBC=     1 NCelOv=     1 NCel=       1 NClECP=     1 NCelD=      1
         NCelK=      1 NCelE2=     1 NClLst=     1 CellRange=     0.0.
 One-electron integrals computed using PRISM.
 One-electron integral symmetry used in STVInt
 NBasis=    20 RedAO= T EigKep=  3.89D-02  NBF=    14     6
 NBsUse=    20 1.00D-06 EigRej= -1.00D+00 NBFU=    14     6
 Precomputing XC quadrature grid using
 IXCGrd= 4 IRadAn=           5 IRanWt=          -1 IRanGd=           0 AccXCQ= 0.00D+00.
 Generated NRdTot=       0 NPtTot=           0 NUsed=           0 NTot=          32
 NSgBfM=    21    21    21    21    21 MxSgAt=     4 MxSgA2=     4.
 Leave Link  302 at Wed Oct  7 14:33:11 2020, MaxMem=  2684354560 cpu:               3.1 elap:               0.6
 (Enter /udrive/faculty/rpeverati/g16/g16/l303.exe)
 DipDrv:  MaxL=1.
 Leave Link  303 at Wed Oct  7 14:33:12 2020, MaxMem=  2684354560 cpu:               1.0 elap:               0.4
 (Enter /udrive/faculty/rpeverati/g16/g16/l401.exe)
 SCF N**3 symmetry information disabled.
 ExpMin= 1.61D-01 ExpMax= 4.17D+03 ExpMxC= 6.27D+02 IAcc=3 IRadAn=         5 AccDes= 0.00D+00
 Harris functional with IExCor= 1009 and IRadAn=       5 diagonalized for initial guess.
 HarFok:  IExCor= 1009 AccDes= 0.00D+00 IRadAn=         5 IDoV= 1 UseB2=F ITyADJ=14
 ICtDFT=  3500011 ScaDFX=  1.000000  1.000000  1.000000  1.000000
 FoFCou: FMM=F IPFlag=           0 FMFlag=      100000 FMFlg1=           0
         NFxFlg=           0 DoJE=T BraDBF=F KetDBF=T FulRan=T
         wScrn=  0.000000 ICntrl=       500 IOpCl=  0 I1Cent=   200000004 NGrid=           0
         NMat0=    1 NMatS0=      1 NMatT0=    0 NMatD0=    1 NMtDS0=    0 NMtDT0=    0
 Petite list used in FoFCou.
 Harris En= -56.5176598139298    
 JPrj=0 DoOrth=F DoCkMO=F.
 Initial guess orbital symmetries:
       Occupied  (A1) (A1) (E) (E) (A1)
       Virtual   (A1) (E) (E) (A1) (E) (E) (E) (E) (A1) (A1) (E)
                 (E) (A1) (E) (E)
 The electronic state of the initial guess is 1-A1.
 Leave Link  401 at Wed Oct  7 14:33:13 2020, MaxMem=  2684354560 cpu:               4.9 elap:               0.8
 (Enter /udrive/faculty/rpeverati/g16/g16/l502.exe)
 Keep R1 ints in memory in symmetry-blocked form, NReq=10364782.
 FoFCou: FMM=F IPFlag=           0 FMFlag=           0 FMFlg1=           0
         NFxFlg=           0 DoJE=F BraDBF=F KetDBF=F FulRan=T
         wScrn=  0.000000 ICntrl=       600 IOpCl=  0 I1Cent=           0 NGrid=           0
         NMat0=    1 NMatS0=    210 NMatT0=    0 NMatD0=    1 NMtDS0=    0 NMtDT0=    0
 Petite list used in FoFCou.
 Closed shell SCF:
 Using DIIS extrapolation, IDIIS=  1040.
 NGot=  2684354560 LenX=  2684340664 LenY=  2684339782
 Requested convergence on RMS density matrix=1.00D-08 within 120 cycles.
 Requested convergence on MAX density matrix=1.00D-06.
 Requested convergence on             energy=1.00D-06.
 No special actions if energy rises.
 Integral accuracy reduced to 1.0D-05 until final iterations.

 Cycle   1  Pass 0  IDiag  1:
 E= -56.4007085138703    
 DIIS: error= 7.13D-02 at cycle   1 NSaved=   1.
 NSaved= 1 IEnMin= 1 EnMin= -56.4007085138703     IErMin= 1 ErrMin= 7.13D-02
 ErrMax= 7.13D-02  0.00D+00 EMaxC= 1.00D-01 BMatC= 8.59D-02 BMatP= 8.59D-02
 IDIUse=3 WtCom= 2.87D-01 WtEn= 7.13D-01
 Coeff-Com:  0.100D+01
 Coeff-En:   0.100D+01
 Coeff:      0.100D+01
 Gap=     0.244 Goal=   None    Shift=    0.000
 GapD=    0.244 DampG=1.000 DampE=0.500 DampFc=0.5000 IDamp=-1.
 Damping current iteration by 5.00D-01
 RMSDP=2.32D-02 MaxDP=1.74D-01              OVMax= 1.75D-01

 Cycle   2  Pass 0  IDiag  1:
 E= -56.4336675239717     Delta-E=       -0.032959010101 Rises=F Damp=T
 DIIS: error= 7.26D-03 at cycle   2 NSaved=   2.
 NSaved= 2 IEnMin= 2 EnMin= -56.4336675239717     IErMin= 2 ErrMin= 7.26D-03
 ErrMax= 7.26D-03  0.00D+00 EMaxC= 1.00D-01 BMatC= 1.90D-03 BMatP= 8.59D-02
 IDIUse=3 WtCom= 9.27D-01 WtEn= 7.26D-02
 Coeff-Com:  0.103D+00 0.897D+00
 Coeff-En:   0.177D+00 0.823D+00
 Coeff:      0.109D+00 0.891D+00
 Gap=     0.352 Goal=   None    Shift=    0.000
 RMSDP=2.08D-03 MaxDP=1.36D-02 DE=-3.30D-02 OVMax= 9.31D-02

 Cycle   3  Pass 0  IDiag  1:
 E= -56.4766431227830     Delta-E=       -0.042975598811 Rises=F Damp=F
 DIIS: error= 1.00D-03 at cycle   3 NSaved=   3.
 NSaved= 3 IEnMin= 3 EnMin= -56.4766431227830     IErMin= 3 ErrMin= 1.00D-03
 ErrMax= 1.00D-03  0.00D+00 EMaxC= 1.00D-01 BMatC= 2.82D-05 BMatP= 1.90D-03
 IDIUse=3 WtCom= 9.90D-01 WtEn= 1.00D-02
 Coeff-Com:  0.142D-01 0.219D-01 0.964D+00
 Coeff-En:   0.000D+00 0.000D+00 0.100D+01
 Coeff:      0.141D-01 0.217D-01 0.964D+00
 Gap=     0.361 Goal=   None    Shift=    0.000
 RMSDP=2.30D-04 MaxDP=1.58D-03 DE=-4.30D-02 OVMax= 1.89D-03

 Cycle   4  Pass 0  IDiag  1:
 E= -56.4766654681563     Delta-E=       -0.000022345373 Rises=F Damp=F
 DIIS: error= 2.92D-04 at cycle   4 NSaved=   4.
 NSaved= 4 IEnMin= 4 EnMin= -56.4766654681563     IErMin= 4 ErrMin= 2.92D-04
 ErrMax= 2.92D-04  0.00D+00 EMaxC= 1.00D-01 BMatC= 1.71D-06 BMatP= 2.82D-05
 IDIUse=3 WtCom= 9.97D-01 WtEn= 2.92D-03
 Coeff-Com:  0.225D-02-0.147D-01 0.213D+00 0.799D+00
 Coeff-En:   0.000D+00 0.000D+00 0.000D+00 0.100D+01
 Coeff:      0.225D-02-0.147D-01 0.212D+00 0.800D+00
 Gap=     0.361 Goal=   None    Shift=    0.000
 RMSDP=3.41D-05 MaxDP=1.98D-04 DE=-2.23D-05 OVMax= 2.59D-04

 Cycle   5  Pass 0  IDiag  1:
 E= -56.4766667807957     Delta-E=       -0.000001312639 Rises=F Damp=F
 DIIS: error= 2.30D-05 at cycle   5 NSaved=   5.
 NSaved= 5 IEnMin= 5 EnMin= -56.4766667807957     IErMin= 5 ErrMin= 2.30D-05
 ErrMax= 2.30D-05  0.00D+00 EMaxC= 1.00D-01 BMatC= 8.45D-09 BMatP= 1.71D-06
 IDIUse=1 WtCom= 1.00D+00 WtEn= 0.00D+00
 Coeff-Com:  0.612D-04 0.993D-03-0.173D-01-0.916D-01 0.111D+01
 Coeff:      0.612D-04 0.993D-03-0.173D-01-0.916D-01 0.111D+01
 Gap=     0.361 Goal=   None    Shift=    0.000
 RMSDP=6.50D-06 MaxDP=4.07D-05 DE=-1.31D-06 OVMax= 4.55D-05

 Initial convergence to 1.0D-05 achieved.  Increase integral accuracy.
 Cycle   6  Pass 1  IDiag  1:
 E= -56.4766660308833     Delta-E=        0.000000749912 Rises=F Damp=F
 DIIS: error= 9.53D-07 at cycle   1 NSaved=   1.
 NSaved= 1 IEnMin= 1 EnMin= -56.4766660308833     IErMin= 1 ErrMin= 9.53D-07
 ErrMax= 9.53D-07  0.00D+00 EMaxC= 1.00D-01 BMatC= 9.89D-12 BMatP= 9.89D-12
 IDIUse=1 WtCom= 1.00D+00 WtEn= 0.00D+00
 Coeff-Com:  0.100D+01
 Coeff:      0.100D+01
 Gap=     0.361 Goal=   None    Shift=    0.000
 RMSDP=6.50D-06 MaxDP=4.07D-05 DE= 7.50D-07 OVMax= 5.41D-06

 Cycle   7  Pass 1  IDiag  1:
 E= -56.4766660309087     Delta-E=       -0.000000000025 Rises=F Damp=F
 DIIS: error= 5.48D-07 at cycle   2 NSaved=   2.
 NSaved= 2 IEnMin= 2 EnMin= -56.4766660309087     IErMin= 2 ErrMin= 5.48D-07
 ErrMax= 5.48D-07  0.00D+00 EMaxC= 1.00D-01 BMatC= 5.13D-12 BMatP= 9.89D-12
 IDIUse=1 WtCom= 1.00D+00 WtEn= 0.00D+00
 Coeff-Com:  0.378D+00 0.622D+00
 Coeff:      0.378D+00 0.622D+00
 Gap=     0.361 Goal=   None    Shift=    0.000
 RMSDP=1.15D-07 MaxDP=7.48D-07 DE=-2.54D-11 OVMax= 8.33D-07

 Cycle   8  Pass 1  IDiag  1:
 E= -56.4766660309129     Delta-E=       -0.000000000004 Rises=F Damp=F
 DIIS: error= 1.92D-07 at cycle   3 NSaved=   3.
 NSaved= 3 IEnMin= 3 EnMin= -56.4766660309129     IErMin= 3 ErrMin= 1.92D-07
 ErrMax= 1.92D-07  0.00D+00 EMaxC= 1.00D-01 BMatC= 7.11D-13 BMatP= 5.13D-12
 IDIUse=1 WtCom= 1.00D+00 WtEn= 0.00D+00
 Coeff-Com: -0.692D-01 0.252D+00 0.817D+00
 Coeff:     -0.692D-01 0.252D+00 0.817D+00
 Gap=     0.361 Goal=   None    Shift=    0.000
 RMSDP=8.76D-08 MaxDP=6.36D-07 DE=-4.19D-12 OVMax= 6.86D-07

 Cycle   9  Pass 1  IDiag  1:
 E= -56.4766660309136     Delta-E=       -0.000000000001 Rises=F Damp=F
 DIIS: error= 1.43D-08 at cycle   4 NSaved=   4.
 NSaved= 4 IEnMin= 4 EnMin= -56.4766660309136     IErMin= 4 ErrMin= 1.43D-08
 ErrMax= 1.43D-08  0.00D+00 EMaxC= 1.00D-01 BMatC= 5.88D-15 BMatP= 7.11D-13
 IDIUse=1 WtCom= 1.00D+00 WtEn= 0.00D+00
 Coeff-Com: -0.262D-01 0.240D-01 0.143D+00 0.860D+00
 Coeff:     -0.262D-01 0.240D-01 0.143D+00 0.860D+00
 Gap=     0.361 Goal=   None    Shift=    0.000
 RMSDP=7.89D-09 MaxDP=5.84D-08 DE=-7.39D-13 OVMax= 5.86D-08

 SCF Done:  E(RPBE1PBE) =  -56.4766660309     A.U. after    9 cycles
            NFock=  9  Conv=0.79D-08     -V/T= 2.0046
 KE= 5.621914850993D+01 PE=-1.559566397992D+02 EE= 3.128910573860D+01
 Leave Link  502 at Wed Oct  7 14:33:14 2020, MaxMem=  2684354560 cpu:               8.1 elap:               1.0
 (Enter /udrive/faculty/rpeverati/g16/g16/l508.exe)
 QCSCF skips out because SCF is already converged.
 Leave Link  508 at Wed Oct  7 14:33:15 2020, MaxMem=  2684354560 cpu:               0.3 elap:               0.4
 (Enter /udrive/faculty/rpeverati/g16/g16/l601.exe)
 Copying SCF densities to generalized density rwf, IOpCl= 0 IROHF=0.

 **********************************************************************

            Population analysis using the SCF density.

 **********************************************************************

 Orbital symmetries:
       Occupied  (A1) (A1) (E) (E) (A1)
       Virtual   (A1) (E) (E) (E) (E) (A1) (E) (E) (A1) (A1) (E)
                 (E) (A1) (E) (E)
 The electronic state is 1-A1.
 Alpha  occ. eigenvalues --  -14.35427  -0.86861  -0.46758  -0.46758  -0.26095
 Alpha virt. eigenvalues --    0.09968   0.18741   0.18741   0.70325   0.70325
 Alpha virt. eigenvalues --    0.74840   0.95095   0.95095   0.95287   1.24781
 Alpha virt. eigenvalues --    1.68070   1.68070   1.97933   2.43017   2.43017
          Condensed to atoms (all electrons):
               1          2          3          4
     1  N    6.996561   0.322641   0.322641   0.322641
     2  H    0.322641   0.414789  -0.029462  -0.029462
     3  H    0.322641  -0.029462   0.414789  -0.029462
     4  H    0.322641  -0.029462  -0.029462   0.414789
 Mulliken charges:
               1
     1  N   -0.964483
     2  H    0.321494
     3  H    0.321494
     4  H    0.321494
 Sum of Mulliken charges =   0.00000
 Mulliken charges with hydrogens summed into heavy atoms:
               1
     1  N    0.000000
 Electronic spatial extent (au):  <R**2>=             26.0460
 Charge=              0.0000 electrons
 Dipole moment (field-independent basis, Debye):
    X=             -0.0000    Y=             -0.0000    Z=             -1.8813  Tot=              1.8813
 Quadrupole moment (field-independent basis, Debye-Ang):
   XX=             -6.0466   YY=             -6.0466   ZZ=             -8.8324
   XY=             -0.0000   XZ=              0.0000   YZ=              0.0000
 Traceless Quadrupole moment (field-independent basis, Debye-Ang):
   XX=              0.9286   YY=              0.9286   ZZ=             -1.8572
   XY=             -0.0000   XZ=              0.0000   YZ=              0.0000
 Octapole moment (field-independent basis, Debye-Ang**2):
  XXX=             -0.0000  YYY=              0.8491  ZZZ=             -1.7257  XYY=              0.0000
  XXY=             -0.8491  XXZ=             -0.9129  XZZ=              0.0000  YZZ=              0.0000
  YYZ=             -0.9129  XYZ=              0.0000
 Hexadecapole moment (field-independent basis, Debye-Ang**3):
 XXXX=             -9.2539 YYYY=             -9.2539 ZZZZ=             -9.6807 XXXY=              0.0000
 XXXZ=              0.0000 YYYX=             -0.0000 YYYZ=             -0.3061 ZZZX=             -0.0000
 ZZZY=             -0.0000 XXYY=             -3.0846 XXZZ=             -3.2151 YYZZ=             -3.2151
 XXYZ=              0.3061 YYXZ=             -0.0000 ZZXY=              0.0000
 N-N= 1.197171951979D+01 E-N=-1.559566400167D+02  KE= 5.621914850993D+01
 No NMR shielding tensors so no spin-rotation constants.
 Leave Link  601 at Wed Oct  7 14:33:15 2020, MaxMem=  2684354560 cpu:               3.2 elap:               0.6
 (Enter /udrive/faculty/rpeverati/g16/g16/l701.exe)
 ... and contract with generalized density number  0.
 Compute integral first derivatives.
 R6Disp: Adding Grimme-D3(BJ) dispersion energy 1st derivatives to the gradient.
 Leave Link  701 at Wed Oct  7 14:33:16 2020, MaxMem=  2684354560 cpu:               3.5 elap:               0.6
 (Enter /udrive/faculty/rpeverati/g16/g16/l702.exe)
 L702 exits ... SP integral derivatives will be done elsewhere.
 Leave Link  702 at Wed Oct  7 14:33:17 2020, MaxMem=  2684354560 cpu:               0.9 elap:               0.4
 (Enter /udrive/faculty/rpeverati/g16/g16/l703.exe)
 Integral derivatives from FoFJK, PRISM(SPDF).
 Compute integral first derivatives, UseDBF=F ICtDFT=           0.
 Calling FoFJK, ICntrl=      2127 FMM=F ISym2X=1 I1Cent= 0 IOpClX= 0 NMat=1 NMatS=1 NMatT=0.
 FoFJK:  IHMeth= 1 ICntrl=    2127 DoSepK=F KAlg= 0 I1Cent=           0 FoldK=F
 IRaf=         0 NMat=       1 IRICut=       1 DoRegI=T DoRafI=F ISym2E= 1 IDoP0=0 IntGTp=1.
 FoFCou: FMM=F IPFlag=           0 FMFlag=      100000 FMFlg1=         800
         NFxFlg=           0 DoJE=F BraDBF=F KetDBF=F FulRan=T
         wScrn=  0.000000 ICntrl=      2127 IOpCl=  0 I1Cent=           0 NGrid=           0
         NMat0=    1 NMatS0=      1 NMatT0=    0 NMatD0=    1 NMtDS0=    0 NMtDT0=    0
 Petite list used in FoFCou.
 Leave Link  703 at Wed Oct  7 14:33:18 2020, MaxMem=  2684354560 cpu:               4.8 elap:               0.7
 (Enter /udrive/faculty/rpeverati/g16/g16/l716.exe)
 Dipole        =-2.22044605D-16 0.00000000D+00-7.40165672D-01
 ***** Axes restored to original set *****
 -------------------------------------------------------------------
 Center     Atomic                   Forces (Hartrees/Bohr)
 Number     Number              X              Y              Z
 -------------------------------------------------------------------
      1        7          -0.000000000    0.000000000    0.006926849
      2        1           0.001747762    0.003027212   -0.002308950
      3        1           0.001747762   -0.003027212   -0.002308950
      4        1          -0.003495524   -0.000000000   -0.002308950
 -------------------------------------------------------------------
 Cartesian Forces:  Max     0.006926849 RMS     0.002895845
 Leave Link  716 at Wed Oct  7 14:33:19 2020, MaxMem=  2684354560 cpu:               1.2 elap:               0.5
 (Enter /udrive/faculty/rpeverati/g16/g16/l103.exe)

 GradGradGradGradGradGradGradGradGradGradGradGradGradGradGradGradGradGrad
 Berny optimization.
 Optmz: redundant internal coordinate code flag= 1
 FormGI is forming the generalized inverse of G from B-inverse, IUseBI=4.
 Internal  Forces:  Max     0.004103881 RMS     0.002768001
 Search for a local minimum.
 Step number   1 out of a maximum of  100
 All quantities printed in internal units (Hartrees-Bohrs-Radians)
 RMS Force = .27680D-02 SwitMx=.10000D-02 MixMth= 1
 Mixed Optimization -- RFO/linear search
 Second derivative matrix not updated -- first step.
 The second derivative matrix:
                          R1        R2        R3        A1        A2
           R1           0.45857
           R2           0.00000   0.45857
           R3           0.00000   0.00000   0.45857
           A1           0.00000   0.00000   0.00000   0.16000
           A2           0.00000   0.00000   0.00000   0.00000   0.16000
           A3           0.00000   0.00000   0.00000   0.00000   0.00000
           D1           0.00000   0.00000   0.00000   0.00000   0.00000
                          A3        D1
           A3           0.16000
           D1           0.00000   0.00887
 ITU=  0
 Eigenvectors of the second derivative matrix:
                           1         2         3         4         5
     Eigenvalues --     0.06351   0.16000   0.16000   0.45857   0.45857
   1         R1        -0.00000  -0.00000  -0.00000   0.85326   0.51458
   2         R2        -0.00000  -0.00000  -0.00000   0.50842  -0.85695
   3         R3        -0.00000   0.00000  -0.00000  -0.11598   0.02916
   4         A1        -0.51935   0.19748  -0.46364  -0.00000   0.00000
   5         A2        -0.21426   0.41121   0.83900   0.00000  -0.00000
   6         A3        -0.21426  -0.88989   0.28481  -0.00000  -0.00000
   7         D1        -0.79904  -0.00000   0.00000  -0.00000   0.00000
                           6
     Eigenvalues --     0.45857
   1         R1         0.08457
   2         R2         0.08457
   3         R3         0.99282
   4         A1        -0.00000
   5         A2        -0.00000
   6         A3        -0.00000
   7         D1        -0.00000
 Iter=   1 RLamda= 0.00000000D+00 Sum=-1.48357118D-04.
 Iter=   2 RLamda=-1.48357118D-04 Sum=-1.48242445D-04.
 Iter=   3 RLamda=-1.48242445D-04 Sum=-1.48242533D-04.
 RFO step:  Lambda=-1.48242445D-04 EMin= 6.35086103D-02
 Linear search not attempted -- first point.
 Iteration  1 RMS(Cart)=  0.00594469 RMS(Int)=  0.00009156
 Iteration  2 RMS(Cart)=  0.00006159 RMS(Int)=  0.00005930
 Iteration  3 RMS(Cart)=  0.00000001 RMS(Int)=  0.00005930
 ITry= 1 IFail=0 DXMaxC= 1.30D-02 DCOld= 1.00D+10 DXMaxT= 3.00D-01 DXLimC= 3.00D+00 Rises=F
 ClnCor:  largest displacement from symmetrization is 3.17D-04 for atom     4.
 Variable       Old X    -DE/DX   Delta X   Delta X   Delta X     New X
                                 (Linear)    (Quad)   (Total)
    R1        1.90993   0.00410   0.00000   0.00895   0.00903   1.91896
    R2        1.90993   0.00410   0.00000   0.00895   0.00903   1.91896
    R3        1.90993   0.00410   0.00000   0.00895   0.00903   1.91896
    A1        1.86718  -0.00019   0.00000  -0.00812  -0.00859   1.85859
    A2        1.86718  -0.00095   0.00000  -0.00879  -0.00859   1.85859
    A3        1.86718  -0.00095   0.00000  -0.00879  -0.00859   1.85859
    D1        1.99606  -0.00112   0.00000  -0.01764  -0.01775   1.97831
         Item               Value     Threshold  Converged?
 Maximum Force            0.004104     0.000450     NO 
 RMS     Force            0.002768     0.000300     NO 
 Maximum Displacement     0.013042     0.001800     NO 
 RMS     Displacement     0.005953     0.001200     NO 
 Predicted change in Energy=-7.390492D-05
 Lowest energy point so far.  Saving SCF results.
 Largest change from initial coordinates is atom    1       0.003 Angstoms.
 GradGradGradGradGradGradGradGradGradGradGradGradGradGradGradGradGradGrad

 Leave Link  103 at Wed Oct  7 14:33:19 2020, MaxMem=  2684354560 cpu:               1.7 elap:               0.4
 (Enter /udrive/faculty/rpeverati/g16/g16/l202.exe)
                          Input orientation:                          
 ---------------------------------------------------------------------
 Center     Atomic      Atomic             Coordinates (Angstroms)
 Number     Number       Type             X           Y           Z
 ---------------------------------------------------------------------
      1          7           0       -0.000000    0.000000    0.289128
      2          1           0        0.469727    0.813591   -0.096363
      3          1           0        0.469727   -0.813591   -0.096363
      4          1           0       -0.939454    0.000000   -0.096363
 ---------------------------------------------------------------------
                    Distance matrix (angstroms):
                    1          2          3          4
     1  N    0.000000
     2  H    1.015469   0.000000
     3  H    1.015469   1.627182   0.000000
     4  H    1.015469   1.627182   1.627182   0.000000
 Stoichiometry    H3N
 Framework group  C3V[C3(N),3SGV(H)]
 Deg. of freedom     2
 Full point group                 C3V     NOp   6
 RotChk:  IX=0 Diff= 1.57D-16
 Largest Abelian subgroup         CS      NOp   2
 Largest concise Abelian subgroup CS      NOp   2
                         Standard orientation:                         
 ---------------------------------------------------------------------
 Center     Atomic      Atomic             Coordinates (Angstroms)
 Number     Number       Type             X           Y           Z
 ---------------------------------------------------------------------
      1          7           0        0.000000    0.000000    0.115647
      2          1           0        0.000000    0.939454   -0.269844
      3          1           0        0.813591   -0.469727   -0.269844
      4          1           0       -0.813591   -0.469727   -0.269844
 ---------------------------------------------------------------------
 Rotational constants (GHZ):         296.6300526         296.6300526         189.3912393
 Leave Link  202 at Wed Oct  7 14:33:20 2020, MaxMem=  2684354560 cpu:               1.1 elap:               0.5
 (Enter /udrive/faculty/rpeverati/g16/g16/l301.exe)
 Standard basis: 6-31G(d) (5D, 7F)
 Ernie: Thresh=  0.10000D-02 Tol=  0.10000D-05 Strict=F.
 There are    15 symmetry adapted cartesian basis functions of A'  symmetry.
 There are     6 symmetry adapted cartesian basis functions of A"  symmetry.
 There are    14 symmetry adapted basis functions of A'  symmetry.
 There are     6 symmetry adapted basis functions of A"  symmetry.
    20 basis functions,    40 primitive gaussians,    21 cartesian basis functions
     5 alpha electrons        5 beta electrons
       nuclear repulsion energy        11.9190704956 Hartrees.
 IExCor= 1009 DFT=T Ex+Corr=PBE1PBE ExCW=0 ScaHFX=  0.250000
 ScaDFX=  0.750000  0.750000  1.000000  1.000000 ScalE2=  1.000000  1.000000
 IRadAn=      5 IRanWt=     -1 IRanGd=            0 ICorTp=0 IEmpDi=141
 NAtoms=    4 NActive=    4 NUniq=    2 SFac= 4.00D+00 NAtFMM=   60 NAOKFM=F Big=F
 Integral buffers will be    131072 words long.
 Raffenetti 2 integral format.
 Two-electron integral symmetry is turned on.
 R6Disp:  Grimme-D3(BJ) Dispersion energy=       -0.0005886092 Hartrees.
 Nuclear repulsion after empirical dispersion term =       11.9184818864 Hartrees.
 Leave Link  301 at Wed Oct  7 14:33:21 2020, MaxMem=  2684354560 cpu:               2.2 elap:               0.6
 (Enter /udrive/faculty/rpeverati/g16/g16/l302.exe)
 NPDir=0 NMtPBC=     1 NCelOv=     1 NCel=       1 NClECP=     1 NCelD=      1
         NCelK=      1 NCelE2=     1 NClLst=     1 CellRange=     0.0.
 One-electron integrals computed using PRISM.
 One-electron integral symmetry used in STVInt
 NBasis=    20 RedAO= T EigKep=  3.91D-02  NBF=    14     6
 NBsUse=    20 1.00D-06 EigRej= -1.00D+00 NBFU=    14     6
 Precomputing XC quadrature grid using
 IXCGrd= 4 IRadAn=           5 IRanWt=          -1 IRanGd=           0 AccXCQ= 0.00D+00.
 Generated NRdTot=       0 NPtTot=           0 NUsed=           0 NTot=          32
 NSgBfM=    21    21    21    21    21 MxSgAt=     4 MxSgA2=     4.
 Leave Link  302 at Wed Oct  7 14:33:22 2020, MaxMem=  2684354560 cpu:               3.5 elap:               0.6
 (Enter /udrive/faculty/rpeverati/g16/g16/l303.exe)
 DipDrv:  MaxL=1.
 Leave Link  303 at Wed Oct  7 14:33:22 2020, MaxMem=  2684354560 cpu:               1.2 elap:               0.4
 (Enter /udrive/faculty/rpeverati/g16/g16/l401.exe)
 Initial guess from the checkpoint file:  "MN_71_NH3_BH76_PBE0DBJ_631Gs.chk"
 SCF N**3 symmetry information disabled.
 B after Tr=     0.000000    0.000000    0.000000
         Rot=    1.000000    0.000000   -0.000000   -0.000000 Ang=   0.00 deg.
 Guess basis will be translated and rotated to current coordinates.
 JPrj=2 DoOrth=T DoCkMO=T.
 Initial guess orbital symmetries:
       Occupied  (A1) (A1) (E) (E) (A1)
       Virtual   (A1) (E) (E) (E) (E) (A1) (E) (E) (A1) (A1) (E)
                 (E) (A1) (E) (E)
 The electronic state of the initial guess is 1-A1.
 Leave Link  401 at Wed Oct  7 14:33:23 2020, MaxMem=  2684354560 cpu:               2.0 elap:               0.5
 (Enter /udrive/faculty/rpeverati/g16/g16/l502.exe)
 Keep R1 ints in memory in symmetry-blocked form, NReq=10364782.
 FoFCou: FMM=F IPFlag=           0 FMFlag=           0 FMFlg1=           0
         NFxFlg=           0 DoJE=F BraDBF=F KetDBF=F FulRan=T
         wScrn=  0.000000 ICntrl=       600 IOpCl=  0 I1Cent=           0 NGrid=           0
         NMat0=    1 NMatS0=    210 NMatT0=    0 NMatD0=    1 NMtDS0=    0 NMtDT0=    0
 Petite list used in FoFCou.
 Closed shell SCF:
 Using DIIS extrapolation, IDIIS=  1040.
 NGot=  2684354560 LenX=  2684340664 LenY=  2684339782
 Requested convergence on RMS density matrix=1.00D-08 within 120 cycles.
 Requested convergence on MAX density matrix=1.00D-06.
 Requested convergence on             energy=1.00D-06.
 No special actions if energy rises.

 Cycle   1  Pass 1  IDiag  1:
 E= -56.4767200503812    
 DIIS: error= 9.83D-04 at cycle   1 NSaved=   1.
 NSaved= 1 IEnMin= 1 EnMin= -56.4767200503812     IErMin= 1 ErrMin= 9.83D-04
 ErrMax= 9.83D-04  0.00D+00 EMaxC= 1.00D-01 BMatC= 2.54D-05 BMatP= 2.54D-05
 IDIUse=3 WtCom= 9.90D-01 WtEn= 9.83D-03
 Coeff-Com:  0.100D+01
 Coeff-En:   0.100D+01
 Coeff:      0.100D+01
 Gap=     0.359 Goal=   None    Shift=    0.000
 RMSDP=5.30D-04 MaxDP=4.36D-03              OVMax= 3.80D-03

 Cycle   2  Pass 1  IDiag  1:
 E= -56.4767448302624     Delta-E=       -0.000024779881 Rises=F Damp=F
 DIIS: error= 9.43D-04 at cycle   2 NSaved=   2.
 NSaved= 2 IEnMin= 2 EnMin= -56.4767448302624     IErMin= 2 ErrMin= 9.43D-04
 ErrMax= 9.43D-04  0.00D+00 EMaxC= 1.00D-01 BMatC= 1.62D-05 BMatP= 2.54D-05
 IDIUse=3 WtCom= 9.91D-01 WtEn= 9.43D-03
 Coeff-Com:  0.424D+00 0.576D+00
 Coeff-En:   0.000D+00 0.100D+01
 Coeff:      0.420D+00 0.580D+00
 Gap=     0.361 Goal=   None    Shift=    0.000
 RMSDP=1.70D-04 MaxDP=1.34D-03 DE=-2.48D-05 OVMax= 1.30D-03

 Cycle   3  Pass 1  IDiag  1:
 E= -56.4767573231204     Delta-E=       -0.000012492858 Rises=F Damp=F
 DIIS: error= 2.91D-04 at cycle   3 NSaved=   3.
 NSaved= 3 IEnMin= 3 EnMin= -56.4767573231204     IErMin= 3 ErrMin= 2.91D-04
 ErrMax= 2.91D-04  0.00D+00 EMaxC= 1.00D-01 BMatC= 1.41D-06 BMatP= 1.62D-05
 IDIUse=3 WtCom= 9.97D-01 WtEn= 2.91D-03
 Coeff-Com: -0.481D-01 0.211D+00 0.837D+00
 Coeff-En:   0.000D+00 0.190D-02 0.998D+00
 Coeff:     -0.480D-01 0.210D+00 0.838D+00
 Gap=     0.360 Goal=   None    Shift=    0.000
 RMSDP=6.23D-05 MaxDP=4.43D-04 DE=-1.25D-05 OVMax= 4.65D-04

 Cycle   4  Pass 1  IDiag  1:
 E= -56.4767586378985     Delta-E=       -0.000001314778 Rises=F Damp=F
 DIIS: error= 7.12D-06 at cycle   4 NSaved=   4.
 NSaved= 4 IEnMin= 4 EnMin= -56.4767586378985     IErMin= 4 ErrMin= 7.12D-06
 ErrMax= 7.12D-06  0.00D+00 EMaxC= 1.00D-01 BMatC= 9.68D-10 BMatP= 1.41D-06
 IDIUse=1 WtCom= 1.00D+00 WtEn= 0.00D+00
 Coeff-Com: -0.269D-02 0.340D-02 0.336D-01 0.966D+00
 Coeff:     -0.269D-02 0.340D-02 0.336D-01 0.966D+00
 Gap=     0.360 Goal=   None    Shift=    0.000
 RMSDP=5.72D-06 MaxDP=3.74D-05 DE=-1.31D-06 OVMax= 4.15D-05

 Cycle   5  Pass 1  IDiag  1:
 E= -56.4767586400010     Delta-E=       -0.000000002103 Rises=F Damp=F
 DIIS: error= 1.76D-06 at cycle   5 NSaved=   5.
 NSaved= 5 IEnMin= 5 EnMin= -56.4767586400010     IErMin= 5 ErrMin= 1.76D-06
 ErrMax= 1.76D-06  0.00D+00 EMaxC= 1.00D-01 BMatC= 8.11D-11 BMatP= 9.68D-10
 IDIUse=1 WtCom= 1.00D+00 WtEn= 0.00D+00
 Coeff-Com:  0.748D-03-0.730D-02-0.219D-01 0.130D+00 0.898D+00
 Coeff:      0.748D-03-0.730D-02-0.219D-01 0.130D+00 0.898D+00
 Gap=     0.360 Goal=   None    Shift=    0.000
 RMSDP=1.04D-06 MaxDP=7.87D-06 DE=-2.10D-09 OVMax= 7.66D-06

 Cycle   6  Pass 1  IDiag  1:
 E= -56.4767586401079     Delta-E=       -0.000000000107 Rises=F Damp=F
 DIIS: error= 2.03D-07 at cycle   6 NSaved=   6.
 NSaved= 6 IEnMin= 6 EnMin= -56.4767586401079     IErMin= 6 ErrMin= 2.03D-07
 ErrMax= 2.03D-07  0.00D+00 EMaxC= 1.00D-01 BMatC= 7.25D-13 BMatP= 8.11D-11
 IDIUse=1 WtCom= 1.00D+00 WtEn= 0.00D+00
 Coeff-Com:  0.444D-04 0.172D-03 0.537D-03-0.248D-01-0.270D-01 0.105D+01
 Coeff:      0.444D-04 0.172D-03 0.537D-03-0.248D-01-0.270D-01 0.105D+01
 Gap=     0.360 Goal=   None    Shift=    0.000
 RMSDP=1.52D-07 MaxDP=9.67D-07 DE=-1.07D-10 OVMax= 1.16D-06

 Cycle   7  Pass 1  IDiag  1:
 E= -56.4767586401096     Delta-E=       -0.000000000002 Rises=F Damp=F
 DIIS: error= 1.18D-08 at cycle   7 NSaved=   7.
 NSaved= 7 IEnMin= 7 EnMin= -56.4767586401096     IErMin= 7 ErrMin= 1.18D-08
 ErrMax= 1.18D-08  0.00D+00 EMaxC= 1.00D-01 BMatC= 1.22D-15 BMatP= 7.25D-13
 IDIUse=1 WtCom= 1.00D+00 WtEn= 0.00D+00
 Coeff-Com: -0.627D-05 0.212D-04 0.492D-04 0.568D-03-0.326D-02-0.541D-01
 Coeff-Com:  0.106D+01
 Coeff:     -0.627D-05 0.212D-04 0.492D-04 0.568D-03-0.326D-02-0.541D-01
 Coeff:      0.106D+01
 Gap=     0.360 Goal=   None    Shift=    0.000
 RMSDP=5.64D-09 MaxDP=4.12D-08 DE=-1.63D-12 OVMax= 5.23D-08

 SCF Done:  E(RPBE1PBE) =  -56.4767586401     A.U. after    7 cycles
            NFock=  7  Conv=0.56D-08     -V/T= 2.0049
 KE= 5.619891165018D+01 PE=-1.558359214530D+02 EE= 3.124176927632D+01
 Leave Link  502 at Wed Oct  7 14:33:24 2020, MaxMem=  2684354560 cpu:               7.6 elap:               0.9
 (Enter /udrive/faculty/rpeverati/g16/g16/l508.exe)
 QCSCF skips out because SCF is already converged.
 Leave Link  508 at Wed Oct  7 14:33:25 2020, MaxMem=  2684354560 cpu:               0.3 elap:               0.4
 (Enter /udrive/faculty/rpeverati/g16/g16/l701.exe)
 ... and contract with generalized density number  0.
 Compute integral first derivatives.
 R6Disp: Adding Grimme-D3(BJ) dispersion energy 1st derivatives to the gradient.
 Leave Link  701 at Wed Oct  7 14:33:25 2020, MaxMem=  2684354560 cpu:               3.0 elap:               0.6
 (Enter /udrive/faculty/rpeverati/g16/g16/l702.exe)
 L702 exits ... SP integral derivatives will be done elsewhere.
 Leave Link  702 at Wed Oct  7 14:33:26 2020, MaxMem=  2684354560 cpu:               0.8 elap:               0.4
 (Enter /udrive/faculty/rpeverati/g16/g16/l703.exe)
 Integral derivatives from FoFJK, PRISM(SPDF).
 Compute integral first derivatives, UseDBF=F ICtDFT=           0.
 Calling FoFJK, ICntrl=      2127 FMM=F ISym2X=1 I1Cent= 0 IOpClX= 0 NMat=1 NMatS=1 NMatT=0.
 FoFJK:  IHMeth= 1 ICntrl=    2127 DoSepK=F KAlg= 0 I1Cent=           0 FoldK=F
 IRaf=         0 NMat=       1 IRICut=       1 DoRegI=T DoRafI=F ISym2E= 1 IDoP0=0 IntGTp=1.
 FoFCou: FMM=F IPFlag=           0 FMFlag=      100000 FMFlg1=         800
         NFxFlg=           0 DoJE=F BraDBF=F KetDBF=F FulRan=T
         wScrn=  0.000000 ICntrl=      2127 IOpCl=  0 I1Cent=           0 NGrid=           0
         NMat0=    1 NMatS0=      1 NMatT0=    0 NMatD0=    1 NMtDS0=    0 NMtDT0=    0
 Petite list used in FoFCou.
 Leave Link  703 at Wed Oct  7 14:33:27 2020, MaxMem=  2684354560 cpu:               4.5 elap:               0.7
 (Enter /udrive/faculty/rpeverati/g16/g16/l716.exe)
 Dipole        =-4.44089210D-16-2.22044605D-16-7.50691359D-01
 ***** Axes restored to original set *****
 -------------------------------------------------------------------
 Center     Atomic                   Forces (Hartrees/Bohr)
 Number     Number              X              Y              Z
 -------------------------------------------------------------------
      1        7          -0.000000000    0.000000000    0.001994360
      2        1           0.000113244    0.000196144   -0.000664787
      3        1           0.000113244   -0.000196144   -0.000664787
      4        1          -0.000226488   -0.000000000   -0.000664787
 -------------------------------------------------------------------
 Cartesian Forces:  Max     0.001994360 RMS     0.000674363
 Leave Link  716 at Wed Oct  7 14:33:27 2020, MaxMem=  2684354560 cpu:               0.8 elap:               0.3
 (Enter /udrive/faculty/rpeverati/g16/g16/l103.exe)

 GradGradGradGradGradGradGradGradGradGradGradGradGradGradGradGradGradGrad
 Berny optimization.
 Optmz: redundant internal coordinate code flag= 1
 Using GEDIIS/GDIIS optimizer.
 Red2BG:  D1=  7.33D-01 OD1=  3.05D-02 B2RMS=  0.00D+00 IAprox=0
 FormGI is forming the generalized inverse of G from B-inverse, IUseBI=4.
 Internal  Forces:  Max     0.000697941 RMS     0.000519327
 Search for a local minimum.
 Step number   2 out of a maximum of  100
 All quantities printed in internal units (Hartrees-Bohrs-Radians)
 RMS Force = .51933D-03 SwitMx=.10000D-02 MixMth= 2
 Mixed Optimization -- En-DIIS/RFO-DIIS
 Update second derivatives using D2CorX and points    1    2
 DE= -9.26D-05 DEPred=-7.39D-05 R= 1.25D+00
 TightC=F SS=  1.41D+00  RLast= 2.80D-02 DXNew= 5.0454D-01 8.3859D-02
 Trust test= 1.25D+00 RLast= 2.80D-02 DXMaxT set to 3.00D-01
 The second derivative matrix:
                          R1        R2        R3        A1        A2
           R1           0.46234
           R2           0.00376   0.46234
           R3           0.00376   0.00376   0.46234
           A1           0.03583   0.03583   0.03583   0.14747
           A2           0.02682   0.02682   0.02682  -0.01238   0.14847
           A3           0.02682   0.02682   0.02682  -0.01238  -0.01153
           D1          -0.00941  -0.00941  -0.00941  -0.00120  -0.00015
                          A3        D1
           A3           0.14847
           D1          -0.00015   0.01031
 ITU=  1  0
 Use linear search instead of GDIIS.
 Eigenvectors of the second derivative matrix:
                           1         2         3         4         5
     Eigenvalues --     0.04881   0.15332   0.16000   0.45857   0.45857
   1         R1         0.05746  -0.04099  -0.00000   0.79930   0.16670
   2         R2         0.05746  -0.04099  -0.00000  -0.25528  -0.77556
   3         R3         0.05746  -0.04099  -0.00000  -0.54402   0.60886
   4         A1        -0.47696  -0.54200   0.00000  -0.00000  -0.00000
   5         A2        -0.27030   0.58903   0.70711  -0.00000  -0.00000
   6         A3        -0.27030   0.58903  -0.70711  -0.00000  -0.00000
   7         D1        -0.78516  -0.08532   0.00000  -0.00000  -0.00000
                           6
     Eigenvalues --     0.47571
   1         R1         0.57302
   2         R2         0.57302
   3         R3         0.57302
   4         A1         0.00906
   5         A2         0.06925
   6         A3         0.06925
   7         D1         0.07263
 Iter=   1 RLamda= 0.00000000D+00 Sum=-1.35974719D-05.
 Iter=   2 RLamda=-1.35974719D-05 Sum=-1.35948583D-05.
 RFO step:  Lambda=-1.35974719D-05 EMin= 4.88146259D-02
 Quartic linear search produced a step of  0.32922.
 Iteration  1 RMS(Cart)=  0.00502152 RMS(Int)=  0.00008118
 Iteration  2 RMS(Cart)=  0.00004082 RMS(Int)=  0.00006867
 Iteration  3 RMS(Cart)=  0.00000000 RMS(Int)=  0.00006867
 ITry= 1 IFail=0 DXMaxC= 1.04D-02 DCOld= 1.00D+10 DXMaxT= 3.00D-01 DXLimC= 3.00D+00 Rises=F
 ClnCor:  largest displacement from symmetrization is 1.22D-04 for atom     4.
 Variable       Old X    -DE/DX   Delta X   Delta X   Delta X     New X
                                 (Linear)    (Quad)   (Total)
    R1        1.91896   0.00046   0.00297  -0.00078   0.00223   1.92119
    R2        1.91896   0.00046   0.00297  -0.00078   0.00223   1.92119
    R3        1.91896   0.00046   0.00297  -0.00078   0.00223   1.92119
    A1        1.85859  -0.00013  -0.00283  -0.00499  -0.00809   1.85050
    A2        1.85859  -0.00061  -0.00283  -0.00530  -0.00809   1.85050
    A3        1.85859  -0.00061  -0.00283  -0.00530  -0.00809   1.85050
    D1        1.97831  -0.00070  -0.00584  -0.01045  -0.01626   1.96205
         Item               Value     Threshold  Converged?
 Maximum Force            0.000698     0.000450     NO 
 RMS     Force            0.000519     0.000300     NO 
 Maximum Displacement     0.010381     0.001800     NO 
 RMS     Displacement     0.005023     0.001200     NO 
 Predicted change in Energy=-1.234509D-05
 Lowest energy point so far.  Saving SCF results.
 Largest change from initial coordinates is atom    4       0.008 Angstoms.
 GradGradGradGradGradGradGradGradGradGradGradGradGradGradGradGradGradGrad

 Leave Link  103 at Wed Oct  7 14:33:28 2020, MaxMem=  2684354560 cpu:               1.6 elap:               0.5
 (Enter /udrive/faculty/rpeverati/g16/g16/l202.exe)
                          Input orientation:                          
 ---------------------------------------------------------------------
 Center     Atomic      Atomic             Coordinates (Angstroms)
 Number     Number       Type             X           Y           Z
 ---------------------------------------------------------------------
      1          7           0       -0.000000   -0.000000    0.294622
      2          1           0        0.468848    0.812068   -0.098189
      3          1           0        0.468848   -0.812068   -0.098189
      4          1           0       -0.937696    0.000000   -0.098189
 ---------------------------------------------------------------------
                    Distance matrix (angstroms):
                    1          2          3          4
     1  N    0.000000
     2  H    1.016648   0.000000
     3  H    1.016648   1.624137   0.000000
     4  H    1.016648   1.624137   1.624137   0.000000
 Stoichiometry    H3N
 Framework group  C3V[C3(N),3SGV(H)]
 Deg. of freedom     2
 Full point group                 C3V     NOp   6
 RotChk:  IX=0 Diff= 1.57D-16
 Largest Abelian subgroup         CS      NOp   2
 Largest concise Abelian subgroup CS      NOp   2
                         Standard orientation:                         
 ---------------------------------------------------------------------
 Center     Atomic      Atomic             Coordinates (Angstroms)
 Number     Number       Type             X           Y           Z
 ---------------------------------------------------------------------
      1          7           0        0.000000    0.000000    0.117843
      2          1           0        0.000000    0.937696   -0.274967
      3          1           0        0.812068   -0.468848   -0.274967
      4          1           0       -0.812068   -0.468848   -0.274967
 ---------------------------------------------------------------------
 Rotational constants (GHZ):         295.0410914         295.0410914         190.1021280
 Leave Link  202 at Wed Oct  7 14:33:29 2020, MaxMem=  2684354560 cpu:               1.0 elap:               0.4
 (Enter /udrive/faculty/rpeverati/g16/g16/l301.exe)
 Standard basis: 6-31G(d) (5D, 7F)
 Ernie: Thresh=  0.10000D-02 Tol=  0.10000D-05 Strict=F.
 There are    15 symmetry adapted cartesian basis functions of A'  symmetry.
 There are     6 symmetry adapted cartesian basis functions of A"  symmetry.
 There are    14 symmetry adapted basis functions of A'  symmetry.
 There are     6 symmetry adapted basis functions of A"  symmetry.
    20 basis functions,    40 primitive gaussians,    21 cartesian basis functions
     5 alpha electrons        5 beta electrons
       nuclear repulsion energy        11.9082073671 Hartrees.
 IExCor= 1009 DFT=T Ex+Corr=PBE1PBE ExCW=0 ScaHFX=  0.250000
 ScaDFX=  0.750000  0.750000  1.000000  1.000000 ScalE2=  1.000000  1.000000
 IRadAn=      5 IRanWt=     -1 IRanGd=            0 ICorTp=0 IEmpDi=141
 NAtoms=    4 NActive=    4 NUniq=    2 SFac= 4.00D+00 NAtFMM=   60 NAOKFM=F Big=F
 Integral buffers will be    131072 words long.
 Raffenetti 2 integral format.
 Two-electron integral symmetry is turned on.
 R6Disp:  Grimme-D3(BJ) Dispersion energy=       -0.0005886390 Hartrees.
 Nuclear repulsion after empirical dispersion term =       11.9076187281 Hartrees.
 Leave Link  301 at Wed Oct  7 14:33:29 2020, MaxMem=  2684354560 cpu:               2.1 elap:               0.4
 (Enter /udrive/faculty/rpeverati/g16/g16/l302.exe)
 NPDir=0 NMtPBC=     1 NCelOv=     1 NCel=       1 NClECP=     1 NCelD=      1
         NCelK=      1 NCelE2=     1 NClLst=     1 CellRange=     0.0.
 One-electron integrals computed using PRISM.
 One-electron integral symmetry used in STVInt
 NBasis=    20 RedAO= T EigKep=  3.90D-02  NBF=    14     6
 NBsUse=    20 1.00D-06 EigRej= -1.00D+00 NBFU=    14     6
 Precomputing XC quadrature grid using
 IXCGrd= 4 IRadAn=           5 IRanWt=          -1 IRanGd=           0 AccXCQ= 0.00D+00.
 Generated NRdTot=       0 NPtTot=           0 NUsed=           0 NTot=          32
 NSgBfM=    21    21    21    21    21 MxSgAt=     4 MxSgA2=     4.
 Leave Link  302 at Wed Oct  7 14:33:30 2020, MaxMem=  2684354560 cpu:               2.9 elap:               0.5
 (Enter /udrive/faculty/rpeverati/g16/g16/l303.exe)
 DipDrv:  MaxL=1.
 Leave Link  303 at Wed Oct  7 14:33:31 2020, MaxMem=  2684354560 cpu:               0.8 elap:               0.4
 (Enter /udrive/faculty/rpeverati/g16/g16/l401.exe)
 Initial guess from the checkpoint file:  "MN_71_NH3_BH76_PBE0DBJ_631Gs.chk"
 SCF N**3 symmetry information disabled.
 B after Tr=     0.000000    0.000000    0.000000
         Rot=    1.000000   -0.000000   -0.000000   -0.000000 Ang=   0.00 deg.
 Guess basis will be translated and rotated to current coordinates.
 JPrj=2 DoOrth=T DoCkMO=T.
 Initial guess orbital symmetries:
       Occupied  (A1) (A1) (E) (E) (A1)
       Virtual   (A1) (E) (E) (E) (E) (A1) (E) (E) (A1) (A1) (E)
                 (E) (A1) (E) (E)
 The electronic state of the initial guess is 1-A1.
 Leave Link  401 at Wed Oct  7 14:33:31 2020, MaxMem=  2684354560 cpu:               2.0 elap:               0.5
 (Enter /udrive/faculty/rpeverati/g16/g16/l502.exe)
 Keep R1 ints in memory in symmetry-blocked form, NReq=10364782.
 FoFCou: FMM=F IPFlag=           0 FMFlag=           0 FMFlg1=           0
         NFxFlg=           0 DoJE=F BraDBF=F KetDBF=F FulRan=T
         wScrn=  0.000000 ICntrl=       600 IOpCl=  0 I1Cent=           0 NGrid=           0
         NMat0=    1 NMatS0=    210 NMatT0=    0 NMatD0=    1 NMtDS0=    0 NMtDT0=    0
 Petite list used in FoFCou.
 Closed shell SCF:
 Using DIIS extrapolation, IDIIS=  1040.
 NGot=  2684354560 LenX=  2684340664 LenY=  2684339782
 Requested convergence on RMS density matrix=1.00D-08 within 120 cycles.
 Requested convergence on MAX density matrix=1.00D-06.
 Requested convergence on             energy=1.00D-06.
 No special actions if energy rises.

 Cycle   1  Pass 1  IDiag  1:
 E= -56.4767555410289    
 DIIS: error= 9.45D-04 at cycle   1 NSaved=   1.
 NSaved= 1 IEnMin= 1 EnMin= -56.4767555410289     IErMin= 1 ErrMin= 9.45D-04
 ErrMax= 9.45D-04  0.00D+00 EMaxC= 1.00D-01 BMatC= 1.10D-05 BMatP= 1.10D-05
 IDIUse=3 WtCom= 9.91D-01 WtEn= 9.45D-03
 Coeff-Com:  0.100D+01
 Coeff-En:   0.100D+01
 Coeff:      0.100D+01
 Gap=     0.361 Goal=   None    Shift=    0.000
 RMSDP=3.06D-04 MaxDP=2.43D-03              OVMax= 2.24D-03

 Cycle   2  Pass 1  IDiag  1:
 E= -56.4767696319831     Delta-E=       -0.000014090954 Rises=F Damp=F
 DIIS: error= 3.02D-04 at cycle   2 NSaved=   2.
 NSaved= 2 IEnMin= 2 EnMin= -56.4767696319831     IErMin= 2 ErrMin= 3.02D-04
 ErrMax= 3.02D-04  0.00D+00 EMaxC= 1.00D-01 BMatC= 1.81D-06 BMatP= 1.10D-05
 IDIUse=3 WtCom= 9.97D-01 WtEn= 3.02D-03
 Coeff-Com:  0.170D+00 0.830D+00
 Coeff-En:   0.000D+00 0.100D+01
 Coeff:      0.169D+00 0.831D+00
 Gap=     0.361 Goal=   None    Shift=    0.000
 RMSDP=8.24D-05 MaxDP=6.09D-04 DE=-1.41D-05 OVMax= 6.19D-04

 Cycle   3  Pass 1  IDiag  1:
 E= -56.4767701998209     Delta-E=       -0.000000567838 Rises=F Damp=F
 DIIS: error= 2.67D-04 at cycle   3 NSaved=   3.
 NSaved= 3 IEnMin= 3 EnMin= -56.4767701998209     IErMin= 3 ErrMin= 2.67D-04
 ErrMax= 2.67D-04  0.00D+00 EMaxC= 1.00D-01 BMatC= 1.23D-06 BMatP= 1.81D-06
 IDIUse=3 WtCom= 9.97D-01 WtEn= 2.67D-03
 Coeff-Com: -0.354D-01 0.457D+00 0.579D+00
 Coeff-En:   0.000D+00 0.396D+00 0.604D+00
 Coeff:     -0.353D-01 0.456D+00 0.579D+00
 Gap=     0.361 Goal=   None    Shift=    0.000
 RMSDP=4.47D-05 MaxDP=3.19D-04 DE=-5.68D-07 OVMax= 3.24D-04

 Cycle   4  Pass 1  IDiag  1:
 E= -56.4767712752555     Delta-E=       -0.000001075435 Rises=F Damp=F
 DIIS: error= 1.14D-05 at cycle   4 NSaved=   4.
 NSaved= 4 IEnMin= 4 EnMin= -56.4767712752555     IErMin= 4 ErrMin= 1.14D-05
 ErrMax= 1.14D-05  0.00D+00 EMaxC= 1.00D-01 BMatC= 2.74D-09 BMatP= 1.23D-06
 IDIUse=1 WtCom= 1.00D+00 WtEn= 0.00D+00
 Coeff-Com: -0.133D-01 0.820D-01 0.128D+00 0.804D+00
 Coeff:     -0.133D-01 0.820D-01 0.128D+00 0.804D+00
 Gap=     0.361 Goal=   None    Shift=    0.000
 RMSDP=2.94D-06 MaxDP=2.23D-05 DE=-1.08D-06 OVMax= 2.02D-05

 Cycle   5  Pass 1  IDiag  1:
 E= -56.4767712778249     Delta-E=       -0.000000002569 Rises=F Damp=F
 DIIS: error= 1.04D-06 at cycle   5 NSaved=   5.
 NSaved= 5 IEnMin= 5 EnMin= -56.4767712778249     IErMin= 5 ErrMin= 1.04D-06
 ErrMax= 1.04D-06  0.00D+00 EMaxC= 1.00D-01 BMatC= 2.30D-11 BMatP= 2.74D-09
 IDIUse=1 WtCom= 1.00D+00 WtEn= 0.00D+00
 Coeff-Com:  0.178D-02-0.168D-01-0.203D-01-0.699D-01 0.111D+01
 Coeff:      0.178D-02-0.168D-01-0.203D-01-0.699D-01 0.111D+01
 Gap=     0.361 Goal=   None    Shift=    0.000
 RMSDP=1.33D-06 MaxDP=9.29D-06 DE=-2.57D-09 OVMax= 9.97D-06

 Cycle   6  Pass 1  IDiag  1:
 E= -56.4767712779067     Delta-E=       -0.000000000082 Rises=F Damp=F
 DIIS: error= 1.21D-07 at cycle   6 NSaved=   6.
 NSaved= 6 IEnMin= 6 EnMin= -56.4767712779067     IErMin= 6 ErrMin= 1.21D-07
 ErrMax= 1.21D-07  0.00D+00 EMaxC= 1.00D-01 BMatC= 1.96D-13 BMatP= 2.30D-11
 IDIUse=1 WtCom= 1.00D+00 WtEn= 0.00D+00
 Coeff-Com: -0.151D-04 0.386D-03 0.514D-03-0.470D-02-0.554D-01 0.106D+01
 Coeff:     -0.151D-04 0.386D-03 0.514D-03-0.470D-02-0.554D-01 0.106D+01
 Gap=     0.361 Goal=   None    Shift=    0.000
 RMSDP=6.90D-08 MaxDP=4.69D-07 DE=-8.18D-11 OVMax= 5.31D-07

 Cycle   7  Pass 1  IDiag  1:
 E= -56.4767712779070     Delta-E=       -0.000000000000 Rises=F Damp=F
 DIIS: error= 6.54D-09 at cycle   7 NSaved=   7.
 NSaved= 7 IEnMin= 7 EnMin= -56.4767712779070     IErMin= 7 ErrMin= 6.54D-09
 ErrMax= 6.54D-09  0.00D+00 EMaxC= 1.00D-01 BMatC= 4.98D-16 BMatP= 1.96D-13
 IDIUse=1 WtCom= 1.00D+00 WtEn= 0.00D+00
 Coeff-Com: -0.708D-05 0.511D-04 0.424D-04 0.510D-03-0.197D-02-0.564D-01
 Coeff-Com:  0.106D+01
 Coeff:     -0.708D-05 0.511D-04 0.424D-04 0.510D-03-0.197D-02-0.564D-01
 Coeff:      0.106D+01
 Gap=     0.361 Goal=   None    Shift=    0.000
 RMSDP=2.21D-09 MaxDP=1.98D-08 DE=-2.98D-13 OVMax= 2.22D-08

 SCF Done:  E(RPBE1PBE) =  -56.4767712779     A.U. after    7 cycles
            NFock=  7  Conv=0.22D-08     -V/T= 2.0050
 KE= 5.619617487437D+01 PE=-1.558100434562D+02 EE= 3.122947857585D+01
 Leave Link  502 at Wed Oct  7 14:33:33 2020, MaxMem=  2684354560 cpu:               8.2 elap:               1.1
 (Enter /udrive/faculty/rpeverati/g16/g16/l508.exe)
 QCSCF skips out because SCF is already converged.
 Leave Link  508 at Wed Oct  7 14:33:33 2020, MaxMem=  2684354560 cpu:               0.3 elap:               0.3
 (Enter /udrive/faculty/rpeverati/g16/g16/l701.exe)
 ... and contract with generalized density number  0.
 Compute integral first derivatives.
 R6Disp: Adding Grimme-D3(BJ) dispersion energy 1st derivatives to the gradient.
 Leave Link  701 at Wed Oct  7 14:33:34 2020, MaxMem=  2684354560 cpu:               3.3 elap:               0.6
 (Enter /udrive/faculty/rpeverati/g16/g16/l702.exe)
 L702 exits ... SP integral derivatives will be done elsewhere.
 Leave Link  702 at Wed Oct  7 14:33:34 2020, MaxMem=  2684354560 cpu:               0.9 elap:               0.4
 (Enter /udrive/faculty/rpeverati/g16/g16/l703.exe)
 Integral derivatives from FoFJK, PRISM(SPDF).
 Compute integral first derivatives, UseDBF=F ICtDFT=           0.
 Calling FoFJK, ICntrl=      2127 FMM=F ISym2X=1 I1Cent= 0 IOpClX= 0 NMat=1 NMatS=1 NMatT=0.
 FoFJK:  IHMeth= 1 ICntrl=    2127 DoSepK=F KAlg= 0 I1Cent=           0 FoldK=F
 IRaf=         0 NMat=       1 IRICut=       1 DoRegI=T DoRafI=F ISym2E= 1 IDoP0=0 IntGTp=1.
 FoFCou: FMM=F IPFlag=           0 FMFlag=      100000 FMFlg1=         800
         NFxFlg=           0 DoJE=F BraDBF=F KetDBF=F FulRan=T
         wScrn=  0.000000 ICntrl=      2127 IOpCl=  0 I1Cent=           0 NGrid=           0
         NMat0=    1 NMatS0=      1 NMatT0=    0 NMatD0=    1 NMtDS0=    0 NMtDT0=    0
 Petite list used in FoFCou.
 Leave Link  703 at Wed Oct  7 14:33:35 2020, MaxMem=  2684354560 cpu:               4.7 elap:               0.7
 (Enter /udrive/faculty/rpeverati/g16/g16/l716.exe)
 Dipole        = 0.00000000D+00 3.33066907D-16-7.60286842D-01
 ***** Axes restored to original set *****
 -------------------------------------------------------------------
 Center     Atomic                   Forces (Hartrees/Bohr)
 Number     Number              X              Y              Z
 -------------------------------------------------------------------
      1        7          -0.000000000   -0.000000000   -0.000052890
      2        1          -0.000023271   -0.000040307    0.000017630
      3        1          -0.000023271    0.000040307    0.000017630
      4        1           0.000046543   -0.000000000    0.000017630
 -------------------------------------------------------------------
 Cartesian Forces:  Max     0.000052890 RMS     0.000029195
 Leave Link  716 at Wed Oct  7 14:33:36 2020, MaxMem=  2684354560 cpu:               0.7 elap:               0.4
 (Enter /udrive/faculty/rpeverati/g16/g16/l103.exe)

 GradGradGradGradGradGradGradGradGradGradGradGradGradGradGradGradGradGrad
 Berny optimization.
 Optmz: redundant internal coordinate code flag= 1
 Using GEDIIS/GDIIS optimizer.
 Red2BG:  D1=  7.30D-01 OD1=  2.23D-02 B2RMS=  0.00D+00 IAprox=0
 FormGI is forming the generalized inverse of G from B-inverse, IUseBI=4.
 Internal  Forces:  Max     0.000049740 RMS     0.000032592
 Search for a local minimum.
 Step number   3 out of a maximum of  100
 All quantities printed in internal units (Hartrees-Bohrs-Radians)
 RMS Force = .32592D-04 SwitMx=.10000D-02 MixMth= 2
 Mixed Optimization -- En-DIIS/RFO-DIIS
 Swapping is turned off.
 Update second derivatives using D2CorX and points    1    2    3
 DE= -1.26D-05 DEPred=-1.23D-05 R= 1.02D+00
 TightC=F SS=  1.41D+00  RLast= 2.18D-02 DXNew= 5.0454D-01 6.5423D-02
 Trust test= 1.02D+00 RLast= 2.18D-02 DXMaxT set to 3.00D-01
 The second derivative matrix:
                          R1        R2        R3        A1        A2
           R1           0.46502
           R2           0.00644   0.46502
           R3           0.00644   0.00644   0.46502
           A1           0.05511   0.05511   0.05511   0.13342
           A2           0.03283   0.03283   0.03283  -0.02910   0.13836
           A3           0.03283   0.03283   0.03283  -0.02910  -0.02164
           D1          -0.02606  -0.02606  -0.02606  -0.00673   0.00728
                          A3        D1
           A3           0.13836
           D1           0.00728   0.02818
 ITU=  1  1  0
 Eigenvectors of the second derivative matrix:
                           1         2         3         4         5
     Eigenvalues --     0.04784   0.15415   0.16000   0.45857   0.45857
   1         R1         0.05628  -0.03732  -0.00000   0.40416  -0.70945
   2         R2         0.05628  -0.03732  -0.00000  -0.81648   0.00471
   3         R3         0.05628  -0.03732  -0.00000   0.41232   0.70474
   4         A1        -0.48812  -0.52996   0.00000   0.00000   0.00000
   5         A2        -0.26846   0.59480   0.70711   0.00000   0.00000
   6         A3        -0.26846   0.59480  -0.70711   0.00000   0.00000
   7         D1        -0.77981  -0.08589   0.00000   0.00000   0.00000
                           6
     Eigenvalues --     0.48342
   1         R1         0.57339
   2         R2         0.57339
   3         R3         0.57339
   4         A1         0.01341
   5         A2         0.06507
   6         A3         0.06507
   7         D1         0.07095
 DoSqrt=T IScMMF=    -3 MM Scaling Factor =       0.00000
 En-DIIS/RFO-DIIS/Sim-DIIS IScMMF=       -3 using points:     3    2
 Iter=   1 RLamda=-2.16490145D-03 Sum=-1.58823503D-08.
 Iter=   2 RLamda=-1.58823503D-08 Sum=-1.59776105D-08.
 RFO step:  Lambda=-1.58823503D-08.
 NNeg= 0 NGDIIS= 2 SimSw=  2.50D-03 Rises=F DC= -1.26D-05 SmlDif=  1.00D-05
 NRisDI= 0 DoIntr=F SqrtH=F CThrHd= 10.0 CDAdj=  3.0
 RMS Error=  0.7990397967D-04 NUsed= 2 OKEnD=T EnDIS=F
 Energy Point     1  -0.5647677128D+02
 Energy Point     2  -0.5647675864D+02
 Total En-DIIS matrix:
                 1             2             3 
      1   0.000000D+00 -0.100000D+01 -0.100000D+01
      2  -0.100000D+01  0.000000D+00  0.256189D-04
      3  -0.100000D+01  0.256189D-04  0.000000D+00
 Total RFO-DIIS matrix:
                 1             2             3 
      1   0.000000D+00 -0.100000D+01 -0.100000D+01
      2  -0.100000D+01  0.446925D-07 -0.271228D-05
      3  -0.100000D+01 -0.271228D-05  0.468556D-03
 InvSVX:  RCond= 5.33D-04 Info=           0 Equed=N FErr=  8.93D-16 BErr=  0.00D+00
 DidBck=F Rises=F RFO-DIIS coefs:    0.99418    0.00582
 Iteration  1 RMS(Cart)=  0.00005992 RMS(Int)=  0.00000028
 Iteration  2 RMS(Cart)=  0.00000000 RMS(Int)=  0.00000028
 ITry= 1 IFail=0 DXMaxC= 7.99D-05 DCOld= 1.00D+10 DXMaxT= 3.00D-01 DXLimC= 3.00D+00 Rises=F
 ClnCor:  largest displacement from symmetrization is 4.08D-06 for atom     4.
 Variable       Old X    -DE/DX   Delta X   Delta X   Delta X     New X
                                 (Linear)    (Quad)   (Total)
    R1        1.92119  -0.00005  -0.00001  -0.00010  -0.00011   1.92108
    R2        1.92119  -0.00005  -0.00001  -0.00010  -0.00011   1.92108
    R3        1.92119  -0.00005  -0.00001  -0.00010  -0.00011   1.92108
    A1        1.85050  -0.00000   0.00005  -0.00001   0.00004   1.85053
    A2        1.85050  -0.00000   0.00005  -0.00001   0.00004   1.85053
    A3        1.85050  -0.00000   0.00005  -0.00001   0.00004   1.85053
    D1        1.96205  -0.00000   0.00009  -0.00002   0.00007   1.96212
         Item               Value     Threshold  Converged?
 Maximum Force            0.000050     0.000450     YES
 RMS     Force            0.000033     0.000300     YES
 Maximum Displacement     0.000076     0.001800     YES
 RMS     Displacement     0.000059     0.001200     YES
 Predicted change in Energy=-7.984638D-09
 Optimization completed.
    -- Stationary point found.
                           ----------------------------
                           !   Optimized Parameters   !
                           ! (Angstroms and Degrees)  !
 --------------------------                            --------------------------
 ! Name  Definition              Value          Derivative Info.                !
 --------------------------------------------------------------------------------
 ! R1    R(1,2)                  1.0166         -DE/DX =    0.0                 !
 ! R2    R(1,3)                  1.0166         -DE/DX =    0.0                 !
 ! R3    R(1,4)                  1.0166         -DE/DX =    0.0                 !
 ! A1    A(2,1,3)              106.0257         -DE/DX =    0.0                 !
 ! A2    A(2,1,4)              106.0257         -DE/DX =    0.0                 !
 ! A3    A(3,1,4)              106.0257         -DE/DX =    0.0                 !
 ! D1    D(2,1,4,3)            112.417          -DE/DX =    0.0                 !
 --------------------------------------------------------------------------------
 Lowest energy point so far.  Saving SCF results.
 Largest change from initial coordinates is atom    3       0.012 Angstoms.
 GradGradGradGradGradGradGradGradGradGradGradGradGradGradGradGradGradGrad

 Leave Link  103 at Wed Oct  7 14:33:36 2020, MaxMem=  2684354560 cpu:               1.2 elap:               0.4
 (Enter /udrive/faculty/rpeverati/g16/g16/l202.exe)
                          Input orientation:                          
 ---------------------------------------------------------------------
 Center     Atomic      Atomic             Coordinates (Angstroms)
 Number     Number       Type             X           Y           Z
 ---------------------------------------------------------------------
      1          7           0       -0.000000   -0.000000    0.294622
      2          1           0        0.468848    0.812068   -0.098189
      3          1           0        0.468848   -0.812068   -0.098189
      4          1           0       -0.937696    0.000000   -0.098189
 ---------------------------------------------------------------------
                    Distance matrix (angstroms):
                    1          2          3          4
     1  N    0.000000
     2  H    1.016648   0.000000
     3  H    1.016648   1.624137   0.000000
     4  H    1.016648   1.624137   1.624137   0.000000
 Stoichiometry    H3N
 Framework group  C3V[C3(N),3SGV(H)]
 Deg. of freedom     2
 Full point group                 C3V     NOp   6
 RotChk:  IX=0 Diff= 1.57D-16
 Largest Abelian subgroup         CS      NOp   2
 Largest concise Abelian subgroup CS      NOp   2
                         Standard orientation:                         
 ---------------------------------------------------------------------
 Center     Atomic      Atomic             Coordinates (Angstroms)
 Number     Number       Type             X           Y           Z
 ---------------------------------------------------------------------
      1          7           0        0.000000    0.000000    0.117843
      2          1           0        0.000000    0.937696   -0.274967
      3          1           0        0.812068   -0.468848   -0.274967
      4          1           0       -0.812068   -0.468848   -0.274967
 ---------------------------------------------------------------------
 Rotational constants (GHZ):         295.0410914         295.0410914         190.1021280
 Leave Link  202 at Wed Oct  7 14:33:37 2020, MaxMem=  2684354560 cpu:               1.2 elap:               0.5
 (Enter /udrive/faculty/rpeverati/g16/g16/l601.exe)
 Copying SCF densities to generalized density rwf, IOpCl= 0 IROHF=0.

 **********************************************************************

            Population analysis using the SCF density.

 **********************************************************************

 Orbital symmetries:
       Occupied  (A1) (A1) (E) (E) (A1)
       Virtual   (A1) (E) (E) (E) (E) (A1) (E) (E) (A1) (A1) (E)
                 (E) (A1) (E) (E)
 The electronic state is 1-A1.
 Alpha  occ. eigenvalues --  -14.35712  -0.86820  -0.46491  -0.46491  -0.26360
 Alpha virt. eigenvalues --    0.09758   0.18489   0.18489   0.70185   0.70185
 Alpha virt. eigenvalues --    0.74867   0.94540   0.94540   0.95483   1.25527
 Alpha virt. eigenvalues --    1.68094   1.68094   1.96123   2.42327   2.42327
          Condensed to atoms (all electrons):
               1          2          3          4
     1  N    6.999746   0.319666   0.319666   0.319666
     2  H    0.319666   0.420271  -0.029759  -0.029759
     3  H    0.319666  -0.029759   0.420271  -0.029759
     4  H    0.319666  -0.029759  -0.029759   0.420271
 Mulliken charges:
               1
     1  N   -0.958744
     2  H    0.319581
     3  H    0.319581
     4  H    0.319581
 Sum of Mulliken charges =  -0.00000
 Mulliken charges with hydrogens summed into heavy atoms:
               1
     1  N   -0.000000
 Electronic spatial extent (au):  <R**2>=             26.1895
 Charge=             -0.0000 electrons
 Dipole moment (field-independent basis, Debye):
    X=             -0.0000    Y=              0.0000    Z=             -1.9325  Tot=              1.9325
 Quadrupole moment (field-independent basis, Debye-Ang):
   XX=             -6.0953   YY=             -6.0953   ZZ=             -8.8088
   XY=             -0.0000   XZ=             -0.0000   YZ=             -0.0000
 Traceless Quadrupole moment (field-independent basis, Debye-Ang):
   XX=              0.9045   YY=              0.9045   ZZ=             -1.8090
   XY=             -0.0000   XZ=             -0.0000   YZ=             -0.0000
 Octapole moment (field-independent basis, Debye-Ang**2):
  XXX=             -0.0000  YYY=              0.8362  ZZZ=             -1.7637  XYY=              0.0000
  XXY=             -0.8362  XXZ=             -0.9353  XZZ=              0.0000  YZZ=              0.0000
  YYZ=             -0.9353  XYZ=              0.0000
 Hexadecapole moment (field-independent basis, Debye-Ang**3):
 XXXX=             -9.3751 YYYY=             -9.3751 ZZZZ=             -9.7839 XXXY=              0.0000
 XXXZ=              0.0000 YYYX=              0.0000 YYYZ=             -0.3163 ZZZX=             -0.0000
 ZZZY=             -0.0000 XXYY=             -3.1250 XXZZ=             -3.2337 YYZZ=             -3.2337
 XXYZ=              0.3163 YYXZ=             -0.0000 ZZXY=              0.0000
 N-N= 1.190761872810D+01 E-N=-1.558100433638D+02  KE= 5.619617487437D+01
 No NMR shielding tensors so no spin-rotation constants.
 Leave Link  601 at Wed Oct  7 14:33:38 2020, MaxMem=  2684354560 cpu:               3.2 elap:               0.7
 (Enter /udrive/faculty/rpeverati/g16/g16/l9999.exe)

 Test job not archived.
 1\1\GINC-NODE23\FOpt\RPBE1PBE\6-31G(d)\H3N1\RPEVERATI\07-Oct-2020\0\\#
 P Opt(MaxCyc=100) PBE1PBE/6-31G* 5D 7F Integral=UltraFineGrid SCF=(NoS
 ymm,XQC,MaxCyc=120) EmpiricalDispersion=GD3BJ IOp(1/33=1)\\TS search o
 n BH76.\\0,1\N,0.,0.,0.2946215678\H,0.4688478363,0.8120682734,-0.09818
 90171\H,0.4688478363,-0.8120682734,-0.0981890171\H,-0.9376956725,0.,-0
 .0981890171\\Version=ES64L-G16RevA.03\State=1-A1\HF=-56.4767713\RMSD=2
 .206e-09\RMSF=2.920e-05\Dipole=0.,0.,-0.7602868\Quadrupole=0.6724702,0
 .6724702,-1.3449404,0.,0.,0.\PG=C03V [C3(N1),3SGV(H1)]\\@


 Money is a good servant but a bad master.
                        -- French Proverb
 Job cpu time:       0 days  0 hours  1 minutes 52.5 seconds.
 Elapsed time:       0 days  0 hours  0 minutes 23.0 seconds.
 File lengths (MBytes):  RWF=      5 Int=      0 D2E=      0 Chk=      1 Scr=      1
 Normal termination of Gaussian 16 at Wed Oct  7 14:33:39 2020.
