 Entering Gaussian System, Link 0=g16
 Input=MN_85_RKT09_BH76_PBE0DBJ_631Gs.in
 Output=MN_85_RKT09_BH76_PBE0DBJ_631Gs.log
 Initial command:
 /udrive/faculty/rpeverati/g16/g16/l1.exe "/udrive/scratch-directories/gaussian09/rpeverati/Gau-17354.inp" -scrdir="/udrive/scratch-directories/gaussian09/rpeverati/"
 Entering Link 1 = /udrive/faculty/rpeverati/g16/g16/l1.exe PID=     17355.
  
 Copyright (c) 1988,1990,1992,1993,1995,1998,2003,2009,2016,
            Gaussian, Inc.  All Rights Reserved.
  
 This is part of the Gaussian(R) 16 program.  It is based on
 the Gaussian(R) 09 system (copyright 2009, Gaussian, Inc.),
 the Gaussian(R) 03 system (copyright 2003, Gaussian, Inc.),
 the Gaussian(R) 98 system (copyright 1998, Gaussian, Inc.),
 the Gaussian(R) 94 system (copyright 1995, Gaussian, Inc.),
 the Gaussian 92(TM) system (copyright 1992, Gaussian, Inc.),
 the Gaussian 90(TM) system (copyright 1990, Gaussian, Inc.),
 the Gaussian 88(TM) system (copyright 1988, Gaussian, Inc.),
 the Gaussian 86(TM) system (copyright 1986, Carnegie Mellon
 University), and the Gaussian 82(TM) system (copyright 1983,
 Carnegie Mellon University). Gaussian is a federally registered
 trademark of Gaussian, Inc.
  
 This software contains proprietary and confidential information,
 including trade secrets, belonging to Gaussian, Inc.
  
 This software is provided under written license and may be
 used, copied, transmitted, or stored only in accord with that
 written license.
  
 The following legend is applicable only to US Government
 contracts under FAR:
  
                    RESTRICTED RIGHTS LEGEND
  
 Use, reproduction and disclosure by the US Government is
 subject to restrictions as set forth in subparagraphs (a)
 and (c) of the Commercial Computer Software - Restricted
 Rights clause in FAR 52.227-19.
  
 Gaussian, Inc.
 340 Quinnipiac St., Bldg. 40, Wallingford CT 06492
  
  
 ---------------------------------------------------------------
 Warning -- This program may not be used in any manner that
 competes with the business of Gaussian, Inc. or will provide
 assistance to any competitor of Gaussian, Inc.  The licensee
 of this program is prohibited from giving any competitor of
 Gaussian, Inc. access to this program.  By using this program,
 the user acknowledges that Gaussian, Inc. is engaged in the
 business of creating and licensing software in the field of
 computational chemistry and represents and warrants to the
 licensee that it is not a competitor of Gaussian, Inc. and that
 it will not use this program in any manner prohibited above.
 ---------------------------------------------------------------
  

 Cite this work as:
 Gaussian 16, Revision A.03,
 M. J. Frisch, G. W. Trucks, H. B. Schlegel, G. E. Scuseria, 
 M. A. Robb, J. R. Cheeseman, G. Scalmani, V. Barone, 
 G. A. Petersson, H. Nakatsuji, X. Li, M. Caricato, A. V. Marenich, 
 J. Bloino, B. G. Janesko, R. Gomperts, B. Mennucci, H. P. Hratchian, 
 J. V. Ortiz, A. F. Izmaylov, J. L. Sonnenberg, D. Williams-Young, 
 F. Ding, F. Lipparini, F. Egidi, J. Goings, B. Peng, A. Petrone, 
 T. Henderson, D. Ranasinghe, V. G. Zakrzewski, J. Gao, N. Rega, 
 G. Zheng, W. Liang, M. Hada, M. Ehara, K. Toyota, R. Fukuda, 
 J. Hasegawa, M. Ishida, T. Nakajima, Y. Honda, O. Kitao, H. Nakai, 
 T. Vreven, K. Throssell, J. A. Montgomery, Jr., J. E. Peralta, 
 F. Ogliaro, M. J. Bearpark, J. J. Heyd, E. N. Brothers, K. N. Kudin, 
 V. N. Staroverov, T. A. Keith, R. Kobayashi, J. Normand, 
 K. Raghavachari, A. P. Rendell, J. C. Burant, S. S. Iyengar, 
 J. Tomasi, M. Cossi, J. M. Millam, M. Klene, C. Adamo, R. Cammi, 
 J. W. Ochterski, R. L. Martin, K. Morokuma, O. Farkas, 
 J. B. Foresman, and D. J. Fox, Gaussian, Inc., Wallingford CT, 2016.
 
 ******************************************
 Gaussian 16:  ES64L-G16RevA.03 25-Dec-2016
                 7-Oct-2020 
 ******************************************
 %NoSave
 %nproc=12
 Will use up to   12 processors via shared memory.
 %mem=20GB
 %chk=MN_85_RKT09_BH76_PBE0DBJ_631Gs
 ----------------------------------------------------------------------
 #P Opt(TS,MaxCyc=50,NoEigenTest,MaxStep=10,AddRedundant) PBE1PBE/6-31G
 * 5D 7F Integral=UltraFineGrid SCF=(NoSymm,XQC,MaxCyc=120) EmpiricalDi
 spersion=GD3BJ IOp(1/33=1)
 ----------------------------------------------------------------------
 1/5=1,6=50,8=10,11=1,18=120,26=4,33=1,38=1/1,3;
 2/9=110,12=2,17=6,18=5,40=1/2;
 3/5=1,6=6,7=1,8=11,11=2,25=1,30=1,71=1,74=-13,75=-5,124=41/1,2,3;
 4/9=2/1;
 5/5=2,7=120,8=3,13=1,38=5/2,8;
 6/7=2,8=2,9=2,10=2,28=1/1;
 7//1,2,3,16;
 1/5=1,6=50,8=10,11=1,18=20,26=4,33=1/3(2);
 2/9=110/2;
 99//99;
 2/9=110/2;
 3/5=1,6=6,7=1,8=11,11=2,25=1,30=1,71=1,74=-13,75=-5,124=41/1,2,3;
 4/5=5,9=2,16=3,69=1/1;
 5/5=2,7=120,8=3,13=1,38=5/2,8;
 7//1,2,3,16;
 1/5=1,6=50,8=10,11=1,18=20,26=4,33=1/3(-5);
 2/9=110/2;
 6/7=2,8=2,9=2,10=2,19=2,28=1/1;
 99/9=1/99;
 Leave Link    1 at Wed Oct  7 14:33:38 2020, MaxMem=  2684354560 cpu:               8.4 elap:               1.0
 (Enter /udrive/faculty/rpeverati/g16/g16/l101.exe)
 ONIOM data not found on unit 2.
 ------------------
 TS search on BH76.
 ------------------
 TstMul:  ICh=     0
 TstMul:  Mul=     2
 TstMul:  ICh=     0
 TstMul:  Mul=     2
 Symbolic Z-matrix:
 Charge =  0 Multiplicity = 2
 C                     1.45833  -0.44637   0.02548 
 C                     0.46942   0.69742  -0.02749 
 O                    -1.85304  -0.31466  -0.05305 
 H                     1.30177  -1.06108   0.91074 
 H                     1.36658  -1.08619  -0.85112 
 H                     2.48225  -0.06688   0.05715 
 H                     0.47107   1.32545   0.86103 
 H                     0.53352   1.3035   -0.92856 
 H                    -0.63023   0.20782  -0.07846 
 H                    -2.26721   0.38832   0.46575 
 
 RdStrC is calling ZToCFu for IStruc=1 NZ=    10.
 PrtBox:  NBox=     2 Levels=  1 BoxLen=    8.00 SMaxX=        8.98
          Shift=            4.284400            2.052600            1.754720
 Box      1 Number                   0 centers from      1 to      9:
 Box      2 Number                   4 centers from     10 to     10:
 After GenITR:
 ITRead=  0  0  0  0  0  0  0  0  0  0
 MicOpt= -1 -1 -1 -1 -1 -1 -1 -1 -1 -1
 Add virtual bond connecting atoms H9         and O3         Dist= 2.51D+00.
 The following ModRedundant input section has been read:
 
 ITRead=  0  0  0  0  0  0  0  0  0  0
 MicOpt= -1 -1 -1 -1 -1 -1 -1 -1 -1 -1
 NAtoms=     10 NQM=       10 NQMF=       0 NMMI=      0 NMMIF=      0
                NMic=       0 NMicF=      0.
                    Isotopes and Nuclear Properties:
 (Nuclear quadrupole moments (NQMom) in fm**2, nuclear magnetic moments (NMagM)
  in nuclear magnetons)

  Atom         1           2           3           4           5           6           7           8           9          10
 IAtWgt=          12          12          16           1           1           1           1           1           1           1
 AtmWgt=  12.0000000  12.0000000  15.9949146   1.0078250   1.0078250   1.0078250   1.0078250   1.0078250   1.0078250   1.0078250
 NucSpn=           0           0           0           1           1           1           1           1           1           1
 AtZEff=   0.0000000   0.0000000   0.0000000   0.0000000   0.0000000   0.0000000   0.0000000   0.0000000   0.0000000   0.0000000
 NQMom=    0.0000000   0.0000000   0.0000000   0.0000000   0.0000000   0.0000000   0.0000000   0.0000000   0.0000000   0.0000000
 NMagM=    0.0000000   0.0000000   0.0000000   2.7928460   2.7928460   2.7928460   2.7928460   2.7928460   2.7928460   2.7928460
 AtZNuc=   6.0000000   6.0000000   8.0000000   1.0000000   1.0000000   1.0000000   1.0000000   1.0000000   1.0000000   1.0000000
 No MM parameters found.
 Leave Link  101 at Wed Oct  7 14:33:40 2020, MaxMem=  2684354560 cpu:              13.7 elap:               1.3
 (Enter /udrive/faculty/rpeverati/g16/g16/l103.exe)

 GradGradGradGradGradGradGradGradGradGradGradGradGradGradGradGradGradGrad
 Berny optimization.
 Optmz: redundant internal coordinate code flag= 1
 Initialization pass.
                           ----------------------------
                           !    Initial Parameters    !
                           ! (Angstroms and Degrees)  !
 --------------------------                            --------------------------
 ! Name  Definition              Value          Derivative Info.                !
 --------------------------------------------------------------------------------
 ! R1    R(1,2)                  1.5129         estimate D2E/DX2                !
 ! R2    R(1,4)                  1.0891         estimate D2E/DX2                !
 ! R3    R(1,5)                  1.0891         estimate D2E/DX2                !
 ! R4    R(1,6)                  1.0924         estimate D2E/DX2                !
 ! R5    R(2,7)                  1.0881         estimate D2E/DX2                !
 ! R6    R(2,8)                  1.0878         estimate D2E/DX2                !
 ! R7    R(2,9)                  1.2048         estimate D2E/DX2                !
 ! R8    R(3,9)                  1.33           estimate D2E/DX2                !
 ! R9    R(3,10)                 0.9669         estimate D2E/DX2                !
 ! A1    A(2,1,4)              111.1745         estimate D2E/DX2                !
 ! A2    A(2,1,5)              111.1543         estimate D2E/DX2                !
 ! A3    A(2,1,6)              110.5505         estimate D2E/DX2                !
 ! A4    A(4,1,5)              108.0915         estimate D2E/DX2                !
 ! A5    A(4,1,6)              107.8938         estimate D2E/DX2                !
 ! A6    A(5,1,6)              107.8401         estimate D2E/DX2                !
 ! A7    A(1,2,7)              114.0025         estimate D2E/DX2                !
 ! A8    A(1,2,8)              114.3109         estimate D2E/DX2                !
 ! A9    A(1,2,9)              106.9085         estimate D2E/DX2                !
 ! A10   A(7,2,8)              110.7781         estimate D2E/DX2                !
 ! A11   A(7,2,9)              105.6932         estimate D2E/DX2                !
 ! A12   A(8,2,9)              104.1907         estimate D2E/DX2                !
 ! A13   A(9,3,10)              96.8036         estimate D2E/DX2                !
 ! A14   L(2,9,3,4,-1)         179.1894         estimate D2E/DX2                !
 ! A15   L(2,9,3,4,-2)         175.9022         estimate D2E/DX2                !
 ! D1    D(4,1,2,7)             55.3187         estimate D2E/DX2                !
 ! D2    D(4,1,2,8)           -175.8324         estimate D2E/DX2                !
 ! D3    D(4,1,2,9)            -61.0936         estimate D2E/DX2                !
 ! D4    D(5,1,2,7)            175.7813         estimate D2E/DX2                !
 ! D5    D(5,1,2,8)            -55.3698         estimate D2E/DX2                !
 ! D6    D(5,1,2,9)             59.369          estimate D2E/DX2                !
 ! D7    D(6,1,2,7)            -64.4903         estimate D2E/DX2                !
 ! D8    D(6,1,2,8)             64.3586         estimate D2E/DX2                !
 ! D9    D(6,1,2,9)            179.0974         estimate D2E/DX2                !
 ! D10   D(1,2,3,10)           145.3872         estimate D2E/DX2                !
 ! D11   D(7,2,3,10)            24.3206         estimate D2E/DX2                !
 ! D12   D(8,2,3,10)           -92.3104         estimate D2E/DX2                !
 --------------------------------------------------------------------------------
 Maximum allowed force set to 1.00D+20.
 Trust Radius=1.00D-01 FncErr=1.00D-07 GrdErr=1.00D-06 EigMax=2.50D+02 EigMin=1.00D-04
 Number of steps in this run=     50 maximum allowed number of steps=    100.
 Search for a saddle point of order  1.
 GradGradGradGradGradGradGradGradGradGradGradGradGradGradGradGradGradGrad

 Leave Link  103 at Wed Oct  7 14:33:41 2020, MaxMem=  2684354560 cpu:               1.7 elap:               0.6
 (Enter /udrive/faculty/rpeverati/g16/g16/l202.exe)
                          Input orientation:                          
 ---------------------------------------------------------------------
 Center     Atomic      Atomic             Coordinates (Angstroms)
 Number     Number       Type             X           Y           Z
 ---------------------------------------------------------------------
      1          6           0        1.458333   -0.446365    0.025478
      2          6           0        0.469423    0.697424   -0.027493
      3          8           0       -1.853036   -0.314659   -0.053055
      4          1           0        1.301765   -1.061080    0.910735
      5          1           0        1.366584   -1.086189   -0.851118
      6          1           0        2.482249   -0.066879    0.057150
      7          1           0        0.471069    1.325446    0.861035
      8          1           0        0.533522    1.303496   -0.928558
      9          1           0       -0.630234    0.207816   -0.078465
     10          1           0       -2.267207    0.388321    0.465751
 ---------------------------------------------------------------------
                    Distance matrix (angstroms):
                    1          2          3          4          5
     1  C    0.000000
     2  C    1.512945   0.000000
     3  O    3.314917   2.533531   0.000000
     4  H    1.089067   2.159954   3.382130   0.000000
     5  H    1.089134   2.159753   3.405601   1.763224   0.000000
     6  H    1.092436   2.154713   4.343758   1.763685   1.763137
     7  H    2.193664   1.088070   2.987803   2.527455   3.090210
     8  H    2.197151   1.087819   3.013401   3.092639   2.531913
     9  H    2.191089   1.204807   1.329989   2.514207   2.501745
    10  H    3.843200   2.797852   0.966891   3.877672   4.136758
                    6          7          8          9         10
     6  H    0.000000
     7  H    2.574809   0.000000
     8  H    2.578194   1.790817   0.000000
     9  H    3.127523   1.828832   1.810387   0.000000
    10  H    4.788683   2.921063   3.259712   1.734483   0.000000
 Stoichiometry    C2H7O(2)
 Framework group  C1[X(C2H7O)]
 Deg. of freedom    24
 Full point group                 C1      NOp   1
 Largest Abelian subgroup         C1      NOp   1
 Largest concise Abelian subgroup C1      NOp   1
                         Standard orientation:                         
 ---------------------------------------------------------------------
 Center     Atomic      Atomic             Coordinates (Angstroms)
 Number     Number       Type             X           Y           Z
 ---------------------------------------------------------------------
      1          6           0        1.458333   -0.446366    0.025478
      2          6           0        0.469423    0.697423   -0.027493
      3          8           0       -1.853036   -0.314659   -0.053055
      4          1           0        1.301765   -1.061080    0.910735
      5          1           0        1.366584   -1.086190   -0.851118
      6          1           0        2.482249   -0.066880    0.057150
      7          1           0        0.471070    1.325446    0.861035
      8          1           0        0.533522    1.303495   -0.928558
      9          1           0       -0.630234    0.207816   -0.078465
     10          1           0       -2.267207    0.388322    0.465751
 ---------------------------------------------------------------------
 Rotational constants (GHZ):          26.3585396           4.9397469           4.4113428
 Leave Link  202 at Wed Oct  7 14:33:42 2020, MaxMem=  2684354560 cpu:               1.3 elap:               0.7
 (Enter /udrive/faculty/rpeverati/g16/g16/l301.exe)
 Standard basis: 6-31G(d) (5D, 7F)
 Ernie: Thresh=  0.10000D-02 Tol=  0.10000D-05 Strict=F.
 There are    59 symmetry adapted cartesian basis functions of A   symmetry.
 There are    56 symmetry adapted basis functions of A   symmetry.
    56 basis functions,   112 primitive gaussians,    59 cartesian basis functions
    14 alpha electrons       13 beta electrons
       nuclear repulsion energy        76.6212879407 Hartrees.
 IExCor= 1009 DFT=T Ex+Corr=PBE1PBE ExCW=0 ScaHFX=  0.250000
 ScaDFX=  0.750000  0.750000  1.000000  1.000000 ScalE2=  1.000000  1.000000
 IRadAn=      5 IRanWt=     -1 IRanGd=            0 ICorTp=0 IEmpDi=141
 NAtoms=   10 NActive=   10 NUniq=   10 SFac= 1.00D+00 NAtFMM=   60 NAOKFM=F Big=F
 Integral buffers will be    131072 words long.
 Raffenetti 2 integral format.
 Two-electron integral symmetry is turned on.
 R6Disp:  Grimme-D3(BJ) Dispersion energy=       -0.0038743361 Hartrees.
 Nuclear repulsion after empirical dispersion term =       76.6174136046 Hartrees.
 Leave Link  301 at Wed Oct  7 14:33:43 2020, MaxMem=  2684354560 cpu:               2.1 elap:               0.7
 (Enter /udrive/faculty/rpeverati/g16/g16/l302.exe)
 NPDir=0 NMtPBC=     1 NCelOv=     1 NCel=       1 NClECP=     1 NCelD=      1
         NCelK=      1 NCelE2=     1 NClLst=     1 CellRange=     0.0.
 One-electron integrals computed using PRISM.
 One-electron integral symmetry used in STVInt
 NBasis=    56 RedAO= T EigKep=  7.11D-03  NBF=    56
 NBsUse=    56 1.00D-06 EigRej= -1.00D+00 NBFU=    56
 Precomputing XC quadrature grid using
 IXCGrd= 4 IRadAn=           5 IRanWt=          -1 IRanGd=           0 AccXCQ= 0.00D+00.
 Generated NRdTot=       0 NPtTot=           0 NUsed=           0 NTot=          32
 NSgBfM=    59    59    59    59    59 MxSgAt=    10 MxSgA2=    10.
 Leave Link  302 at Wed Oct  7 14:33:44 2020, MaxMem=  2684354560 cpu:               4.2 elap:               0.8
 (Enter /udrive/faculty/rpeverati/g16/g16/l303.exe)
 DipDrv:  MaxL=1.
 Leave Link  303 at Wed Oct  7 14:33:45 2020, MaxMem=  2684354560 cpu:               1.4 elap:               0.5
 (Enter /udrive/faculty/rpeverati/g16/g16/l401.exe)
 SCF N**3 symmetry information disabled.
 ExpMin= 1.61D-01 ExpMax= 5.48D+03 ExpMxC= 8.25D+02 IAcc=3 IRadAn=         5 AccDes= 0.00D+00
 Harris functional with IExCor= 1009 and IRadAn=       5 diagonalized for initial guess.
 HarFok:  IExCor= 1009 AccDes= 0.00D+00 IRadAn=         5 IDoV= 1 UseB2=F ITyADJ=14
 ICtDFT=  3500011 ScaDFX=  1.000000  1.000000  1.000000  1.000000
 FoFCou: FMM=F IPFlag=           0 FMFlag=      100000 FMFlg1=           0
         NFxFlg=           0 DoJE=T BraDBF=F KetDBF=T FulRan=T
         wScrn=  0.000000 ICntrl=       500 IOpCl=  0 I1Cent=   200000004 NGrid=           0
         NMat0=    1 NMatS0=      1 NMatT0=    0 NMatD0=    1 NMtDS0=    0 NMtDT0=    0
 Petite list used in FoFCou.
 Harris En= -155.431051776428    
 JPrj=0 DoOrth=F DoCkMO=F.
 Initial guess <Sx>= 0.0000 <Sy>= 0.0000 <Sz>= 0.5000 <S**2>= 0.7500 S= 0.5000
 Leave Link  401 at Wed Oct  7 14:33:45 2020, MaxMem=  2684354560 cpu:               6.5 elap:               0.7
 (Enter /udrive/faculty/rpeverati/g16/g16/l502.exe)
 Keep R1 and R2 ints in memory in canonical form, NReq=13107598.
 FoFCou: FMM=F IPFlag=           0 FMFlag=           0 FMFlg1=           0
         NFxFlg=           0 DoJE=F BraDBF=F KetDBF=F FulRan=T
         wScrn=  0.000000 ICntrl=       600 IOpCl=  0 I1Cent=           0 NGrid=           0
         NMat0=    1 NMatS0=   1596 NMatT0=    0 NMatD0=    1 NMtDS0=    0 NMtDT0=    0
 Symmetry not used in FoFCou.
 Two-electron integral symmetry not used.
 UHF open shell SCF:
 Using DIIS extrapolation, IDIIS=  1040.
 NGot=  2684354560 LenX=  2681797160 LenY=  2681793238
 Requested convergence on RMS density matrix=1.00D-08 within 120 cycles.
 Requested convergence on MAX density matrix=1.00D-06.
 Requested convergence on             energy=1.00D-06.
 No special actions if energy rises.
 Integral accuracy reduced to 1.0D-05 until final iterations.

 Cycle   1  Pass 0  IDiag  1:
 E= -155.237660569424    
 DIIS: error= 5.01D-02 at cycle   1 NSaved=   1.
 NSaved= 1 IEnMin= 1 EnMin= -155.237660569424     IErMin= 1 ErrMin= 5.01D-02
 ErrMax= 5.01D-02  0.00D+00 EMaxC= 1.00D-01 BMatC= 4.73D-01 BMatP= 4.73D-01
 IDIUse=3 WtCom= 4.99D-01 WtEn= 5.01D-01
 Coeff-Com:  0.100D+01
 Coeff-En:   0.100D+01
 Coeff:      0.100D+01
 Gap=     0.299 Goal=   None    Shift=    0.000
 Gap=     0.151 Goal=   None    Shift=    0.000
 GapD=    0.151 DampG=1.000 DampE=0.500 DampFc=0.5000 IDamp=-1.
 Damping current iteration by 5.00D-01
 RMSDP=1.13D-02 MaxDP=1.24D-01              OVMax= 1.80D-01

 Cycle   2  Pass 0  IDiag  1:
 E= -155.295772206523     Delta-E=       -0.058111637099 Rises=F Damp=T
 DIIS: error= 8.01D-03 at cycle   2 NSaved=   2.
 NSaved= 2 IEnMin= 2 EnMin= -155.295772206523     IErMin= 2 ErrMin= 8.01D-03
 ErrMax= 8.01D-03  0.00D+00 EMaxC= 1.00D-01 BMatC= 1.71D-02 BMatP= 4.73D-01
 IDIUse=3 WtCom= 9.20D-01 WtEn= 8.01D-02
 Coeff-Com:  0.586D-01 0.941D+00
 Coeff-En:   0.427D-01 0.957D+00
 Coeff:      0.574D-01 0.943D+00
 Gap=     0.381 Goal=   None    Shift=    0.000
 Gap=     0.174 Goal=   None    Shift=    0.000
 RMSDP=1.91D-03 MaxDP=2.60D-02 DE=-5.81D-02 OVMax= 8.72D-02

 Cycle   3  Pass 0  IDiag  1:
 E= -155.359933228789     Delta-E=       -0.064161022266 Rises=F Damp=F
 DIIS: error= 5.85D-03 at cycle   3 NSaved=   3.
 NSaved= 3 IEnMin= 3 EnMin= -155.359933228789     IErMin= 3 ErrMin= 5.85D-03
 ErrMax= 5.85D-03  0.00D+00 EMaxC= 1.00D-01 BMatC= 5.45D-03 BMatP= 1.71D-02
 IDIUse=3 WtCom= 9.41D-01 WtEn= 5.85D-02
 Coeff-Com:  0.108D-01 0.308D+00 0.681D+00
 Coeff-En:   0.000D+00 0.000D+00 0.100D+01
 Coeff:      0.101D-01 0.290D+00 0.699D+00
 Gap=     0.381 Goal=   None    Shift=    0.000
 Gap=     0.164 Goal=   None    Shift=    0.000
 RMSDP=9.24D-04 MaxDP=1.64D-02 DE=-6.42D-02 OVMax= 4.71D-02

 Cycle   4  Pass 0  IDiag  1:
 E= -155.360571622897     Delta-E=       -0.000638394108 Rises=F Damp=F
 DIIS: error= 5.45D-03 at cycle   4 NSaved=   4.
 NSaved= 4 IEnMin= 4 EnMin= -155.360571622897     IErMin= 4 ErrMin= 5.45D-03
 ErrMax= 5.45D-03  0.00D+00 EMaxC= 1.00D-01 BMatC= 4.35D-03 BMatP= 5.45D-03
 IDIUse=3 WtCom= 9.45D-01 WtEn= 5.45D-02
 Coeff-Com:  0.237D-02-0.328D-01 0.468D+00 0.562D+00
 Coeff-En:   0.000D+00 0.000D+00 0.379D+00 0.621D+00
 Coeff:      0.224D-02-0.310D-01 0.463D+00 0.565D+00
 Gap=     0.382 Goal=   None    Shift=    0.000
 Gap=     0.176 Goal=   None    Shift=    0.000
 RMSDP=5.52D-04 MaxDP=9.00D-03 DE=-6.38D-04 OVMax= 1.02D-02

 Cycle   5  Pass 0  IDiag  1:
 E= -155.361560032733     Delta-E=       -0.000988409837 Rises=F Damp=F
 DIIS: error= 5.50D-04 at cycle   5 NSaved=   5.
 NSaved= 5 IEnMin= 5 EnMin= -155.361560032733     IErMin= 5 ErrMin= 5.50D-04
 ErrMax= 5.50D-04  0.00D+00 EMaxC= 1.00D-01 BMatC= 4.28D-05 BMatP= 4.35D-03
 IDIUse=3 WtCom= 9.95D-01 WtEn= 5.50D-03
 Coeff-Com:  0.368D-03-0.326D-01-0.994D-03 0.151D-01 0.102D+01
 Coeff-En:   0.000D+00 0.000D+00 0.000D+00 0.000D+00 0.100D+01
 Coeff:      0.366D-03-0.324D-01-0.988D-03 0.150D-01 0.102D+01
 Gap=     0.382 Goal=   None    Shift=    0.000
 Gap=     0.178 Goal=   None    Shift=    0.000
 RMSDP=1.42D-04 MaxDP=2.65D-03 DE=-9.88D-04 OVMax= 4.68D-03

 Cycle   6  Pass 0  IDiag  1:
 E= -155.361585316983     Delta-E=       -0.000025284250 Rises=F Damp=F
 DIIS: error= 1.80D-04 at cycle   6 NSaved=   6.
 NSaved= 6 IEnMin= 6 EnMin= -155.361585316983     IErMin= 6 ErrMin= 1.80D-04
 ErrMax= 1.80D-04  0.00D+00 EMaxC= 1.00D-01 BMatC= 5.28D-06 BMatP= 4.28D-05
 IDIUse=3 WtCom= 9.98D-01 WtEn= 1.80D-03
 Coeff-Com: -0.395D-03 0.318D-02-0.427D-01-0.689D-01 0.458D-01 0.106D+01
 Coeff-En:   0.000D+00 0.000D+00 0.000D+00 0.000D+00 0.000D+00 0.100D+01
 Coeff:     -0.394D-03 0.317D-02-0.426D-01-0.687D-01 0.458D-01 0.106D+01
 Gap=     0.382 Goal=   None    Shift=    0.000
 Gap=     0.178 Goal=   None    Shift=    0.000
 RMSDP=4.95D-05 MaxDP=9.10D-04 DE=-2.53D-05 OVMax= 1.42D-03

 Cycle   7  Pass 0  IDiag  1:
 E= -155.361587816745     Delta-E=       -0.000002499762 Rises=F Damp=F
 DIIS: error= 5.90D-05 at cycle   7 NSaved=   7.
 NSaved= 7 IEnMin= 7 EnMin= -155.361587816745     IErMin= 7 ErrMin= 5.90D-05
 ErrMax= 5.90D-05  0.00D+00 EMaxC= 1.00D-01 BMatC= 7.38D-07 BMatP= 5.28D-06
 IDIUse=1 WtCom= 1.00D+00 WtEn= 0.00D+00
 Coeff-Com: -0.137D-03 0.264D-02-0.162D-01-0.296D-01-0.205D-01 0.422D+00
 Coeff-Com:  0.642D+00
 Coeff:     -0.137D-03 0.264D-02-0.162D-01-0.296D-01-0.205D-01 0.422D+00
 Coeff:      0.642D+00
 Gap=     0.382 Goal=   None    Shift=    0.000
 Gap=     0.178 Goal=   None    Shift=    0.000
 RMSDP=8.43D-06 MaxDP=1.51D-04 DE=-2.50D-06 OVMax= 1.58D-04

 Initial convergence to 1.0D-05 achieved.  Increase integral accuracy.
 Cycle   8  Pass 1  IDiag  1:
 E= -155.361593256980     Delta-E=       -0.000005440234 Rises=F Damp=F
 DIIS: error= 2.47D-05 at cycle   1 NSaved=   1.
 NSaved= 1 IEnMin= 1 EnMin= -155.361593256980     IErMin= 1 ErrMin= 2.47D-05
 ErrMax= 2.47D-05  0.00D+00 EMaxC= 1.00D-01 BMatC= 6.81D-08 BMatP= 6.81D-08
 IDIUse=1 WtCom= 1.00D+00 WtEn= 0.00D+00
 Coeff-Com:  0.100D+01
 Coeff:      0.100D+01
 Gap=     0.382 Goal=   None    Shift=    0.000
 Gap=     0.178 Goal=   None    Shift=    0.000
 RMSDP=8.43D-06 MaxDP=1.51D-04 DE=-5.44D-06 OVMax= 8.92D-05

 Cycle   9  Pass 1  IDiag  1:
 E= -155.361593274612     Delta-E=       -0.000000017633 Rises=F Damp=F
 DIIS: error= 1.85D-05 at cycle   2 NSaved=   2.
 NSaved= 2 IEnMin= 2 EnMin= -155.361593274612     IErMin= 2 ErrMin= 1.85D-05
 ErrMax= 1.85D-05  0.00D+00 EMaxC= 1.00D-01 BMatC= 5.97D-08 BMatP= 6.81D-08
 IDIUse=1 WtCom= 1.00D+00 WtEn= 0.00D+00
 Coeff-Com:  0.479D+00 0.521D+00
 Coeff:      0.479D+00 0.521D+00
 Gap=     0.382 Goal=   None    Shift=    0.000
 Gap=     0.178 Goal=   None    Shift=    0.000
 RMSDP=2.04D-06 MaxDP=3.59D-05 DE=-1.76D-08 OVMax= 6.42D-05

 Cycle  10  Pass 1  IDiag  1:
 E= -155.361593289499     Delta-E=       -0.000000014887 Rises=F Damp=F
 DIIS: error= 8.50D-06 at cycle   3 NSaved=   3.
 NSaved= 3 IEnMin= 3 EnMin= -155.361593289499     IErMin= 3 ErrMin= 8.50D-06
 ErrMax= 8.50D-06  0.00D+00 EMaxC= 1.00D-01 BMatC= 5.22D-09 BMatP= 5.97D-08
 IDIUse=1 WtCom= 1.00D+00 WtEn= 0.00D+00
 Coeff-Com: -0.179D+00 0.456D-01 0.113D+01
 Coeff:     -0.179D+00 0.456D-01 0.113D+01
 Gap=     0.382 Goal=   None    Shift=    0.000
 Gap=     0.178 Goal=   None    Shift=    0.000
 RMSDP=1.60D-06 MaxDP=2.41D-05 DE=-1.49D-08 OVMax= 5.50D-05

 Cycle  11  Pass 1  IDiag  1:
 E= -155.361593291901     Delta-E=       -0.000000002402 Rises=F Damp=F
 DIIS: error= 4.48D-06 at cycle   4 NSaved=   4.
 NSaved= 4 IEnMin= 4 EnMin= -155.361593291901     IErMin= 4 ErrMin= 4.48D-06
 ErrMax= 4.48D-06  0.00D+00 EMaxC= 1.00D-01 BMatC= 3.65D-09 BMatP= 5.22D-09
 IDIUse=1 WtCom= 1.00D+00 WtEn= 0.00D+00
 Coeff-Com: -0.219D+00-0.782D-01 0.754D+00 0.543D+00
 Coeff:     -0.219D+00-0.782D-01 0.754D+00 0.543D+00
 Gap=     0.382 Goal=   None    Shift=    0.000
 Gap=     0.178 Goal=   None    Shift=    0.000
 RMSDP=6.51D-07 MaxDP=1.54D-05 DE=-2.40D-09 OVMax= 2.81D-05

 Cycle  12  Pass 1  IDiag  1:
 E= -155.361593293179     Delta-E=       -0.000000001278 Rises=F Damp=F
 DIIS: error= 1.60D-06 at cycle   5 NSaved=   5.
 NSaved= 5 IEnMin= 5 EnMin= -155.361593293179     IErMin= 5 ErrMin= 1.60D-06
 ErrMax= 1.60D-06  0.00D+00 EMaxC= 1.00D-01 BMatC= 1.07D-10 BMatP= 3.65D-09
 IDIUse=1 WtCom= 1.00D+00 WtEn= 0.00D+00
 Coeff-Com:  0.283D-02-0.264D-02-0.523D-01 0.418D-01 0.101D+01
 Coeff:      0.283D-02-0.264D-02-0.523D-01 0.418D-01 0.101D+01
 Gap=     0.382 Goal=   None    Shift=    0.000
 Gap=     0.178 Goal=   None    Shift=    0.000
 RMSDP=3.75D-07 MaxDP=7.35D-06 DE=-1.28D-09 OVMax= 2.64D-05

 Cycle  13  Pass 1  IDiag  1:
 E= -155.361593293410     Delta-E=       -0.000000000231 Rises=F Damp=F
 DIIS: error= 1.20D-06 at cycle   6 NSaved=   6.
 NSaved= 6 IEnMin= 6 EnMin= -155.361593293410     IErMin= 6 ErrMin= 1.20D-06
 ErrMax= 1.20D-06  0.00D+00 EMaxC= 1.00D-01 BMatC= 4.45D-11 BMatP= 1.07D-10
 IDIUse=1 WtCom= 1.00D+00 WtEn= 0.00D+00
 Coeff-Com:  0.674D-01 0.232D-01-0.238D+00-0.166D+00 0.991D-02 0.130D+01
 Coeff:      0.674D-01 0.232D-01-0.238D+00-0.166D+00 0.991D-02 0.130D+01
 Gap=     0.382 Goal=   None    Shift=    0.000
 Gap=     0.178 Goal=   None    Shift=    0.000
 RMSDP=4.39D-07 MaxDP=9.05D-06 DE=-2.31D-10 OVMax= 3.20D-05

 Cycle  14  Pass 1  IDiag  1:
 E= -155.361593293591     Delta-E=       -0.000000000181 Rises=F Damp=F
 DIIS: error= 7.08D-07 at cycle   7 NSaved=   7.
 NSaved= 7 IEnMin= 7 EnMin= -155.361593293591     IErMin= 7 ErrMin= 7.08D-07
 ErrMax= 7.08D-07  0.00D+00 EMaxC= 1.00D-01 BMatC= 1.65D-11 BMatP= 4.45D-11
 IDIUse=1 WtCom= 1.00D+00 WtEn= 0.00D+00
 Coeff-Com:  0.667D-03 0.801D-03 0.217D-01-0.290D-01-0.423D+00 0.121D-01
 Coeff-Com:  0.142D+01
 Coeff:      0.667D-03 0.801D-03 0.217D-01-0.290D-01-0.423D+00 0.121D-01
 Coeff:      0.142D+01
 Gap=     0.382 Goal=   None    Shift=    0.000
 Gap=     0.178 Goal=   None    Shift=    0.000
 RMSDP=3.91D-07 MaxDP=8.15D-06 DE=-1.81D-10 OVMax= 2.86D-05

 Cycle  15  Pass 1  IDiag  1:
 E= -155.361593293673     Delta-E=       -0.000000000082 Rises=F Damp=F
 DIIS: error= 2.68D-07 at cycle   8 NSaved=   8.
 NSaved= 8 IEnMin= 8 EnMin= -155.361593293673     IErMin= 8 ErrMin= 2.68D-07
 ErrMax= 2.68D-07  0.00D+00 EMaxC= 1.00D-01 BMatC= 5.20D-12 BMatP= 1.65D-11
 IDIUse=1 WtCom= 1.00D+00 WtEn= 0.00D+00
 Coeff-Com: -0.271D-01-0.922D-02 0.108D+00 0.512D-01-0.200D+00-0.492D+00
 Coeff-Com:  0.653D+00 0.915D+00
 Coeff:     -0.271D-01-0.922D-02 0.108D+00 0.512D-01-0.200D+00-0.492D+00
 Coeff:      0.653D+00 0.915D+00
 Gap=     0.382 Goal=   None    Shift=    0.000
 Gap=     0.178 Goal=   None    Shift=    0.000
 RMSDP=1.93D-07 MaxDP=4.05D-06 DE=-8.18D-11 OVMax= 1.41D-05

 Cycle  16  Pass 1  IDiag  1:
 E= -155.361593293687     Delta-E=       -0.000000000014 Rises=F Damp=F
 DIIS: error= 4.87D-08 at cycle   9 NSaved=   9.
 NSaved= 9 IEnMin= 9 EnMin= -155.361593293687     IErMin= 9 ErrMin= 4.87D-08
 ErrMax= 4.87D-08  0.00D+00 EMaxC= 1.00D-01 BMatC= 3.02D-13 BMatP= 5.20D-12
 IDIUse=1 WtCom= 1.00D+00 WtEn= 0.00D+00
 Coeff-Com: -0.389D-02-0.152D-02 0.131D-01 0.850D-02 0.216D-01-0.620D-01
 Coeff-Com: -0.980D-01 0.134D+00 0.988D+00
 Coeff:     -0.389D-02-0.152D-02 0.131D-01 0.850D-02 0.216D-01-0.620D-01
 Coeff:     -0.980D-01 0.134D+00 0.988D+00
 Gap=     0.382 Goal=   None    Shift=    0.000
 Gap=     0.178 Goal=   None    Shift=    0.000
 RMSDP=3.81D-08 MaxDP=8.12D-07 DE=-1.39D-11 OVMax= 2.74D-06

 Cycle  17  Pass 1  IDiag  1:
 E= -155.361593293688     Delta-E=       -0.000000000001 Rises=F Damp=F
 DIIS: error= 7.40D-09 at cycle  10 NSaved=  10.
 NSaved=10 IEnMin=10 EnMin= -155.361593293688     IErMin=10 ErrMin= 7.40D-09
 ErrMax= 7.40D-09  0.00D+00 EMaxC= 1.00D-01 BMatC= 1.90D-14 BMatP= 3.02D-13
 IDIUse=1 WtCom= 1.00D+00 WtEn= 0.00D+00
 Coeff-Com:  0.219D-02 0.702D-03-0.877D-02-0.449D-02 0.199D-01 0.451D-01
 Coeff-Com: -0.767D-01-0.739D-01 0.103D+00 0.993D+00
 Coeff:      0.219D-02 0.702D-03-0.877D-02-0.449D-02 0.199D-01 0.451D-01
 Coeff:     -0.767D-01-0.739D-01 0.103D+00 0.993D+00
 Gap=     0.382 Goal=   None    Shift=    0.000
 Gap=     0.178 Goal=   None    Shift=    0.000
 RMSDP=5.59D-09 MaxDP=1.19D-07 DE=-9.09D-13 OVMax= 3.73D-07

 SCF Done:  E(UPBE1PBE) =  -155.361593294     A.U. after   17 cycles
            NFock= 17  Conv=0.56D-08     -V/T= 2.0050
 <Sx>= 0.0000 <Sy>= 0.0000 <Sz>= 0.5000 <S**2>= 0.7577 S= 0.5039
 <L.S>= 0.000000000000E+00
 KE= 1.545907650041D+02 PE=-5.166359038903D+02 EE= 1.300661319879D+02
 Annihilation of the first spin contaminant:
 S**2 before annihilation     0.7577,   after     0.7500
 Leave Link  502 at Wed Oct  7 14:33:52 2020, MaxMem=  2684354560 cpu:              66.3 elap:               6.0
 (Enter /udrive/faculty/rpeverati/g16/g16/l508.exe)
 QCSCF skips out because SCF is already converged.
 Leave Link  508 at Wed Oct  7 14:33:52 2020, MaxMem=  2684354560 cpu:               0.2 elap:               0.3
 (Enter /udrive/faculty/rpeverati/g16/g16/l601.exe)
 Copying SCF densities to generalized density rwf, IOpCl= 1 IROHF=0.

 **********************************************************************

            Population analysis using the SCF density.

 **********************************************************************

 Orbital symmetries:
 Alpha Orbitals:
       Occupied  (A) (A) (A) (A) (A) (A) (A) (A) (A) (A) (A) (A)
                 (A) (A)
       Virtual   (A) (A) (A) (A) (A) (A) (A) (A) (A) (A) (A) (A)
                 (A) (A) (A) (A) (A) (A) (A) (A) (A) (A) (A) (A)
                 (A) (A) (A) (A) (A) (A) (A) (A) (A) (A) (A) (A)
                 (A) (A) (A) (A) (A) (A)
 Beta  Orbitals:
       Occupied  (A) (A) (A) (A) (A) (A) (A) (A) (A) (A) (A) (A)
                 (A)
       Virtual   (A) (A) (A) (A) (A) (A) (A) (A) (A) (A) (A) (A)
                 (A) (A) (A) (A) (A) (A) (A) (A) (A) (A) (A) (A)
                 (A) (A) (A) (A) (A) (A) (A) (A) (A) (A) (A) (A)
                 (A) (A) (A) (A) (A) (A) (A)
 The electronic state is 2-A.
 Alpha  occ. eigenvalues --  -19.22820 -10.23768 -10.21989  -1.00711  -0.79170
 Alpha  occ. eigenvalues --   -0.64826  -0.50033  -0.46482  -0.43830  -0.41190
 Alpha  occ. eigenvalues --   -0.39135  -0.36809  -0.30627  -0.27865
 Alpha virt. eigenvalues --    0.10336   0.12917   0.16271   0.16551   0.18319
 Alpha virt. eigenvalues --    0.20055   0.24146   0.30982   0.51232   0.54542
 Alpha virt. eigenvalues --    0.55953   0.62127   0.64732   0.68849   0.84105
 Alpha virt. eigenvalues --    0.86148   0.89697   0.90930   0.93663   0.94906
 Alpha virt. eigenvalues --    0.96311   0.98132   1.01936   1.11005   1.18587
 Alpha virt. eigenvalues --    1.44603   1.48945   1.53029   1.68773   1.74086
 Alpha virt. eigenvalues --    1.77688   1.79539   1.85706   1.95898   1.96646
 Alpha virt. eigenvalues --    2.07490   2.26373   2.31921   2.36832   2.44038
 Alpha virt. eigenvalues --    2.50466   2.64035
  Beta  occ. eigenvalues --  -19.20946 -10.23004 -10.22006  -0.95714  -0.78040
  Beta  occ. eigenvalues --   -0.63549  -0.46958  -0.46054  -0.42197  -0.39271
  Beta  occ. eigenvalues --   -0.36584  -0.35860  -0.28771
  Beta virt. eigenvalues --   -0.10954   0.10882   0.13334   0.16711   0.16851
  Beta virt. eigenvalues --    0.18578   0.20384   0.24701   0.33335   0.51610
  Beta virt. eigenvalues --    0.54724   0.56707   0.64716   0.65086   0.69364
  Beta virt. eigenvalues --    0.85602   0.87205   0.89974   0.91383   0.94296
  Beta virt. eigenvalues --    0.95497   0.97314   0.99041   1.03199   1.14571
  Beta virt. eigenvalues --    1.19370   1.45668   1.50107   1.54373   1.71372
  Beta virt. eigenvalues --    1.78156   1.78469   1.83573   1.89020   1.97140
  Beta virt. eigenvalues --    1.97333   2.09190   2.26951   2.32383   2.37278
  Beta virt. eigenvalues --    2.45654   2.52597   2.65652
          Condensed to atoms (all electrons):
               1          2          3          4          5          6
     1  C    5.127452   0.337446   0.001146   0.383835   0.386691   0.378131
     2  C    0.337446   5.353666  -0.059822  -0.033711  -0.034934  -0.035186
     3  O    0.001146  -0.059822   8.385626   0.000824   0.000332   0.000016
     4  H    0.383835  -0.033711   0.000824   0.516139  -0.027500  -0.028511
     5  H    0.386691  -0.034934   0.000332  -0.027500   0.513540  -0.029452
     6  H    0.378131  -0.035186   0.000016  -0.028511  -0.029452   0.531222
     7  H   -0.032859   0.368452   0.000076  -0.003604   0.004254  -0.003053
     8  H   -0.034043   0.370541  -0.000307   0.004179  -0.003524  -0.002484
     9  H   -0.025399   0.257681   0.082014  -0.003606  -0.003753   0.003198
    10  H   -0.000050   0.012673   0.217062   0.000012  -0.000011  -0.000004
               7          8          9         10
     1  C   -0.032859  -0.034043  -0.025399  -0.000050
     2  C    0.368452   0.370541   0.257681   0.012673
     3  O    0.000076  -0.000307   0.082014   0.217062
     4  H   -0.003604   0.004179  -0.003606   0.000012
     5  H    0.004254  -0.003524  -0.003753  -0.000011
     6  H   -0.003053  -0.002484   0.003198  -0.000004
     7  H    0.529408  -0.029685  -0.020363  -0.000527
     8  H   -0.029685   0.516913  -0.019401  -0.000121
     9  H   -0.020363  -0.019401   0.430801  -0.024639
    10  H   -0.000527  -0.000121  -0.024639   0.391202
          Atomic-Atomic Spin Densities.
               1          2          3          4          5          6
     1  C   -0.008006  -0.034339   0.004556   0.003466   0.003296   0.006149
     2  C   -0.034339   0.543079  -0.081602  -0.003976  -0.003692  -0.006181
     3  O    0.004556  -0.081602   0.796246   0.000495   0.000415  -0.000128
     4  H    0.003466  -0.003976   0.000495   0.005110   0.000959  -0.003194
     5  H    0.003296  -0.003692   0.000415   0.000959   0.004233  -0.002728
     6  H    0.006149  -0.006181  -0.000128  -0.003194  -0.002728   0.033697
     7  H    0.002475  -0.013379   0.002664   0.000621   0.000091  -0.001078
     8  H    0.003143  -0.015628   0.002849   0.000160   0.000617  -0.001352
     9  H    0.001264   0.046064  -0.044389   0.000070   0.000243  -0.000344
    10  H   -0.000192   0.003868  -0.007196  -0.000029  -0.000012   0.000008
               7          8          9         10
     1  C    0.002475   0.003143   0.001264  -0.000192
     2  C   -0.013379  -0.015628   0.046064   0.003868
     3  O    0.002664   0.002849  -0.044389  -0.007196
     4  H    0.000621   0.000160   0.000070  -0.000029
     5  H    0.000091   0.000617   0.000243  -0.000012
     6  H   -0.001078  -0.001352  -0.000344   0.000008
     7  H   -0.010073   0.003127   0.003259  -0.000279
     8  H    0.003127  -0.005606   0.002611  -0.000195
     9  H    0.003259   0.002611  -0.094417   0.004188
    10  H   -0.000279  -0.000195   0.004188  -0.017756
 Mulliken charges and spin densities:
               1          2
     1  C   -0.522351  -0.018186
     2  C   -0.536808   0.434214
     3  O   -0.626967   0.673912
     4  H    0.191943   0.003681
     5  H    0.194356   0.003422
     6  H    0.186122   0.024848
     7  H    0.187901  -0.012571
     8  H    0.197934  -0.010273
     9  H    0.323467  -0.081451
    10  H    0.404404  -0.017596
 Sum of Mulliken charges =  -0.00000   1.00000
 Mulliken charges and spin densities with hydrogens summed into heavy atoms:
               1          2
     1  C    0.050069   0.013766
     2  C    0.172494   0.329919
     3  O   -0.222563   0.656316
 Electronic spatial extent (au):  <R**2>=            300.6915
 Charge=             -0.0000 electrons
 Dipole moment (field-independent basis, Debye):
    X=              0.9282    Y=              1.5727    Z=              0.8337  Tot=              2.0075
 Quadrupole moment (field-independent basis, Debye-Ang):
   XX=            -19.9466   YY=            -20.4158   ZZ=            -20.1642
   XY=             -2.9498   XZ=             -2.2281   YZ=              0.4970
 Traceless Quadrupole moment (field-independent basis, Debye-Ang):
   XX=              0.2289   YY=             -0.2402   ZZ=              0.0113
   XY=             -2.9498   XZ=             -2.2281   YZ=              0.4970
 Octapole moment (field-independent basis, Debye-Ang**2):
  XXX=            -11.4989  YYY=             -0.2209  ZZZ=              0.4461  XYY=             -2.4350
  XXY=              5.8124  XXZ=              5.2293  XZZ=             -2.3480  YZZ=              0.2196
  YYZ=             -0.0027  XYZ=             -1.0893
 Hexadecapole moment (field-independent basis, Debye-Ang**3):
 XXXX=           -243.9045 YYYY=            -70.1894 ZZZZ=            -32.4778 XXXY=             -9.3020
 XXXZ=            -12.5840 YYYX=              0.2304 YYYZ=              0.5196 ZZZX=             -1.6467
 ZZZY=              0.2407 XXYY=            -56.7340 XXZZ=            -50.3395 YYZZ=            -14.7663
 XXYZ=              2.4748 YYXZ=             -0.5578 ZZXY=             -0.6242
 N-N= 7.661741360458D+01 E-N=-5.166359038499D+02  KE= 1.545907650041D+02
                          Isotropic Fermi Contact Couplings
        Atom                 a.u.       MegaHertz       Gauss      10(-4) cm-1
     1  C(13)             -0.00802      -9.01869      -3.21809      -3.00831
     2  C(13)              0.12784     143.71595      51.28143      47.93848
     3  O(17)              0.12090     -73.29048     -26.15186     -24.44707
     4  H(1)               0.00187       8.34775       2.97868       2.78451
     5  H(1)               0.00182       8.12080       2.89770       2.70881
     6  H(1)               0.01325      59.23466      21.13640      19.75856
     7  H(1)              -0.00353     -15.77371      -5.62845      -5.26154
     8  H(1)              -0.00265     -11.85330      -4.22955      -3.95384
     9  H(1)              -0.01659     -74.17750     -26.46838     -24.74295
    10  H(1)              -0.01021     -45.64718     -16.28805     -15.22626
 --------------------------------------------------------
       Center         ----  Spin Dipole Couplings  ----
                      3XX-RR        3YY-RR        3ZZ-RR
 --------------------------------------------------------
     1   Atom        0.023952     -0.009027     -0.014925
     2   Atom        0.370558     -0.122128     -0.248430
     3   Atom        1.701418     -0.421602     -1.279816
     4   Atom        0.001972      0.001392     -0.003364
     5   Atom        0.002353      0.001772     -0.004125
     6   Atom        0.007926     -0.001599     -0.006327
     7   Atom       -0.006706     -0.005685      0.012391
     8   Atom       -0.006954     -0.007417      0.014372
     9   Atom        0.174608     -0.062294     -0.112313
    10   Atom       -0.000585      0.030884     -0.030298
 --------------------------------------------------------
                        XY            XZ            YZ
 --------------------------------------------------------
     1   Atom       -0.008411      0.001586     -0.000429
     2   Atom        0.282570      0.012946      0.006233
     3   Atom        1.593786      0.135782      0.086114
     4   Atom       -0.005311      0.004375     -0.005215
     5   Atom       -0.005756     -0.003920      0.004687
     6   Atom       -0.000931      0.000486     -0.000156
     7   Atom        0.010881     -0.000729      0.029515
     8   Atom        0.012146     -0.000294     -0.028379
     9   Atom        0.121621      0.000972      0.000941
    10   Atom       -0.044195     -0.049715      0.083137
 --------------------------------------------------------


 ---------------------------------------------------------------------------------
              Anisotropic Spin Dipole Couplings in Principal Axis System
 ---------------------------------------------------------------------------------

       Atom             a.u.   MegaHertz   Gauss  10(-4) cm-1        Axes

              Baa    -0.0150    -2.012    -0.718    -0.671 -0.0362  0.0208  0.9991
     1 C(13)  Bbb    -0.0110    -1.482    -0.529    -0.494  0.2341  0.9721 -0.0118
              Bcc     0.0260     3.494     1.247     1.166  0.9715 -0.2335  0.0401
 
              Baa    -0.2507   -33.643   -12.005   -11.222 -0.4064  0.9005 -0.1545
     2 C(13)  Bbb    -0.2487   -33.367   -11.906   -11.130 -0.0813  0.1328  0.9878
              Bcc     0.4994    67.010    23.911    22.352  0.9101  0.4140  0.0192
 
              Baa    -1.2939    93.626    33.408    31.230  0.2193 -0.4842  0.8470
     3 O(17)  Bbb    -1.2676    91.725    32.730    30.596 -0.4198  0.7369  0.5299
              Bcc     2.5615  -185.351   -66.138   -61.826  0.8807  0.4718  0.0417
 
              Baa    -0.0069    -3.657    -1.305    -1.220 -0.1651  0.4491  0.8781
     4 H(1)   Bbb    -0.0035    -1.864    -0.665    -0.622  0.7558  0.6296 -0.1799
              Bcc     0.0103     5.521     1.970     1.842 -0.6337  0.6340 -0.4433
 
              Baa    -0.0068    -3.628    -1.295    -1.210  0.1322 -0.4057  0.9044
     5 H(1)   Bbb    -0.0036    -1.907    -0.680    -0.636  0.7440  0.6435  0.1798
              Bcc     0.0104     5.535     1.975     1.846  0.6549 -0.6491 -0.3869
 
              Baa    -0.0063    -3.387    -1.208    -1.130 -0.0323  0.0266  0.9991
     6 H(1)   Bbb    -0.0017    -0.900    -0.321    -0.300  0.0976  0.9950 -0.0233
              Bcc     0.0080     4.286     1.529     1.430  0.9947 -0.0967  0.0347
 
              Baa    -0.0311   -16.569    -5.912    -5.527 -0.3595  0.7691 -0.5285
     7 H(1)   Bbb    -0.0040    -2.146    -0.766    -0.716  0.9220  0.2054 -0.3283
              Bcc     0.0351    18.715     6.678     6.243  0.1440  0.6053  0.7829
 
              Baa    -0.0311   -16.579    -5.916    -5.530 -0.3883  0.7828  0.4863
     8 H(1)   Bbb    -0.0041    -2.163    -0.772    -0.722  0.9052  0.2249  0.3607
              Bcc     0.0351    18.742     6.688     6.252 -0.1730 -0.5803  0.7958
 
              Baa    -0.1138   -60.707   -21.662   -20.250 -0.3675  0.8741 -0.3177
     9 H(1)   Bbb    -0.1122   -59.840   -21.352   -19.961 -0.1268  0.2913  0.9482
              Bcc     0.2259   120.547    43.014    40.210  0.9213  0.3888  0.0037
 
              Baa    -0.0918   -48.989   -17.481   -16.341  0.2212 -0.4912  0.8425
    10 H(1)   Bbb    -0.0312   -16.660    -5.945    -5.557  0.8563  0.5112  0.0733
              Bcc     0.1230    65.650    23.426    21.898 -0.4667  0.7052  0.5337
 

 ---------------------------------------------------------------------------------

 No NMR shielding tensors so no spin-rotation constants.
 Leave Link  601 at Wed Oct  7 14:33:54 2020, MaxMem=  2684354560 cpu:               6.1 elap:               0.9
 (Enter /udrive/faculty/rpeverati/g16/g16/l701.exe)
 ... and contract with generalized density number  0.
 Compute integral first derivatives.
 R6Disp: Adding Grimme-D3(BJ) dispersion energy 1st derivatives to the gradient.
 Leave Link  701 at Wed Oct  7 14:33:55 2020, MaxMem=  2684354560 cpu:               3.0 elap:               0.6
 (Enter /udrive/faculty/rpeverati/g16/g16/l702.exe)
 L702 exits ... SP integral derivatives will be done elsewhere.
 Leave Link  702 at Wed Oct  7 14:33:55 2020, MaxMem=  2684354560 cpu:               0.9 elap:               0.3
 (Enter /udrive/faculty/rpeverati/g16/g16/l703.exe)
 Integral derivatives from FoFJK, PRISM(SPDF).
 Compute integral first derivatives, UseDBF=F ICtDFT=           0.
 Calling FoFJK, ICntrl=      2127 FMM=F ISym2X=0 I1Cent= 0 IOpClX= 1 NMat=1 NMatS=1 NMatT=0.
 FoFJK:  IHMeth= 1 ICntrl=    2127 DoSepK=F KAlg= 0 I1Cent=           0 FoldK=F
 IRaf=         0 NMat=       1 IRICut=       1 DoRegI=T DoRafI=F ISym2E= 0 IDoP0=0 IntGTp=1.
 FoFCou: FMM=F IPFlag=           0 FMFlag=      100000 FMFlg1=         800
         NFxFlg=           0 DoJE=F BraDBF=F KetDBF=F FulRan=T
         wScrn=  0.000000 ICntrl=      2127 IOpCl=  1 I1Cent=           0 NGrid=           0
         NMat0=    1 NMatS0=      1 NMatT0=    0 NMatD0=    1 NMtDS0=    0 NMtDT0=    0
 Symmetry not used in FoFCou.
 Leave Link  703 at Wed Oct  7 14:33:57 2020, MaxMem=  2684354560 cpu:              11.5 elap:               1.4
 (Enter /udrive/faculty/rpeverati/g16/g16/l716.exe)
 Dipole        = 3.65168353D-01 6.18749639D-01 3.27996517D-01
 ***** Axes restored to original set *****
 -------------------------------------------------------------------
 Center     Atomic                   Forces (Hartrees/Bohr)
 Number     Number              X              Y              Z
 -------------------------------------------------------------------
      1        6          -0.004564595    0.004844451   -0.000239501
      2        6           0.001308507   -0.005670187    0.000388183
      3        8           0.003136280   -0.004427957   -0.003225682
      4        1          -0.000436630   -0.002042040    0.002902103
      5        1          -0.000150985   -0.002058253   -0.002848790
      6        1           0.003614680    0.001198990    0.000162481
      7        1           0.000395185    0.002407001    0.003198596
      8        1           0.000555192    0.002259430   -0.003102520
      9        1           0.000886490   -0.001592209   -0.001538562
     10        1          -0.004744124    0.005080773    0.004303692
 -------------------------------------------------------------------
 Cartesian Forces:  Max     0.005670187 RMS     0.002953313
 Leave Link  716 at Wed Oct  7 14:33:57 2020, MaxMem=  2684354560 cpu:               1.7 elap:               0.5
 (Enter /udrive/faculty/rpeverati/g16/g16/l103.exe)

 GradGradGradGradGradGradGradGradGradGradGradGradGradGradGradGradGradGrad
 Berny optimization.
 Optmz: redundant internal coordinate code flag= 1
 FormGI is forming the generalized inverse of G from B-inverse, IUseBI=4.
 Internal  Forces:  Max     0.008035261 RMS     0.002065061
 Search for a saddle point.
 Step number   1 out of a maximum of   50
 All quantities printed in internal units (Hartrees-Bohrs-Radians)
 Swapping is turned off.
 Second derivative matrix not updated -- first step.
 The second derivative matrix:
                          R1        R2        R3        R4        R5
           R1           0.31056
           R2           0.00000   0.34921
           R3           0.00000   0.00000   0.34913
           R4           0.00000   0.00000   0.00000   0.34533
           R5           0.00000   0.00000   0.00000   0.00000   0.35037
           R6           0.00000   0.00000   0.00000   0.00000   0.00000
           R7           0.00000   0.00000   0.00000   0.00000   0.00000
           R8           0.00000   0.00000   0.00000   0.00000   0.00000
           R9           0.00000   0.00000   0.00000   0.00000   0.00000
           A1           0.00000   0.00000   0.00000   0.00000   0.00000
           A2           0.00000   0.00000   0.00000   0.00000   0.00000
           A3           0.00000   0.00000   0.00000   0.00000   0.00000
           A4           0.00000   0.00000   0.00000   0.00000   0.00000
           A5           0.00000   0.00000   0.00000   0.00000   0.00000
           A6           0.00000   0.00000   0.00000   0.00000   0.00000
           A7           0.00000   0.00000   0.00000   0.00000   0.00000
           A8           0.00000   0.00000   0.00000   0.00000   0.00000
           A9           0.00000   0.00000   0.00000   0.00000   0.00000
           A10          0.00000   0.00000   0.00000   0.00000   0.00000
           A11          0.00000   0.00000   0.00000   0.00000   0.00000
           A12          0.00000   0.00000   0.00000   0.00000   0.00000
           A13          0.00000   0.00000   0.00000   0.00000   0.00000
           A14          0.00000   0.00000   0.00000   0.00000   0.00000
           A15          0.00000   0.00000   0.00000   0.00000   0.00000
           D1           0.00000   0.00000   0.00000   0.00000   0.00000
           D2           0.00000   0.00000   0.00000   0.00000   0.00000
           D3           0.00000   0.00000   0.00000   0.00000   0.00000
           D4           0.00000   0.00000   0.00000   0.00000   0.00000
           D5           0.00000   0.00000   0.00000   0.00000   0.00000
           D6           0.00000   0.00000   0.00000   0.00000   0.00000
           D7           0.00000   0.00000   0.00000   0.00000   0.00000
           D8           0.00000   0.00000   0.00000   0.00000   0.00000
           D9           0.00000   0.00000   0.00000   0.00000   0.00000
           D10          0.00000   0.00000   0.00000   0.00000   0.00000
           D11          0.00000   0.00000   0.00000   0.00000   0.00000
           D12          0.00000   0.00000   0.00000   0.00000   0.00000
                          R6        R7        R8        R9        A1
           R6           0.35066
           R7           0.00000   0.24318
           R8           0.00000   0.00000   0.17175
           R9           0.00000   0.00000   0.00000   0.54017
           A1           0.00000   0.00000   0.00000   0.00000   0.16000
           A2           0.00000   0.00000   0.00000   0.00000   0.00000
           A3           0.00000   0.00000   0.00000   0.00000   0.00000
           A4           0.00000   0.00000   0.00000   0.00000   0.00000
           A5           0.00000   0.00000   0.00000   0.00000   0.00000
           A6           0.00000   0.00000   0.00000   0.00000   0.00000
           A7           0.00000   0.00000   0.00000   0.00000   0.00000
           A8           0.00000   0.00000   0.00000   0.00000   0.00000
           A9           0.00000   0.00000   0.00000   0.00000   0.00000
           A10          0.00000   0.00000   0.00000   0.00000   0.00000
           A11          0.00000   0.00000   0.00000   0.00000   0.00000
           A12          0.00000   0.00000   0.00000   0.00000   0.00000
           A13          0.00000   0.00000   0.00000   0.00000   0.00000
           A14          0.00000   0.00000   0.00000   0.00000   0.00000
           A15          0.00000   0.00000   0.00000   0.00000   0.00000
           D1           0.00000   0.00000   0.00000   0.00000   0.00000
           D2           0.00000   0.00000   0.00000   0.00000   0.00000
           D3           0.00000   0.00000   0.00000   0.00000   0.00000
           D4           0.00000   0.00000   0.00000   0.00000   0.00000
           D5           0.00000   0.00000   0.00000   0.00000   0.00000
           D6           0.00000   0.00000   0.00000   0.00000   0.00000
           D7           0.00000   0.00000   0.00000   0.00000   0.00000
           D8           0.00000   0.00000   0.00000   0.00000   0.00000
           D9           0.00000   0.00000   0.00000   0.00000   0.00000
           D10          0.00000   0.00000   0.00000   0.00000   0.00000
           D11          0.00000   0.00000   0.00000   0.00000   0.00000
           D12          0.00000   0.00000   0.00000   0.00000   0.00000
                          A2        A3        A4        A5        A6
           A2           0.16000
           A3           0.00000   0.16000
           A4           0.00000   0.00000   0.16000
           A5           0.00000   0.00000   0.00000   0.16000
           A6           0.00000   0.00000   0.00000   0.00000   0.16000
           A7           0.00000   0.00000   0.00000   0.00000   0.00000
           A8           0.00000   0.00000   0.00000   0.00000   0.00000
           A9           0.00000   0.00000   0.00000   0.00000   0.00000
           A10          0.00000   0.00000   0.00000   0.00000   0.00000
           A11          0.00000   0.00000   0.00000   0.00000   0.00000
           A12          0.00000   0.00000   0.00000   0.00000   0.00000
           A13          0.00000   0.00000   0.00000   0.00000   0.00000
           A14          0.00000   0.00000   0.00000   0.00000   0.00000
           A15          0.00000   0.00000   0.00000   0.00000   0.00000
           D1           0.00000   0.00000   0.00000   0.00000   0.00000
           D2           0.00000   0.00000   0.00000   0.00000   0.00000
           D3           0.00000   0.00000   0.00000   0.00000   0.00000
           D4           0.00000   0.00000   0.00000   0.00000   0.00000
           D5           0.00000   0.00000   0.00000   0.00000   0.00000
           D6           0.00000   0.00000   0.00000   0.00000   0.00000
           D7           0.00000   0.00000   0.00000   0.00000   0.00000
           D8           0.00000   0.00000   0.00000   0.00000   0.00000
           D9           0.00000   0.00000   0.00000   0.00000   0.00000
           D10          0.00000   0.00000   0.00000   0.00000   0.00000
           D11          0.00000   0.00000   0.00000   0.00000   0.00000
           D12          0.00000   0.00000   0.00000   0.00000   0.00000
                          A7        A8        A9        A10       A11
           A7           0.16000
           A8           0.00000   0.16000
           A9           0.00000   0.00000   0.16000
           A10          0.00000   0.00000   0.00000   0.16000
           A11          0.00000   0.00000   0.00000   0.00000   0.16000
           A12          0.00000   0.00000   0.00000   0.00000   0.00000
           A13          0.00000   0.00000   0.00000   0.00000   0.00000
           A14          0.00000   0.00000   0.00000   0.00000   0.00000
           A15          0.00000   0.00000   0.00000   0.00000   0.00000
           D1           0.00000   0.00000   0.00000   0.00000   0.00000
           D2           0.00000   0.00000   0.00000   0.00000   0.00000
           D3           0.00000   0.00000   0.00000   0.00000   0.00000
           D4           0.00000   0.00000   0.00000   0.00000   0.00000
           D5           0.00000   0.00000   0.00000   0.00000   0.00000
           D6           0.00000   0.00000   0.00000   0.00000   0.00000
           D7           0.00000   0.00000   0.00000   0.00000   0.00000
           D8           0.00000   0.00000   0.00000   0.00000   0.00000
           D9           0.00000   0.00000   0.00000   0.00000   0.00000
           D10          0.00000   0.00000   0.00000   0.00000   0.00000
           D11          0.00000   0.00000   0.00000   0.00000   0.00000
           D12          0.00000   0.00000   0.00000   0.00000   0.00000
                          A12       A13       A14       A15       D1
           A12          0.16000
           A13          0.00000   0.16000
           A14          0.00000   0.00000   0.00230
           A15          0.00000   0.00000   0.00000   0.00230
           D1           0.00000   0.00000   0.00000   0.00000   0.00595
           D2           0.00000   0.00000   0.00000   0.00000   0.00000
           D3           0.00000   0.00000   0.00000   0.00000   0.00000
           D4           0.00000   0.00000   0.00000   0.00000   0.00000
           D5           0.00000   0.00000   0.00000   0.00000   0.00000
           D6           0.00000   0.00000   0.00000   0.00000   0.00000
           D7           0.00000   0.00000   0.00000   0.00000   0.00000
           D8           0.00000   0.00000   0.00000   0.00000   0.00000
           D9           0.00000   0.00000   0.00000   0.00000   0.00000
           D10          0.00000   0.00000   0.00000   0.00000   0.00000
           D11          0.00000   0.00000   0.00000   0.00000   0.00000
           D12          0.00000   0.00000   0.00000   0.00000   0.00000
                          D2        D3        D4        D5        D6
           D2           0.00595
           D3           0.00000   0.00595
           D4           0.00000   0.00000   0.00595
           D5           0.00000   0.00000   0.00000   0.00595
           D6           0.00000   0.00000   0.00000   0.00000   0.00595
           D7           0.00000   0.00000   0.00000   0.00000   0.00000
           D8           0.00000   0.00000   0.00000   0.00000   0.00000
           D9           0.00000   0.00000   0.00000   0.00000   0.00000
           D10          0.00000   0.00000   0.00000   0.00000   0.00000
           D11          0.00000   0.00000   0.00000   0.00000   0.00000
           D12          0.00000   0.00000   0.00000   0.00000   0.00000
                          D7        D8        D9        D10       D11
           D7           0.00595
           D8           0.00000   0.00595
           D9           0.00000   0.00000   0.00595
           D10          0.00000   0.00000   0.00000   0.00230
           D11          0.00000   0.00000   0.00000   0.00000   0.00230
           D12          0.00000   0.00000   0.00000   0.00000   0.00000
                          D12
           D12          0.00230
 ITU=  0
 Eigenvectors of the second derivative matrix:
                           1         2         3         4         5
     Eigenvalues --     0.00230   0.00230   0.00230   0.00595   0.04817
   1         R1         0.00000  -0.00000   0.00000  -0.00000  -0.00002
   2         R2         0.00000   0.00000  -0.00000   0.00000   0.00004
   3         R3         0.00000   0.00000  -0.00000  -0.00000  -0.00000
   4         R4        -0.00000  -0.00000  -0.00000   0.00000  -0.00000
   5         R5         0.00000   0.00000  -0.00000   0.00000  -0.00000
   6         R6        -0.00000   0.00000  -0.00000  -0.00000  -0.00000
   7         R7         0.00000  -0.00000   0.00000   0.00000  -0.00004
   8         R8        -0.00000  -0.00000   0.00000  -0.00000   0.00003
   9         R9         0.00000  -0.00000   0.00000  -0.00000   0.00000
  10         A1        -0.00000  -0.00000   0.00000  -0.00000  -0.00026
  11         A2         0.00000   0.00000  -0.00000   0.00000   0.00018
  12         A3        -0.00000  -0.00000  -0.00000  -0.00000  -0.00002
  13         A4        -0.00000   0.00000  -0.00000   0.00000   0.00015
  14         A5        -0.00000  -0.00000   0.00000  -0.00000  -0.00025
  15         A6         0.00000   0.00000  -0.00000   0.00000   0.00020
  16         A7         0.00000  -0.00000   0.00000   0.00001  -0.09569
  17         A8         0.00000   0.00000   0.00000  -0.00001  -0.09669
  18         A9         0.00000  -0.00000  -0.00000   0.00000   0.23041
  19         A10       -0.00000  -0.00000  -0.00000  -0.00001  -0.34935
  20         A11        0.00000   0.00000   0.00000   0.00000   0.20168
  21         A12        0.00000   0.00000  -0.00000  -0.00001   0.20088
  22         A13        0.00000  -0.00000   0.00000  -0.00000   0.00000
  23         A14       -0.17771  -0.90065  -0.36104  -0.00015  -0.02174
  24         A15       -0.63899   0.38654  -0.64436  -0.00008   0.01099
  25         D1         0.00000  -0.00000   0.00000  -0.33333   0.34242
  26         D2         0.00000  -0.00000  -0.00000  -0.33333  -0.34164
  27         D3         0.00000  -0.00000  -0.00000  -0.33334  -0.00132
  28         D4         0.00000  -0.00000  -0.00000  -0.33333   0.34255
  29         D5         0.00000  -0.00000  -0.00000  -0.33333  -0.34150
  30         D6         0.00000  -0.00000  -0.00000  -0.33334  -0.00118
  31         D7         0.00000  -0.00000  -0.00000  -0.33333   0.34291
  32         D8         0.00000  -0.00000  -0.00000  -0.33333  -0.34114
  33         D9         0.00000  -0.00000  -0.00000  -0.33334  -0.00082
  34         D10       -0.51803  -0.07940   0.27882   0.00067  -0.00329
  35         D11       -0.39442   0.04807   0.43994  -0.00077  -0.10518
  36         D12       -0.36904  -0.17550   0.42798   0.00010   0.10847
                           6         7         8         9        10
     Eigenvalues --     0.05454   0.05643   0.05724   0.11417   0.13460
   1         R1        -0.00003  -0.00000   0.00000  -0.00026   0.00013
   2         R2        -0.00004  -0.00000  -0.00000   0.00043   0.00014
   3         R3        -0.00000  -0.00000  -0.00000  -0.00000   0.00000
   4         R4         0.00000  -0.00000  -0.00000  -0.00000   0.00000
   5         R5         0.00000  -0.00000   0.00000  -0.00000   0.00000
   6         R6        -0.00000  -0.00000  -0.00000  -0.00000  -0.00000
   7         R7         0.00035   0.00000   0.00000  -0.00045  -0.00161
   8         R8        -0.00034  -0.00000  -0.00000   0.00051   0.00290
   9         R9        -0.00000  -0.00000  -0.00000  -0.00000   0.00000
  10         A1         0.00003  -0.10530   0.19118  -0.00271   0.00072
  11         A2         0.00151  -0.11537  -0.18533   0.00023   0.00000
  12         A3        -0.00157   0.21934  -0.00574   0.00049  -0.00021
  13         A4         0.00297  -0.40995   0.01085   0.00118  -0.00014
  14         A5        -0.00283   0.21797   0.35606   0.00169  -0.00055
  15         A6        -0.00015   0.19904  -0.36757  -0.00077   0.00015
  16         A7         0.21348   0.00142   0.00043   0.40333  -0.55005
  17         A8        -0.21498  -0.00160  -0.00101   0.40398   0.54594
  18         A9        -0.00148   0.00004   0.00014   0.11445   0.01281
  19         A10       -0.00003  -0.00003  -0.00008  -0.46853   0.00496
  20         A11        0.33556   0.00269   0.00162  -0.27394   0.34128
  21         A12       -0.33733  -0.00252  -0.00100  -0.27492  -0.34782
  22         A13       -0.00000   0.00000   0.00000   0.00000  -0.00000
  23         A14       -0.02574  -0.00008   0.00011  -0.07645   0.02874
  24         A15       -0.05197  -0.00029  -0.00018   0.03591   0.05450
  25         D1         0.17437   0.34117   0.18459  -0.03879   0.03903
  26         D2         0.17359   0.34097   0.18394   0.04215   0.04063
  27         D3        -0.35703   0.33704   0.18227  -0.00216  -0.08065
  28         D4         0.17918  -0.32805   0.20227  -0.03897   0.03934
  29         D5         0.17839  -0.32825   0.20162   0.04197   0.04095
  30         D6        -0.35222  -0.33218   0.19994  -0.00234  -0.08033
  31         D7         0.17893  -0.00879  -0.38389  -0.03947   0.03939
  32         D8         0.17815  -0.00899  -0.38453   0.04147   0.04100
  33         D9        -0.35246  -0.01292  -0.38621  -0.00284  -0.08028
  34         D10        0.27615   0.00140   0.00054   0.00026  -0.29316
  35         D11       -0.13254  -0.00044   0.00051  -0.37018   0.14758
  36         D12       -0.14361  -0.00096  -0.00105   0.36992   0.14558
                          11        12        13        14        15
     Eigenvalues --     0.16000   0.16000   0.16000   0.16000   0.16000
   1         R1         0.00000   0.00000   0.00000   0.00000  -0.00000
   2         R2        -0.00000  -0.00000   0.00000  -0.00000   0.00000
   3         R3         0.00000   0.00000   0.00000   0.00000   0.00000
   4         R4         0.00000   0.00000   0.00000   0.00000   0.00000
   5         R5        -0.00000   0.00000   0.00000  -0.00000   0.00000
   6         R6        -0.00000   0.00000  -0.00000  -0.00000  -0.00000
   7         R7         0.00000   0.00000  -0.00000   0.00000  -0.00000
   8         R8        -0.00000   0.00000   0.00000  -0.00000  -0.00000
   9         R9         0.00000  -0.00000  -0.00000  -0.00000  -0.00000
  10         A1        -0.16922   0.52175  -0.31382   0.36890   0.38035
  11         A2        -0.18385  -0.46382  -0.52599  -0.35003   0.17917
  12         A3         0.16246  -0.49841   0.20289   0.59786   0.07740
  13         A4         0.18846  -0.03083   0.44829  -0.01001  -0.29864
  14         A5         0.00258  -0.00928   0.05659  -0.50679  -0.23877
  15         A6         0.01021   0.50309   0.16686  -0.13219  -0.13384
  16         A7         0.16937   0.01931  -0.06817  -0.00809   0.00600
  17         A8         0.18744   0.02038  -0.07475  -0.00962   0.00593
  18         A9        -0.73980  -0.07661   0.29232   0.04050  -0.02066
  19         A10       -0.23186  -0.02579   0.09287   0.01151  -0.00775
  20         A11        0.31269   0.03157  -0.12298  -0.01766   0.00816
  21         A12        0.30210   0.03086  -0.11907  -0.01682   0.00813
  22         A13        0.14705  -0.02895   0.46698  -0.32715   0.80774
  23         A14        0.00000   0.00000  -0.00000  -0.00000   0.00000
  24         A15        0.00000   0.00000  -0.00000  -0.00000   0.00000
  25         D1        -0.00000   0.00000  -0.00000  -0.00000  -0.00000
  26         D2         0.00000   0.00000  -0.00000  -0.00000   0.00000
  27         D3        -0.00000  -0.00000   0.00000   0.00000  -0.00000
  28         D4        -0.00000   0.00000  -0.00000  -0.00000  -0.00000
  29         D5         0.00000   0.00000  -0.00000   0.00000   0.00000
  30         D6        -0.00000  -0.00000   0.00000   0.00000  -0.00000
  31         D7         0.00000  -0.00000   0.00000  -0.00000  -0.00000
  32         D8         0.00000  -0.00000  -0.00000  -0.00000   0.00000
  33         D9         0.00000  -0.00000   0.00000   0.00000  -0.00000
  34         D10        0.00000  -0.00000   0.00000   0.00000  -0.00000
  35         D11       -0.00000   0.00000  -0.00000  -0.00000   0.00000
  36         D12        0.00000   0.00000  -0.00000  -0.00000  -0.00000
                          16        17        18        19        20
     Eigenvalues --     0.17175   0.24318   0.31056   0.34533   0.34913
   1         R1        -0.00000  -0.00000   1.00000  -0.00000  -0.00000
   2         R2        -0.00000  -0.00000  -0.00000  -0.00000   0.00000
   3         R3        -0.00000   0.00000  -0.00000  -0.00000  -1.00000
   4         R4        -0.00000  -0.00000  -0.00000  -1.00000   0.00000
   5         R5         0.00000   0.00000   0.00000  -0.00000   0.00000
   6         R6         0.00000  -0.00000  -0.00000  -0.00000  -0.00000
   7         R7         0.00000   0.99999   0.00000  -0.00000   0.00000
   8         R8        -0.99999   0.00002  -0.00000   0.00000   0.00000
   9         R9        -0.00000  -0.00000  -0.00000   0.00000  -0.00000
  10         A1         0.00000  -0.00000  -0.00000   0.00000   0.00000
  11         A2        -0.00000  -0.00000   0.00000  -0.00000  -0.00000
  12         A3         0.00000   0.00000   0.00000   0.00000   0.00000
  13         A4        -0.00000  -0.00000   0.00000   0.00000   0.00000
  14         A5        -0.00000   0.00000   0.00000  -0.00000  -0.00000
  15         A6         0.00000  -0.00000  -0.00000   0.00000   0.00000
  16         A7        -0.00198  -0.00158   0.00049  -0.00000  -0.00000
  17         A8         0.00257   0.00231   0.00007  -0.00000  -0.00000
  18         A9         0.00016   0.00020   0.00011  -0.00000  -0.00000
  19         A10       -0.00038  -0.00051  -0.00039   0.00000   0.00000
  20         A11        0.00071   0.00024  -0.00021   0.00000   0.00000
  21         A12       -0.00110  -0.00070  -0.00013   0.00000   0.00000
  22         A13       -0.00000   0.00000   0.00000   0.00000  -0.00000
  23         A14       -0.00003  -0.00009   0.00009   0.00000  -0.00000
  24         A15       -0.00008  -0.00033   0.00001   0.00000   0.00000
  25         D1        -0.00004  -0.00014   0.00005  -0.00000  -0.00000
  26         D2        -0.00005  -0.00019  -0.00000  -0.00000  -0.00000
  27         D3         0.00009   0.00033  -0.00004  -0.00000  -0.00000
  28         D4        -0.00004  -0.00014   0.00005  -0.00000   0.00000
  29         D5        -0.00005  -0.00019  -0.00000   0.00000   0.00000
  30         D6         0.00009   0.00033  -0.00004  -0.00000   0.00000
  31         D7        -0.00004  -0.00014   0.00005  -0.00000   0.00000
  32         D8        -0.00005  -0.00019  -0.00000  -0.00000   0.00000
  33         D9         0.00009   0.00033  -0.00004  -0.00000   0.00000
  34         D10        0.00040   0.00162  -0.00024   0.00000  -0.00000
  35         D11       -0.00015  -0.00051   0.00044   0.00000  -0.00000
  36         D12       -0.00025  -0.00111  -0.00020  -0.00000   0.00000
                          21        22        23        24
     Eigenvalues --     0.34921   0.35037   0.35066   0.54017
   1         R1         0.00001   0.00000   0.00000   0.00000
   2         R2         1.00000   0.00000  -0.00000  -0.00000
   3         R3         0.00000  -0.00000  -0.00000  -0.00000
   4         R4        -0.00000   0.00000  -0.00000   0.00000
   5         R5         0.00000  -1.00000   0.00000   0.00000
   6         R6         0.00000   0.00000   1.00000   0.00000
   7         R7         0.00001   0.00000  -0.00000   0.00000
   8         R8        -0.00000  -0.00000   0.00000  -0.00000
   9         R9         0.00000   0.00000  -0.00000   1.00000
  10         A1         0.00000   0.00000   0.00000   0.00000
  11         A2        -0.00000  -0.00000  -0.00000  -0.00000
  12         A3        -0.00000  -0.00000   0.00000   0.00000
  13         A4        -0.00000   0.00000  -0.00000  -0.00000
  14         A5        -0.00000   0.00000  -0.00000  -0.00000
  15         A6         0.00000   0.00000  -0.00000   0.00000
  16         A7        -0.00025  -0.00000  -0.00000   0.00000
  17         A8        -0.00076   0.00000   0.00000  -0.00000
  18         A9        -0.00023   0.00000  -0.00000  -0.00000
  19         A10        0.00072  -0.00000  -0.00000   0.00000
  20         A11        0.00027   0.00000   0.00000  -0.00000
  21         A12        0.00034  -0.00000  -0.00000   0.00000
  22         A13       -0.00000   0.00000   0.00000   0.00000
  23         A14       -0.00011  -0.00000   0.00000   0.00000
  24         A15        0.00012   0.00000  -0.00000  -0.00000
  25         D1        -0.00002  -0.00000   0.00000   0.00000
  26         D2         0.00008   0.00000   0.00000  -0.00000
  27         D3        -0.00006  -0.00000   0.00000   0.00000
  28         D4        -0.00002  -0.00000  -0.00000  -0.00000
  29         D5         0.00008   0.00000  -0.00000  -0.00000
  30         D6        -0.00006  -0.00000  -0.00000  -0.00000
  31         D7        -0.00002  -0.00000  -0.00000  -0.00000
  32         D8         0.00008   0.00000  -0.00000  -0.00000
  33         D9        -0.00006  -0.00000  -0.00000   0.00000
  34         D10       -0.00032  -0.00000  -0.00000   0.00000
  35         D11       -0.00050  -0.00000  -0.00000   0.00000
  36         D12        0.00082  -0.00000   0.00000  -0.00000
 Eigenvalue     1 is   2.30D-03 should be less than     0.000000 Eigenvector:
                          A15       D10       D11       D12       A14
   1                   -0.63899  -0.51803  -0.39442  -0.36904  -0.17771
                          D7        D9        D8        D1        A6
   1                    0.00000   0.00000   0.00000   0.00000   0.00000
 RLam0= 2.55D-03.
 Iter=   1 RLamda= 0.00000000D+00 Sum=-7.59982017D-04.
 Iter=   2 RLamda=-7.59982017D-04 Sum=-6.71774802D-04.
 Iter=   3 RLamda=-6.71774802D-04 Sum=-6.79725933D-04.
 Iter=   4 RLamda=-6.79725933D-04 Sum=-6.78990196D-04.
 Iter=   5 RLamda=-6.78990196D-04 Sum=-6.79058113D-04.
 Iter=   6 RLamda=-6.79058113D-04 Sum=-6.79051842D-04.
 RFO step:  Lambda0=2.553354828D-03 Lambda=-6.79058113D-04.
 Linear search not attempted -- option 19 set.
 Maximum step size (   0.100) exceeded in Quadratic search.
    -- Step size scaled by   0.623
 Iteration  1 RMS(Cart)=  0.05853431 RMS(Int)=  0.00310921
 Iteration  2 RMS(Cart)=  0.00377519 RMS(Int)=  0.00013386
 Iteration  3 RMS(Cart)=  0.00001228 RMS(Int)=  0.00013356
 Iteration  4 RMS(Cart)=  0.00000000 RMS(Int)=  0.00013356
 ITry= 1 IFail=0 DXMaxC= 1.76D-01 DCOld= 1.00D+10 DXMaxT= 1.00D-01 DXLimC= 3.00D+00 Rises=F
 Variable       Old X    -DE/DX   Delta X   Delta X   Delta X     New X
                                 (Linear)    (Quad)   (Total)
    R1        2.85905  -0.00248   0.00000  -0.00496  -0.00496   2.85409
    R2        2.05804   0.00359   0.00000   0.00639   0.00639   2.06443
    R3        2.05817   0.00351   0.00000   0.00626   0.00626   2.06443
    R4        2.06440   0.00381   0.00000   0.00686   0.00686   2.07127
    R5        2.05615   0.00400   0.00000   0.00711   0.00711   2.06326
    R6        2.05568   0.00386   0.00000   0.00685   0.00685   2.06253
    R7        2.27676   0.00105   0.00000   0.00269   0.00268   2.27944
    R8        2.51331   0.00124   0.00000   0.00449   0.00449   2.51781
    R9        1.82716   0.00804   0.00000   0.00926   0.00926   1.83642
    A1        1.94036   0.00005   0.00000   0.00023   0.00023   1.94059
    A2        1.94001   0.00010   0.00000   0.00047   0.00047   1.94048
    A3        1.92947   0.00014   0.00000   0.00043   0.00043   1.92990
    A4        1.88655  -0.00005   0.00000   0.00002   0.00001   1.88657
    A5        1.88310  -0.00012   0.00000  -0.00063  -0.00063   1.88247
    A6        1.88216  -0.00014   0.00000  -0.00058  -0.00058   1.88158
    A7        1.98972  -0.00018   0.00000  -0.00137  -0.00142   1.98830
    A8        1.99510  -0.00014   0.00000  -0.00106  -0.00075   1.99435
    A9        1.86591  -0.00022   0.00000  -0.00017  -0.00012   1.86579
   A10        1.93344   0.00001   0.00000  -0.00076  -0.00096   1.93248
   A11        1.84469   0.00029   0.00000   0.00184   0.00177   1.84646
   A12        1.81847   0.00031   0.00000   0.00218   0.00211   1.82058
   A13        1.68954   0.00275   0.00000   0.01067   0.01067   1.70021
   A14        3.12745   0.00017   0.00000   0.09251   0.09252   3.21997
   A15        3.07007  -0.00119   0.00000  -0.01816  -0.01826   3.05181
    D1        0.96549   0.00013   0.00000   0.00390   0.00389   0.96938
    D2       -3.06885  -0.00015   0.00000   0.00054   0.00049  -3.06837
    D3       -1.06628   0.00002   0.00000   0.00252   0.00259  -1.06370
    D4        3.06796   0.00018   0.00000   0.00439   0.00438   3.07235
    D5       -0.96639  -0.00010   0.00000   0.00103   0.00098  -0.96540
    D6        1.03618   0.00006   0.00000   0.00301   0.00308   1.03926
    D7       -1.12557   0.00017   0.00000   0.00425   0.00424  -1.12133
    D8        1.12327  -0.00012   0.00000   0.00089   0.00084   1.12411
    D9        3.12584   0.00005   0.00000   0.00287   0.00294   3.12878
   D10        2.53749  -0.00020   0.00000   0.14741   0.14782   2.68530
   D11        0.42447   0.00009   0.00000   0.13207   0.13219   0.55667
   D12       -1.61112  -0.00002   0.00000   0.15210   0.15157  -1.45955
         Item               Value     Threshold  Converged?
 Maximum Force            0.008035     0.000450     NO 
 RMS     Force            0.002065     0.000300     NO 
 Maximum Displacement     0.175819     0.001800     NO 
 RMS     Displacement     0.057974     0.001200     NO 
 Predicted change in Energy=-1.099822D-04
 Lowest energy point so far.  Saving SCF results.
 Largest change from initial coordinates is atom   10       0.126 Angstoms.
 GradGradGradGradGradGradGradGradGradGradGradGradGradGradGradGradGradGrad

 Leave Link  103 at Wed Oct  7 14:33:58 2020, MaxMem=  2684354560 cpu:               2.9 elap:               0.6
 (Enter /udrive/faculty/rpeverati/g16/g16/l202.exe)
                          Input orientation:                          
 ---------------------------------------------------------------------
 Center     Atomic      Atomic             Coordinates (Angstroms)
 Number     Number       Type             X           Y           Z
 ---------------------------------------------------------------------
      1          6           0        1.479182   -0.444083    0.020173
      2          6           0        0.459449    0.669608   -0.009952
      3          8           0       -1.882784   -0.299511   -0.026268
      4          1           0        1.357017   -1.067354    0.909021
      5          1           0        1.388852   -1.085880   -0.859248
      6          1           0        2.495989   -0.035078    0.033619
      7          1           0        0.464492    1.298748    0.882377
      8          1           0        0.489345    1.280888   -0.913663
      9          1           0       -0.628103    0.148630   -0.038214
     10          1           0       -2.290970    0.481361    0.383616
 ---------------------------------------------------------------------
                    Distance matrix (angstroms):
                    1          2          3          4          5
     1  C    0.000000
     2  C    1.510321   0.000000
     3  O    3.365393   2.534860   0.000000
     4  H    1.092447   2.160365   3.458419   0.000000
     5  H    1.092448   2.160285   3.466387   1.768652   0.000000
     6  H    1.096068   2.155453   4.387160   1.768950   1.768375
     7  H    2.193274   1.091831   2.981572   2.528982   3.094212
     8  H    2.197124   1.091444   2.985319   3.096656   2.532522
     9  H    2.189832   1.206228   1.332366   2.513279   2.503242
    10  H    3.899048   2.784804   0.971792   3.997796   4.188322
                    6          7          8          9         10
     6  H    0.000000
     7  H    2.574192   0.000000
     8  H    2.579871   1.796301   0.000000
     9  H    3.130313   1.834127   1.815794   0.000000
    10  H    4.827441   2.917097   3.170540   1.747506   0.000000
 Stoichiometry    C2H7O(2)
 Framework group  C1[X(C2H7O)]
 Deg. of freedom    24
 Full point group                 C1      NOp   1
 RotChk:  IX=0 Diff= 2.46D-02
 Largest Abelian subgroup         C1      NOp   1
 Largest concise Abelian subgroup C1      NOp   1
                         Standard orientation:                         
 ---------------------------------------------------------------------
 Center     Atomic      Atomic             Coordinates (Angstroms)
 Number     Number       Type             X           Y           Z
 ---------------------------------------------------------------------
      1          6           0        1.490163   -0.424769    0.021805
      2          6           0        0.456943    0.675830   -0.025191
[...]
  19         A10        0.00105   0.01618   0.00501   0.00013
  20         A11        0.00345   0.00440   0.01080   0.00014
  21         A12       -0.00550   0.00501   0.00890  -0.00105
  22         A13        0.00615   0.00086   0.00144   0.01397
  23         A14       -0.00459   0.00747   0.00307  -0.00088
  24         A15       -0.00655  -0.00182  -0.00298  -0.00506
  25         D1         0.00518  -0.00184   0.01134  -0.00098
  26         D2         0.00675   0.00683  -0.00314   0.00083
  27         D3        -0.00741   0.00454   0.00360  -0.00069
  28         D4         0.00493  -0.00729   0.00401  -0.00050
  29         D5         0.00649   0.00138  -0.01046   0.00131
  30         D6        -0.00767  -0.00091  -0.00373  -0.00021
  31         D7         0.00025  -0.00612   0.00663  -0.00073
  32         D8         0.00182   0.00254  -0.00785   0.00108
  33         D9        -0.01234   0.00025  -0.00111  -0.00044
  34         D10        0.01067  -0.00073  -0.00063  -0.00057
  35         D11       -0.00517   0.01144   0.00691  -0.00015
  36         D12       -0.00492  -0.01189  -0.00749   0.00057
 Eigenvalue     1 is  -2.85D-02 should be greater than     0.000000 Eigenvector:
                          R8        R7        D5        D1        D8
   1                    0.85820  -0.44733  -0.08547   0.08048  -0.07945
                          D7        D2        A13       D4        A12
   1                    0.07373  -0.07270  -0.07120   0.06771   0.06291
 Angle between quadratic step and forces=  69.21 degrees.
 Linear search not attempted -- first point.
 Iteration  1 RMS(Cart)=  0.00114348 RMS(Int)=  0.00000186
 Iteration  2 RMS(Cart)=  0.00000163 RMS(Int)=  0.00000002
 Iteration  3 RMS(Cart)=  0.00000000 RMS(Int)=  0.00000002
 ITry= 1 IFail=0 DXMaxC= 2.86D-03 DCOld= 1.00D+10 DXMaxT= 3.00D-01 DXLimC= 3.00D+00 Rises=F
 Variable       Old X    -DE/DX   Delta X   Delta X   Delta X     New X
                                 (Linear)    (Quad)   (Total)
    R1        2.84833  -0.00000   0.00000   0.00005   0.00005   2.84837
    R2        2.06876  -0.00000   0.00000   0.00001   0.00001   2.06877
    R3        2.06814  -0.00000   0.00000  -0.00001  -0.00001   2.06813
    R4        2.07566  -0.00000   0.00000  -0.00001  -0.00001   2.07565
    R5        2.06730  -0.00000   0.00000  -0.00000  -0.00000   2.06730
    R6        2.06723   0.00000   0.00000   0.00000   0.00000   2.06723
    R7        2.29266  -0.00003   0.00000  -0.00064  -0.00064   2.29202
    R8        2.49831   0.00003   0.00000   0.00106   0.00106   2.49938
    R9        1.84165  -0.00000   0.00000   0.00001   0.00001   1.84165
    A1        1.94478  -0.00000   0.00000  -0.00000  -0.00000   1.94478
    A2        1.94312  -0.00000   0.00000  -0.00000  -0.00000   1.94311
    A3        1.93246  -0.00000   0.00000   0.00001   0.00001   1.93247
    A4        1.88338   0.00000   0.00000   0.00000   0.00000   1.88338
    A5        1.87817   0.00000   0.00000  -0.00002  -0.00002   1.87815
    A6        1.87914   0.00000   0.00000   0.00001   0.00001   1.87915
    A7        1.99258  -0.00000   0.00000  -0.00001  -0.00001   1.99257
    A8        1.99776   0.00000   0.00000  -0.00001  -0.00001   1.99775
    A9        1.88144  -0.00000   0.00000   0.00016   0.00016   1.88160
   A10        1.92574   0.00000   0.00000  -0.00001  -0.00001   1.92573
   A11        1.84872   0.00000   0.00000   0.00003   0.00003   1.84875
   A12        1.80025  -0.00000   0.00000  -0.00016  -0.00016   1.80009
   A13        1.72109   0.00001   0.00000   0.00003   0.00003   1.72112
   A14        3.03179   0.00001   0.00000   0.00101   0.00101   3.03280
   A15        2.98839  -0.00002   0.00000  -0.00089  -0.00089   2.98750
    D1        0.97658   0.00000   0.00000   0.00163   0.00163   0.97821
    D2       -3.06370   0.00001   0.00000   0.00160   0.00160  -3.06210
    D3       -1.07209   0.00000   0.00000   0.00149   0.00149  -1.07060
    D4        3.08015   0.00000   0.00000   0.00163   0.00163   3.08177
    D5       -0.96013   0.00001   0.00000   0.00159   0.00159  -0.95854
    D6        1.03148   0.00000   0.00000   0.00149   0.00149   1.03297
    D7       -1.11317   0.00000   0.00000   0.00165   0.00165  -1.11152
    D8        1.12973   0.00001   0.00000   0.00162   0.00162   1.13135
    D9        3.12134   0.00000   0.00000   0.00152   0.00152   3.12286
   D10        1.86045  -0.00000   0.00000  -0.00352  -0.00352   1.85693
   D11       -0.23600  -0.00000   0.00000  -0.00364  -0.00364  -0.23964
   D12       -2.26761   0.00000   0.00000  -0.00328  -0.00328  -2.27089
         Item               Value     Threshold  Converged?
 Maximum Force            0.000033     0.000450     YES
 RMS     Force            0.000008     0.000300     YES
 Maximum Displacement     0.002859     0.001800     NO 
 RMS     Displacement     0.001143     0.001200     YES
 Predicted change in Energy=-1.104494D-07
                           ----------------------------
                           ! Non-Optimized Parameters !
                           ! (Angstroms and Degrees)  !
 --------------------------                            --------------------------
 ! Name  Definition              Value          Derivative Info.                !
 --------------------------------------------------------------------------------
 ! R1    R(1,2)                  1.5073         -DE/DX =    0.0                 !
 ! R2    R(1,4)                  1.0947         -DE/DX =    0.0                 !
 ! R3    R(1,5)                  1.0944         -DE/DX =    0.0                 !
 ! R4    R(1,6)                  1.0984         -DE/DX =    0.0                 !
 ! R5    R(2,7)                  1.094          -DE/DX =    0.0                 !
 ! R6    R(2,8)                  1.0939         -DE/DX =    0.0                 !
 ! R7    R(2,9)                  1.2129         -DE/DX =    0.0                 !
 ! R8    R(3,9)                  1.3226         -DE/DX =    0.0                 !
 ! R9    R(3,10)                 0.9746         -DE/DX =    0.0                 !
 ! A1    A(2,1,4)              111.4277         -DE/DX =    0.0                 !
 ! A2    A(2,1,5)              111.3322         -DE/DX =    0.0                 !
 ! A3    A(2,1,6)              110.7223         -DE/DX =    0.0                 !
 ! A4    A(4,1,5)              107.9099         -DE/DX =    0.0                 !
 ! A5    A(4,1,6)              107.6103         -DE/DX =    0.0                 !
 ! A6    A(5,1,6)              107.6675         -DE/DX =    0.0                 !
 ! A7    A(1,2,7)              114.1659         -DE/DX =    0.0                 !
 ! A8    A(1,2,8)              114.4627         -DE/DX =    0.0                 !
 ! A9    A(1,2,9)              107.8077         -DE/DX =    0.0                 !
 ! A10   A(7,2,8)              110.3364         -DE/DX =    0.0                 !
 ! A11   A(7,2,9)              105.9258         -DE/DX =    0.0                 !
 ! A12   A(8,2,9)              103.1377         -DE/DX =    0.0                 !
 ! A13   A(9,3,10)              98.613          -DE/DX =    0.0                 !
 ! A14   L(2,9,3,4,-1)         173.7665         -DE/DX =    0.0                 !
 ! A15   L(2,9,3,4,-2)         171.171          -DE/DX =    0.0                 !
 ! D1    D(4,1,2,7)             56.0474         -DE/DX =    0.0                 !
 ! D2    D(4,1,2,8)           -175.4455         -DE/DX =    0.0                 !
 ! D3    D(4,1,2,9)            -61.3406         -DE/DX =    0.0                 !
 ! D4    D(5,1,2,7)            176.5727         -DE/DX =    0.0                 !
 ! D5    D(5,1,2,8)            -54.9202         -DE/DX =    0.0                 !
 ! D6    D(5,1,2,9)             59.1847         -DE/DX =    0.0                 !
 ! D7    D(6,1,2,7)            -63.6854         -DE/DX =    0.0                 !
 ! D8    D(6,1,2,8)             64.8218         -DE/DX =    0.0                 !
 ! D9    D(6,1,2,9)            178.9266         -DE/DX =    0.0                 !
 ! D10   D(1,2,3,10)           106.3945         -DE/DX =    0.0                 !
 ! D11   D(7,2,3,10)           -13.7302         -DE/DX =    0.0                 !
 ! D12   D(8,2,3,10)          -130.1125         -DE/DX =    0.0                 !
 --------------------------------------------------------------------------------
 GradGradGradGradGradGradGradGradGradGradGradGradGradGradGradGradGradGrad

 Leave Link  103 at Wed Oct  7 14:41:07 2020, MaxMem=  2684354560 cpu:               3.2 elap:               0.7
 (Enter /udrive/faculty/rpeverati/g16/g16/l9999.exe)

 ----------------------------------------------------------------------

 Electric dipole moment (input orientation):
 (Debye = 10**-18 statcoulomb cm , SI units = C m)
                  (au)            (Debye)         (10**-30 SI)
   Tot        0.823452D+00      0.209301D+01      0.698152D+01
   x          0.490613D+00      0.124701D+01      0.415959D+01
   y          0.350303D+00      0.890381D+00      0.296999D+01
   z          0.560946D+00      0.142578D+01      0.475590D+01

 Dipole polarizability, Alpha (input orientation).
 (esu units = cm**3 , SI units = C**2 m**2 J**-1)
 Alpha(0;0):
               (au)            (10**-24 esu)      (10**-40 SI)
   iso        0.345733D+02      0.512323D+01      0.570036D+01
   aniso      0.236945D+02      0.351116D+01      0.390670D+01
   xx         0.493791D+02      0.731723D+01      0.814152D+01
   yx         0.454748D+01      0.673868D+00      0.749779D+00
   yy         0.273205D+02      0.404848D+01      0.450455D+01
   zx        -0.133252D+01     -0.197459D+00     -0.219702D+00
   zy         0.505594D+00      0.749213D-01      0.833612D-01
   zz         0.270202D+02      0.400398D+01      0.445503D+01

 ----------------------------------------------------------------------

 Dipole orientation:
     6          2.17231764         -1.18959255          1.29162072
     6          0.60490279          1.17253345          1.01497560
     8         -2.55433498          0.31386402         -2.45822943
     1          0.98699389         -2.84402321          1.66263487
     1          3.27324154         -1.56649269         -0.41808731
     1          3.50575257         -1.00532479          2.87160811
     1         -0.61954438          1.57001829          2.63252373
     1          1.68244048          2.85926071          0.49796188
     1         -0.79519643          0.87871655         -0.77658316
     1         -3.98816328          0.15247737         -1.31378277

 Electric dipole moment (dipole orientation):
 (Debye = 10**-18 statcoulomb cm , SI units = C m)
                  (au)            (Debye)         (10**-30 SI)
   Tot        0.823452D+00      0.209301D+01      0.698152D+01
   x          0.000000D+00      0.000000D+00      0.000000D+00
   y          0.000000D+00      0.000000D+00      0.000000D+00
   z          0.823452D+00      0.209301D+01      0.698152D+01

 Dipole polarizability, Alpha (dipole orientation).
 (esu units = cm**3 , SI units = C**2 m**2 J**-1)
 Alpha(0;0):
               (au)            (10**-24 esu)      (10**-40 SI)
   iso        0.345733D+02      0.512323D+01      0.570036D+01
   aniso      0.236945D+02      0.351116D+01      0.390670D+01
   xx         0.412026D+02      0.610560D+01      0.679339D+01
   yx         0.696129D+00      0.103156D+00      0.114776D+00
   yy         0.259892D+02      0.385120D+01      0.428504D+01
   zx         0.111839D+02      0.165729D+01      0.184398D+01
   zy         0.922207D+00      0.136657D+00      0.152051D+00
   zz         0.365280D+02      0.541290D+01      0.602266D+01

 ----------------------------------------------------------------------

 Test job not archived.
 1\1\GINC-NODE62\Freq\UPBE1PBE\6-31G(d)\C2H7O1(2)\RPEVERATI\07-Oct-2020
 \0\\#P Freq PBE1PBE/6-31G* 5D 7F Integral=UltraFineGrid SCF=(NoSymm,XQ
 C,MaxCyc=120) EmpiricalDispersion=GD3BJ IOp(1/33=1) Geom=Check Guess=R
 ead\\TS search on BH76.\\0,2\C,1.4089531251,-0.4442823112,0.0485058222
 \C,0.4789762607,0.7339167276,-0.0887914523\O,-1.8663730789,-0.20139519
 24,-0.1514631151\H,1.1631083432,-1.0474446572,0.9284020077\H,1.3595529
 804,-1.0949723991,-0.8300707885\H,2.4490323961,-0.1079670318,0.1561709
 982\H,0.4461135369,1.3834350146,0.790874101\H,0.6312184542,1.328062150
 1,-0.9946051581\H,-0.6468970704,0.3035609933,-0.227044909\H,-2.0912163
 337,0.0944171031,0.7494831672\\Version=ES64L-G16RevA.03\State=2-A\HF=-
 155.3619603\S2=0.757803\S2-1=0.\S2A=0.750024\RMSD=8.149e-10\RMSF=1.324
 e-05\ZeroPoint=0.0814502\Thermal=0.0871011\Dipole=0.4906128,0.3503027,
 0.5609459\DipoleDeriv=-0.2307977,0.022379,-0.0070296,-0.0666764,0.0136
 501,0.0033941,-0.0302001,-0.0001529,0.0460825,0.9376974,0.2016613,-0.0
 205641,0.1720049,0.1389819,0.0005478,0.0845365,0.0373788,0.0921061,-0.
 0362177,0.1316097,-0.0672088,0.2123194,-0.383992,0.0709019,-0.0263568,
 0.0943076,-0.2423555,0.0673943,-0.0144597,0.0458166,0.0281178,-0.00785
 53,0.0816133,0.0281786,0.1006807,-0.057322,0.0816478,0.0095815,-0.0174
 33,0.0417081,-0.0155577,-0.078727,-0.0021218,-0.0983622,-0.0482803,-0.
 1339147,-0.0341333,-0.0213246,0.0394526,0.0377155,-0.0039765,-0.026646
 2,-0.0022916,0.0845821,-0.0704046,-0.01365,0.0023908,-0.0034028,-0.048
 6055,-0.0747958,0.0250966,-0.0962408,-0.0562852,-0.0612838,-0.0426763,
 0.0421247,-0.0121762,-0.0294919,0.0834883,-0.0405239,0.0726794,-0.0443
 432,-0.9344156,-0.2794107,0.0156609,-0.4075508,0.0096353,-0.0007198,0.
 0471583,-0.0015847,0.1323755,0.3802946,0.0190986,0.0275673,-0.0037965,
 0.2855197,-0.0817263,-0.0591211,-0.1064143,0.09344\Polar=49.3791252,4.
 5474838,27.3205189,-1.332517,0.5055942,27.0201817\Quadrupole=-0.760057
 ,-0.2606453,1.0207023,-0.8445693,-2.6101167,0.0974866\PG=C01 [X(C2H7O1
 )]\NImag=1\\0.52821128,0.03039227,0.53647327,-0.00718473,0.00576001,0.
 58816274,-0.11864872,0.07706794,-0.00596497,0.31948730,0.08406428,-0.1
 7038495,0.01165065,-0.05576546,0.51127173,-0.00717813,0.01072876,-0.08
 603130,-0.02511558,-0.00079601,0.59409437,0.00882394,-0.00017537,0.000
 71160,-0.09475276,-0.03522506,-0.01296061,0.06235672,0.00384632,0.0003
 7951,0.00073372,-0.04088322,-0.01288974,-0.00662176,-0.01798768,0.0595
 6810,0.00017298,0.00032382,-0.00027484,0.00163431,0.00010741,0.0001475
 6,-0.09897754,0.14942340,0.44298635,-0.06221655,-0.03600924,0.05300535
 ,0.00405100,0.01297110,-0.02033461,0.00039984,-0.00071139,0.00044485,0
 .06603229,-0.03465158,-0.12944311,0.11825137,-0.00690947,-0.01459422,0
 .02214259,-0.00025973,0.00029503,-0.00032254,0.03477886,0.13985102,0.0
 5218653,0.11818191,-0.22736234,-0.00074607,0.00097914,-0.00130712,0.00
 005301,-0.00061371,0.00027647,-0.05669474,-0.13137109,0.24255763,-0.04
 810127,-0.01031762,-0.01257743,-0.00085845,0.01368980,0.01949076,-0.00
 011284,-0.00056100,-0.00024687,-0.00065926,0.00535887,0.00674010,0.050
 67623,-0.00895523,-0.14331870,-0.12880862,-0.00163437,-0.01563563,-0.0
 2203237,0.00024609,0.00035560,0.00019934,0.00156972,0.01226360,0.01533
 257,0.00624164,0.15510832,-0.01171415,-0.12925000,-0.22940000,0.001080
 20,0.00289068,0.00466494,0.00026199,0.00026642,0.00001666,-0.00253964,
 -0.01616572,-0.01978317,0.01354583,0.14178135,0.24421511,-0.28098722,-
 0.08264618,-0.02394181,-0.02091190,-0.00334250,-0.00222834,-0.00042995
 ,-0.00041685,-0.00004436,-0.00644456,-0.00202279,-0.00111863,-0.000637
 57,-0.00020080,0.00027501,0.30777683,-0.07754847,-0.07255331,-0.008086
 61,0.02519730,0.00652875,0.00285711,-0.00120886,-0.00029339,-0.0001925
 0,-0.01643774,-0.00605851,-0.00328066,-0.01822998,-0.00634499,-0.00017
 580,0.08486552,0.07865621,-0.02425416,-0.00875587,-0.04989247,-0.00285
 519,-0.00049111,-0.00154286,0.00020145,-0.00013246,0.00015282,0.026386
 71,0.00805744,0.00334241,-0.02633093,-0.00791107,-0.00201855,0.0270874
 5,0.00866796,0.04888989,0.00060039,0.01379502,0.01949391,-0.03617738,0
 .00452518,0.00035220,0.00328877,0.00129907,-0.00079985,0.00043279,-0.0
 0057862,-0.00063058,-0.00216399,0.00385079,-0.00124993,0.00082044,-0.0
 0102284,-0.00006915,0.04092728,-0.00157074,-0.01280968,-0.02054428,0.0
 0964098,-0.14483145,-0.13152651,0.00152907,0.00061984,0.00024213,-0.00
 093190,0.00072686,0.00007762,0.00412152,-0.00323704,0.00108684,0.00021
 664,0.00070297,0.00007894,-0.00973559,0.15325699,-0.00036714,0.0032987
 9,0.00515608,0.00583727,-0.12954170,-0.23383464,-0.00023760,0.00066237
 ,0.00062369,0.00050503,-0.00043186,0.00078029,-0.00077309,0.00129232,0
 .00141985,0.00027908,-0.00014872,0.00015924,-0.00512813,0.14275254,0.2
 4623668,0.00542822,0.01288504,-0.02010584,-0.04251639,-0.02086185,0.04
 331673,0.00505288,0.00318514,0.00015649,-0.00245406,0.00405185,0.00008
 343,0.00042616,-0.00067304,0.00057726,0.00077274,-0.00113709,0.0002811
 9,0.00108714,0.00023107,-0.00108869,0.04631454,-0.00582553,-0.01118260
 ,0.02017557,-0.01526399,-0.12991513,0.12526665,0.00139335,0.00072483,-
 0.00080411,0.00415617,-0.00327790,0.00019418,-0.00087623,0.00069436,-0
 .00024678,0.00023342,0.00054075,-0.00005030,0.00355071,0.01200177,-0.0
 1672668,0.01791118,0.13640803,0.00071971,0.00041904,0.00016072,0.03673
 149,0.12190149,-0.24221406,0.00233159,0.00063804,0.00083254,-0.0002431
 8,-0.00024018,0.00168425,-0.00051748,0.00027146,0.00075240,-0.00010313
 ,-0.00015916,0.00015185,0.00499664,0.01478723,-0.01796038,-0.03945463,
 -0.13565572,0.25654189,-0.03288825,-0.00501884,-0.00349821,-0.00809288
 ,-0.00111700,0.00282204,0.06116828,0.03267369,0.00768985,0.00108449,0.
 00005803,0.00020488,0.00125923,-0.00019368,-0.00011403,-0.00022441,0.0
 0559235,-0.00034889,-0.00948329,-0.00314992,0.00147316,-0.01435759,-0.
 00556873,-0.00395656,0.00579994,0.01034510,0.00277596,0.00139052,0.006
 72759,-0.02971207,-0.00255462,0.02232565,0.00354965,-0.00097181,0.0002
 6984,0.00039088,0.00029473,0.00054405,0.00023120,-0.00020555,0.0032261
 0,-0.00107827,0.00046578,-0.01545951,-0.00639501,-0.00080333,-0.014674
 87,-0.00579784,-0.00159286,-0.01775158,0.03422652,-0.00087736,-0.00002
 523,-0.00048581,-0.01546064,-0.00895277,-0.03572362,-0.00379680,-0.006
 58359,-0.01672788,-0.00052901,-0.00008138,-0.00015983,0.00063735,-0.00
 023725,0.00014754,-0.00010050,0.00003829,0.00080360,-0.01651774,-0.006
 80628,-0.00295740,0.01706872,0.00813233,0.00035327,0.00252852,0.008646
 31,0.05759339,-0.00022182,0.00002697,0.00006212,-0.00157981,0.00106150
 ,0.00183554,-0.04579486,0.01955591,0.08997014,-0.00022599,0.00017458,-
 0.00007795,0.00017176,-0.00025113,-0.00012254,0.00026560,-0.00007018,-
 0.00009847,0.00066786,-0.00035112,-0.00049990,0.00024638,0.00028966,-0
 .00050446,-0.00426552,0.00444763,0.01704746,0.05073641,-0.00009642,0.0
 0006361,-0.00052234,0.00182271,0.00016270,0.00253616,0.02936254,-0.052
 30943,-0.14800513,0.00034457,-0.00015366,0.00020531,0.00002895,-0.0001
 1672,0.00001858,0.00008744,-0.00010021,0.00007067,-0.00022422,-0.00003
 525,-0.00035375,-0.00091743,-0.00019627,-0.00036934,-0.00552432,0.0018
 0898,0.00586957,-0.02488382,0.05087625,-0.00150355,-0.00068123,-0.0000
 3279,0.00485917,0.00225222,0.00174674,0.11241291,-0.13777243,-0.428033
 35,-0.00000078,0.00016136,-0.00002859,0.00003177,0.00011226,-0.0000147
 7,-0.00010476,0.00048009,-0.00004592,-0.00044737,-0.00014825,0.0003765
 9,-0.00083467,-0.00028514,-0.00030249,-0.00680077,-0.00466917,-0.00284
 325,-0.10761194,0.14055028,0.42917783\\-0.00000186,0.00000476,-0.00000
 406,0.00002362,0.00000259,-0.00000692,0.00002422,-0.00000312,-0.000008
 97,0.00000483,0.00000179,0.00000543,-0.00000284,-0.00000432,0.00000184
 ,0.00000266,-0.00000115,-0.00000294,-0.00000307,-0.00000213,0.00000217
 ,0.00000992,0.00000389,0.00000440,-0.00005949,-0.00000665,0.00000787,0
 .00000202,0.00000433,0.00000117\\\@


 A warm smile is the universal language of kindness.
                             -- William Arthur Ward
 Job cpu time:       0 days  0 hours  5 minutes 31.1 seconds.
 Elapsed time:       0 days  0 hours  0 minutes 36.5 seconds.
 File lengths (MBytes):  RWF=     13 Int=      0 D2E=      0 Chk=      2 Scr=      1
 Normal termination of Gaussian 16 at Wed Oct  7 14:41:09 2020.
