 Entering Gaussian System, Link 0=g16
 Input=MN_94_RKT20_BH76_PBE0DBJ_631Gs.in
 Output=MN_94_RKT20_BH76_PBE0DBJ_631Gs.log
 Initial command:
 /udrive/faculty/rpeverati/g16/g16/l1.exe "/udrive/scratch-directories/gaussian09/rpeverati/Gau-18068.inp" -scrdir="/udrive/scratch-directories/gaussian09/rpeverati/"
 Entering Link 1 = /udrive/faculty/rpeverati/g16/g16/l1.exe PID=     18069.
  
 Copyright (c) 1988,1990,1992,1993,1995,1998,2003,2009,2016,
            Gaussian, Inc.  All Rights Reserved.
  
 This is part of the Gaussian(R) 16 program.  It is based on
 the Gaussian(R) 09 system (copyright 2009, Gaussian, Inc.),
 the Gaussian(R) 03 system (copyright 2003, Gaussian, Inc.),
 the Gaussian(R) 98 system (copyright 1998, Gaussian, Inc.),
 the Gaussian(R) 94 system (copyright 1995, Gaussian, Inc.),
 the Gaussian 92(TM) system (copyright 1992, Gaussian, Inc.),
 the Gaussian 90(TM) system (copyright 1990, Gaussian, Inc.),
 the Gaussian 88(TM) system (copyright 1988, Gaussian, Inc.),
 the Gaussian 86(TM) system (copyright 1986, Carnegie Mellon
 University), and the Gaussian 82(TM) system (copyright 1983,
 Carnegie Mellon University). Gaussian is a federally registered
 trademark of Gaussian, Inc.
  
 This software contains proprietary and confidential information,
 including trade secrets, belonging to Gaussian, Inc.
  
 This software is provided under written license and may be
 used, copied, transmitted, or stored only in accord with that
 written license.
  
 The following legend is applicable only to US Government
 contracts under FAR:
  
                    RESTRICTED RIGHTS LEGEND
  
 Use, reproduction and disclosure by the US Government is
 subject to restrictions as set forth in subparagraphs (a)
 and (c) of the Commercial Computer Software - Restricted
 Rights clause in FAR 52.227-19.
  
 Gaussian, Inc.
 340 Quinnipiac St., Bldg. 40, Wallingford CT 06492
  
  
 ---------------------------------------------------------------
 Warning -- This program may not be used in any manner that
 competes with the business of Gaussian, Inc. or will provide
 assistance to any competitor of Gaussian, Inc.  The licensee
 of this program is prohibited from giving any competitor of
 Gaussian, Inc. access to this program.  By using this program,
 the user acknowledges that Gaussian, Inc. is engaged in the
 business of creating and licensing software in the field of
 computational chemistry and represents and warrants to the
 licensee that it is not a competitor of Gaussian, Inc. and that
 it will not use this program in any manner prohibited above.
 ---------------------------------------------------------------
  

 Cite this work as:
 Gaussian 16, Revision A.03,
 M. J. Frisch, G. W. Trucks, H. B. Schlegel, G. E. Scuseria, 
 M. A. Robb, J. R. Cheeseman, G. Scalmani, V. Barone, 
 G. A. Petersson, H. Nakatsuji, X. Li, M. Caricato, A. V. Marenich, 
 J. Bloino, B. G. Janesko, R. Gomperts, B. Mennucci, H. P. Hratchian, 
 J. V. Ortiz, A. F. Izmaylov, J. L. Sonnenberg, D. Williams-Young, 
 F. Ding, F. Lipparini, F. Egidi, J. Goings, B. Peng, A. Petrone, 
 T. Henderson, D. Ranasinghe, V. G. Zakrzewski, J. Gao, N. Rega, 
 G. Zheng, W. Liang, M. Hada, M. Ehara, K. Toyota, R. Fukuda, 
 J. Hasegawa, M. Ishida, T. Nakajima, Y. Honda, O. Kitao, H. Nakai, 
 T. Vreven, K. Throssell, J. A. Montgomery, Jr., J. E. Peralta, 
 F. Ogliaro, M. J. Bearpark, J. J. Heyd, E. N. Brothers, K. N. Kudin, 
 V. N. Staroverov, T. A. Keith, R. Kobayashi, J. Normand, 
 K. Raghavachari, A. P. Rendell, J. C. Burant, S. S. Iyengar, 
 J. Tomasi, M. Cossi, J. M. Millam, M. Klene, C. Adamo, R. Cammi, 
 J. W. Ochterski, R. L. Martin, K. Morokuma, O. Farkas, 
 J. B. Foresman, and D. J. Fox, Gaussian, Inc., Wallingford CT, 2016.
 
 ******************************************
 Gaussian 16:  ES64L-G16RevA.03 25-Dec-2016
                 7-Oct-2020 
 ******************************************
 %NoSave
 %nproc=12
 Will use up to   12 processors via shared memory.
 %mem=20GB
 %chk=MN_94_RKT20_BH76_PBE0DBJ_631Gs
 ----------------------------------------------------------------------
 #P Opt(TS,MaxCyc=50,NoEigenTest,MaxStep=10,AddRedundant) PBE1PBE/6-31G
 * 5D 7F Integral=UltraFineGrid SCF=(NoSymm,XQC,MaxCyc=120) EmpiricalDi
 spersion=GD3BJ IOp(1/33=1)
 ----------------------------------------------------------------------
 1/5=1,6=50,8=10,11=1,18=120,26=4,33=1,38=1/1,3;
 2/9=110,12=2,17=6,18=5,40=1/2;
 3/5=1,6=6,7=1,8=11,11=2,25=1,30=1,71=1,74=-13,75=-5,124=41/1,2,3;
 4/9=2/1;
 5/5=2,7=120,8=3,13=1,38=5/2,8;
 6/7=2,8=2,9=2,10=2,28=1/1;
 7//1,2,3,16;
 1/5=1,6=50,8=10,11=1,18=20,26=4,33=1/3(2);
 2/9=110/2;
 99//99;
 2/9=110/2;
 3/5=1,6=6,7=1,8=11,11=2,25=1,30=1,71=1,74=-13,75=-5,124=41/1,2,3;
 4/5=5,9=2,16=3,69=1/1;
 5/5=2,7=120,8=3,13=1,38=5/2,8;
 7//1,2,3,16;
 1/5=1,6=50,8=10,11=1,18=20,26=4,33=1/3(-5);
 2/9=110/2;
 6/7=2,8=2,9=2,10=2,19=2,28=1/1;
 99/9=1/99;
 Leave Link    1 at Wed Oct  7 14:34:08 2020, MaxMem=  2684354560 cpu:               8.9 elap:               1.0
 (Enter /udrive/faculty/rpeverati/g16/g16/l101.exe)
 ONIOM data not found on unit 2.
 ------------------
 TS search on BH76.
 ------------------
 TstMul:  ICh=     0
 TstMul:  Mul=     2
 TstMul:  ICh=     0
 TstMul:  Mul=     2
 Symbolic Z-matrix:
 Charge =  0 Multiplicity = 2
 C                    -1.4857   -0.44816  -0.00002 
 C                    -0.50504   0.70174   0.00003 
 N                     1.86516  -0.34017  -0.00006 
 H                    -1.35419  -1.07651  -0.8805 
 H                    -1.35416  -1.07661   0.88039 
 H                    -2.51703  -0.08617   0.00003 
 H                    -0.52222   1.31612  -0.89722 
 H                    -0.52221   1.31603   0.89734 
 H                     0.66505   0.14796  -0.00003 
 H                     2.24664   0.15972  -0.8048 
 H                     2.24644   0.15913   0.80515 
 
 RdStrC is calling ZToCFu for IStruc=1 NZ=    11.
 PrtBox:  NBox=     2 Levels=  1 BoxLen=    8.00 SMaxX=        9.00
          Shift=            4.756490            2.034500            1.695500
 Box      1 Number                   0 centers from      1 to      8:
 Box      2 Number                   4 centers from      9 to     11:
 After GenITR:
 ITRead=  0  0  0  0  0  0  0  0  0  0  0
 MicOpt= -1 -1 -1 -1 -1 -1 -1 -1 -1 -1 -1
 Add virtual bond connecting atoms H9         and N3         Dist= 2.45D+00.
 The following ModRedundant input section has been read:
 
 ITRead=  0  0  0  0  0  0  0  0  0  0  0
 MicOpt= -1 -1 -1 -1 -1 -1 -1 -1 -1 -1 -1
 NAtoms=     11 NQM=       11 NQMF=       0 NMMI=      0 NMMIF=      0
                NMic=       0 NMicF=      0.
                    Isotopes and Nuclear Properties:
 (Nuclear quadrupole moments (NQMom) in fm**2, nuclear magnetic moments (NMagM)
  in nuclear magnetons)

  Atom         1           2           3           4           5           6           7           8           9          10
 IAtWgt=          12          12          14           1           1           1           1           1           1           1
 AtmWgt=  12.0000000  12.0000000  14.0030740   1.0078250   1.0078250   1.0078250   1.0078250   1.0078250   1.0078250   1.0078250
 NucSpn=           0           0           2           1           1           1           1           1           1           1
 AtZEff=   0.0000000   0.0000000   0.0000000   0.0000000   0.0000000   0.0000000   0.0000000   0.0000000   0.0000000   0.0000000
 NQMom=    0.0000000   0.0000000   2.0440000   0.0000000   0.0000000   0.0000000   0.0000000   0.0000000   0.0000000   0.0000000
 NMagM=    0.0000000   0.0000000   0.4037610   2.7928460   2.7928460   2.7928460   2.7928460   2.7928460   2.7928460   2.7928460
 AtZNuc=   6.0000000   6.0000000   7.0000000   1.0000000   1.0000000   1.0000000   1.0000000   1.0000000   1.0000000   1.0000000

  Atom        11
 IAtWgt=           1
 AtmWgt=   1.0078250
 NucSpn=           1
 AtZEff=   0.0000000
 NQMom=    0.0000000
 NMagM=    2.7928460
 AtZNuc=   1.0000000
 No MM parameters found.
 Leave Link  101 at Wed Oct  7 14:34:09 2020, MaxMem=  2684354560 cpu:               3.5 elap:               0.6
 (Enter /udrive/faculty/rpeverati/g16/g16/l103.exe)

 GradGradGradGradGradGradGradGradGradGradGradGradGradGradGradGradGradGrad
 Berny optimization.
 Optmz: redundant internal coordinate code flag= 1
 Initialization pass.
                           ----------------------------
                           !    Initial Parameters    !
                           ! (Angstroms and Degrees)  !
 --------------------------                            --------------------------
 ! Name  Definition              Value          Derivative Info.                !
 --------------------------------------------------------------------------------
 ! R1    R(1,2)                  1.5113         estimate D2E/DX2                !
 ! R2    R(1,4)                  1.0897         estimate D2E/DX2                !
 ! R3    R(1,5)                  1.0897         estimate D2E/DX2                !
 ! R4    R(1,6)                  1.093          estimate D2E/DX2                !
 ! R5    R(2,7)                  1.0876         estimate D2E/DX2                !
 ! R6    R(2,8)                  1.0876         estimate D2E/DX2                !
 ! R7    R(2,9)                  1.2945         estimate D2E/DX2                !
 ! R8    R(3,9)                  1.2956         estimate D2E/DX2                !
 ! R9    R(3,10)                 1.0213         estimate D2E/DX2                !
 ! R10   R(3,11)                 1.0213         estimate D2E/DX2                !
 ! A1    A(2,1,4)              111.1289         estimate D2E/DX2                !
 ! A2    A(2,1,5)              111.1291         estimate D2E/DX2                !
 ! A3    A(2,1,6)              111.1178         estimate D2E/DX2                !
 ! A4    A(4,1,5)              107.8011         estimate D2E/DX2                !
 ! A5    A(4,1,6)              107.7512         estimate D2E/DX2                !
 ! A6    A(5,1,6)              107.7509         estimate D2E/DX2                !
 ! A7    A(1,2,7)              114.806          estimate D2E/DX2                !
 ! A8    A(1,2,8)              114.8063         estimate D2E/DX2                !
 ! A9    A(1,2,9)              105.1311         estimate D2E/DX2                !
 ! A10   A(7,2,8)              111.1832         estimate D2E/DX2                !
 ! A11   A(7,2,9)              104.8269         estimate D2E/DX2                !
 ! A12   A(8,2,9)              104.8288         estimate D2E/DX2                !
 ! A13   A(9,3,10)              99.3002         estimate D2E/DX2                !
 ! A14   A(9,3,11)              99.3005         estimate D2E/DX2                !
 ! A15   A(10,3,11)            104.0346         estimate D2E/DX2                !
 ! A16   L(2,9,3,5,-1)         182.9059         estimate D2E/DX2                !
 ! A17   L(2,9,3,5,-2)         181.5726         estimate D2E/DX2                !
 ! D1    D(4,1,2,7)             54.623          estimate D2E/DX2                !
 ! D2    D(4,1,2,8)           -174.6717         estimate D2E/DX2                !
 ! D3    D(4,1,2,9)            -60.0232         estimate D2E/DX2                !
 ! D4    D(5,1,2,7)            174.6701         estimate D2E/DX2                !
 ! D5    D(5,1,2,8)            -54.6247         estimate D2E/DX2                !
 ! D6    D(5,1,2,9)             60.0239         estimate D2E/DX2                !
 ! D7    D(6,1,2,7)            -65.3536         estimate D2E/DX2                !
 ! D8    D(6,1,2,8)             65.3516         estimate D2E/DX2                !
 ! D9    D(6,1,2,9)           -179.9998         estimate D2E/DX2                !
 ! D10   D(1,2,3,10)           127.2114         estimate D2E/DX2                !
 ! D11   D(1,2,3,11)          -127.1723         estimate D2E/DX2                !
 ! D12   D(7,2,3,10)             5.451          estimate D2E/DX2                !
 ! D13   D(7,2,3,11)           111.0674         estimate D2E/DX2                !
 ! D14   D(8,2,3,10)          -111.0278         estimate D2E/DX2                !
 ! D15   D(8,2,3,11)            -5.4114         estimate D2E/DX2                !
 --------------------------------------------------------------------------------
 Maximum allowed force set to 1.00D+20.
 Trust Radius=1.00D-01 FncErr=1.00D-07 GrdErr=1.00D-06 EigMax=2.50D+02 EigMin=1.00D-04
 Number of steps in this run=     50 maximum allowed number of steps=    100.
 Search for a saddle point of order  1.
 GradGradGradGradGradGradGradGradGradGradGradGradGradGradGradGradGradGrad

 Leave Link  103 at Wed Oct  7 14:34:10 2020, MaxMem=  2684354560 cpu:               1.6 elap:               0.7
 (Enter /udrive/faculty/rpeverati/g16/g16/l202.exe)
                          Input orientation:                          
 ---------------------------------------------------------------------
 Center     Atomic      Atomic             Coordinates (Angstroms)
 Number     Number       Type             X           Y           Z
 ---------------------------------------------------------------------
      1          6           0       -1.485702   -0.448156   -0.000019
      2          6           0       -0.505042    0.701742    0.000029
      3          7           0        1.865159   -0.340167   -0.000057
      4          1           0       -1.354191   -1.076505   -0.880503
      5          1           0       -1.354159   -1.076611    0.880387
      6          1           0       -2.517026   -0.086173    0.000025
      7          1           0       -0.522224    1.316117   -0.897220
      8          1           0       -0.522205    1.316032    0.897336
      9          1           0        0.665049    0.147961   -0.000034
     10          1           0        2.246643    0.159717   -0.804804
     11          1           0        2.246442    0.159133    0.805154
 ---------------------------------------------------------------------
                    Distance matrix (angstroms):
                    1          2          3          4          5
     1  C    0.000000
     2  C    1.511277   0.000000
     3  N    3.352601   2.589098   0.000000
     4  H    1.089665   2.158368   3.417835   0.000000
     5  H    1.089667   2.158372   3.417827   1.760890   0.000000
     6  H    1.093006   2.160761   4.389540   1.763030   1.763027
     7  H    2.201344   1.087569   3.041016   2.533197   3.094697
     8  H    2.201348   1.087569   3.041023   3.094697   2.533214
     9  H    2.231834   1.294521   1.295583   2.520292   2.520301
    10  H    3.866211   2.917759   1.021290   3.807884   4.163431
    11  H    3.866006   2.917758   1.021294   4.163268   3.807499
                    6          7          8          9         10
     6  H    0.000000
     7  H    2.598211   0.000000
     8  H    2.598202   1.794556   0.000000
     9  H    3.190677   1.891863   1.891887   0.000000
    10  H    4.837433   3.002070   3.449763   1.774608   0.000000
    11  H    4.837255   3.449957   3.002053   1.774614   1.609958
                   11
    11  H    0.000000
 Stoichiometry    C2H8N(2)
 Framework group  C1[X(C2H8N)]
 Deg. of freedom    27
 Full point group                 C1      NOp   1
 Largest Abelian subgroup         C1      NOp   1
 Largest concise Abelian subgroup C1      NOp   1
                         Standard orientation:                         
 ---------------------------------------------------------------------
 Center     Atomic      Atomic             Coordinates (Angstroms)
 Number     Number       Type             X           Y           Z
 ---------------------------------------------------------------------
      1          6           0       -1.485701   -0.448157   -0.000019
      2          6           0       -0.505041    0.701741    0.000029
      3          7           0        1.865160   -0.340168   -0.000057
      4          1           0       -1.354190   -1.076506   -0.880503
      5          1           0       -1.354158   -1.076612    0.880387
      6          1           0       -2.517025   -0.086173    0.000025
      7          1           0       -0.522224    1.316116   -0.897220
      8          1           0       -0.522204    1.316031    0.897336
      9          1           0        0.665050    0.147961   -0.000034
     10          1           0        2.246644    0.159717   -0.804804
     11          1           0        2.246443    0.159132    0.805154
 ---------------------------------------------------------------------
 Rotational constants (GHZ):          24.9609656           4.8569038           4.3824954
 Leave Link  202 at Wed Oct  7 14:34:11 2020, MaxMem=  2684354560 cpu:               2.1 elap:               0.8
 (Enter /udrive/faculty/rpeverati/g16/g16/l301.exe)
 Standard basis: 6-31G(d) (5D, 7F)
 Ernie: Thresh=  0.10000D-02 Tol=  0.10000D-05 Strict=F.
 There are    61 symmetry adapted cartesian basis functions of A   symmetry.
 There are    58 symmetry adapted basis functions of A   symmetry.
    58 basis functions,   116 primitive gaussians,    61 cartesian basis functions
    14 alpha electrons       13 beta electrons
       nuclear repulsion energy        78.7849072939 Hartrees.
 IExCor= 1009 DFT=T Ex+Corr=PBE1PBE ExCW=0 ScaHFX=  0.250000
 ScaDFX=  0.750000  0.750000  1.000000  1.000000 ScalE2=  1.000000  1.000000
 IRadAn=      5 IRanWt=     -1 IRanGd=            0 ICorTp=0 IEmpDi=141
 NAtoms=   11 NActive=   11 NUniq=   11 SFac= 1.00D+00 NAtFMM=   60 NAOKFM=F Big=F
 Integral buffers will be    131072 words long.
 Raffenetti 2 integral format.
 Two-electron integral symmetry is turned on.
 R6Disp:  Grimme-D3(BJ) Dispersion energy=       -0.0044963559 Hartrees.
 Nuclear repulsion after empirical dispersion term =       78.7804109379 Hartrees.
 Leave Link  301 at Wed Oct  7 14:34:13 2020, MaxMem=  2684354560 cpu:               1.5 elap:               0.8
 (Enter /udrive/faculty/rpeverati/g16/g16/l302.exe)
 NPDir=0 NMtPBC=     1 NCelOv=     1 NCel=       1 NClECP=     1 NCelD=      1
         NCelK=      1 NCelE2=     1 NClLst=     1 CellRange=     0.0.
 One-electron integrals computed using PRISM.
 One-electron integral symmetry used in STVInt
 NBasis=    58 RedAO= T EigKep=  6.29D-03  NBF=    58
 NBsUse=    58 1.00D-06 EigRej= -1.00D+00 NBFU=    58
 Precomputing XC quadrature grid using
 IXCGrd= 4 IRadAn=           5 IRanWt=          -1 IRanGd=           0 AccXCQ= 0.00D+00.
 Generated NRdTot=       0 NPtTot=           0 NUsed=           0 NTot=          32
 NSgBfM=    61    61    61    61    61 MxSgAt=    11 MxSgA2=    11.
 Leave Link  302 at Wed Oct  7 14:34:14 2020, MaxMem=  2684354560 cpu:               8.8 elap:               1.4
 (Enter /udrive/faculty/rpeverati/g16/g16/l303.exe)
 DipDrv:  MaxL=1.
 Leave Link  303 at Wed Oct  7 14:34:16 2020, MaxMem=  2684354560 cpu:               5.0 elap:               1.3
 (Enter /udrive/faculty/rpeverati/g16/g16/l401.exe)
 SCF N**3 symmetry information disabled.
 ExpMin= 1.61D-01 ExpMax= 4.17D+03 ExpMxC= 6.27D+02 IAcc=3 IRadAn=         5 AccDes= 0.00D+00
 Harris functional with IExCor= 1009 and IRadAn=       5 diagonalized for initial guess.
 HarFok:  IExCor= 1009 AccDes= 0.00D+00 IRadAn=         5 IDoV= 1 UseB2=F ITyADJ=14
 ICtDFT=  3500011 ScaDFX=  1.000000  1.000000  1.000000  1.000000
 FoFCou: FMM=F IPFlag=           0 FMFlag=      100000 FMFlg1=           0
         NFxFlg=           0 DoJE=T BraDBF=F KetDBF=T FulRan=T
         wScrn=  0.000000 ICntrl=       500 IOpCl=  0 I1Cent=   200000004 NGrid=           0
         NMat0=    1 NMatS0=      1 NMatT0=    0 NMatD0=    1 NMtDS0=    0 NMtDT0=    0
 Petite list used in FoFCou.
 Harris En= -135.580525876138    
 JPrj=0 DoOrth=F DoCkMO=F.
 Initial guess <Sx>= 0.0000 <Sy>= 0.0000 <Sz>= 0.5000 <S**2>= 0.7500 S= 0.5000
 Leave Link  401 at Wed Oct  7 14:34:17 2020, MaxMem=  2684354560 cpu:               8.7 elap:               1.3
 (Enter /udrive/faculty/rpeverati/g16/g16/l502.exe)
 Keep R1 and R2 ints in memory in canonical form, NReq=13536655.
 FoFCou: FMM=F IPFlag=           0 FMFlag=           0 FMFlg1=           0
         NFxFlg=           0 DoJE=F BraDBF=F KetDBF=F FulRan=T
         wScrn=  0.000000 ICntrl=       600 IOpCl=  0 I1Cent=           0 NGrid=           0
         NMat0=    1 NMatS0=   1711 NMatT0=    0 NMatD0=    1 NMtDS0=    0 NMtDT0=    0
 Symmetry not used in FoFCou.
 Two-electron integral symmetry not used.
 UHF open shell SCF:
 Using DIIS extrapolation, IDIIS=  1040.
 NGot=  2684354560 LenX=  2681416189 LenY=  2681412027
 Requested convergence on RMS density matrix=1.00D-08 within 120 cycles.
 Requested convergence on MAX density matrix=1.00D-06.
 Requested convergence on             energy=1.00D-06.
 No special actions if energy rises.
 Integral accuracy reduced to 1.0D-05 until final iterations.

 Cycle   1  Pass 0  IDiag  1:
 E= -135.380685694378    
 DIIS: error= 5.35D-02 at cycle   1 NSaved=   1.
 NSaved= 1 IEnMin= 1 EnMin= -135.380685694378     IErMin= 1 ErrMin= 5.35D-02
 ErrMax= 5.35D-02  0.00D+00 EMaxC= 1.00D-01 BMatC= 4.80D-01 BMatP= 4.80D-01
 IDIUse=3 WtCom= 4.65D-01 WtEn= 5.35D-01
 Coeff-Com:  0.100D+01
 Coeff-En:   0.100D+01
 Coeff:      0.100D+01
 Gap=     0.247 Goal=   None    Shift=    0.000
 Gap=     0.207 Goal=   None    Shift=    0.000
 GapD=    0.207 DampG=1.000 DampE=0.500 DampFc=0.5000 IDamp=-1.
 Damping current iteration by 5.00D-01
 RMSDP=1.19D-02 MaxDP=1.29D-01              OVMax= 1.60D-01

 Cycle   2  Pass 0  IDiag  1:
 E= -135.443870681827     Delta-E=       -0.063184987449 Rises=F Damp=T
 DIIS: error= 5.44D-03 at cycle   2 NSaved=   2.
 NSaved= 2 IEnMin= 2 EnMin= -135.443870681827     IErMin= 2 ErrMin= 5.44D-03
 ErrMax= 5.44D-03  0.00D+00 EMaxC= 1.00D-01 BMatC= 1.22D-02 BMatP= 4.80D-01
 IDIUse=3 WtCom= 9.46D-01 WtEn= 5.44D-02
 Coeff-Com:  0.341D-01 0.966D+00
 Coeff-En:   0.266D-01 0.973D+00
 Coeff:      0.337D-01 0.966D+00
 Gap=     0.317 Goal=   None    Shift=    0.000
 Gap=     0.200 Goal=   None    Shift=    0.000
 RMSDP=1.57D-03 MaxDP=1.53D-02 DE=-6.32D-02 OVMax= 7.60D-02

 Cycle   3  Pass 0  IDiag  1:
 E= -135.512040571374     Delta-E=       -0.068169889548 Rises=F Damp=F
 DIIS: error= 3.05D-03 at cycle   3 NSaved=   3.
 NSaved= 3 IEnMin= 3 EnMin= -135.512040571374     IErMin= 3 ErrMin= 3.05D-03
 ErrMax= 3.05D-03  0.00D+00 EMaxC= 1.00D-01 BMatC= 1.25D-03 BMatP= 1.22D-02
 IDIUse=3 WtCom= 9.70D-01 WtEn= 3.05D-02
 Coeff-Com: -0.192D-02 0.126D+00 0.876D+00
 Coeff-En:   0.000D+00 0.000D+00 0.100D+01
 Coeff:     -0.187D-02 0.122D+00 0.880D+00
 Gap=     0.322 Goal=   None    Shift=    0.000
 Gap=     0.197 Goal=   None    Shift=    0.000
 RMSDP=5.47D-04 MaxDP=8.63D-03 DE=-6.82D-02 OVMax= 1.70D-02

 Cycle   4  Pass 0  IDiag  1:
 E= -135.512153234344     Delta-E=       -0.000112662969 Rises=F Damp=F
 DIIS: error= 3.30D-03 at cycle   4 NSaved=   4.
 NSaved= 4 IEnMin= 4 EnMin= -135.512153234344     IErMin= 3 ErrMin= 3.05D-03
 ErrMax= 3.30D-03  0.00D+00 EMaxC= 1.00D-01 BMatC= 1.29D-03 BMatP= 1.25D-03
 IDIUse=3 WtCom= 9.67D-01 WtEn= 3.30D-02
 Coeff-Com: -0.162D-02-0.973D-02 0.508D+00 0.504D+00
 Coeff-En:   0.000D+00 0.000D+00 0.404D+00 0.596D+00
 Coeff:     -0.157D-02-0.941D-02 0.504D+00 0.507D+00
 Gap=     0.322 Goal=   None    Shift=    0.000
 Gap=     0.202 Goal=   None    Shift=    0.000
 RMSDP=3.62D-04 MaxDP=5.35D-03 DE=-1.13D-04 OVMax= 9.64D-03

 Cycle   5  Pass 0  IDiag  1:
 E= -135.512469572269     Delta-E=       -0.000316337925 Rises=F Damp=F
 DIIS: error= 7.19D-04 at cycle   5 NSaved=   5.
 NSaved= 5 IEnMin= 5 EnMin= -135.512469572269     IErMin= 5 ErrMin= 7.19D-04
 ErrMax= 7.19D-04  0.00D+00 EMaxC= 1.00D-01 BMatC= 6.73D-05 BMatP= 1.25D-03
 IDIUse=3 WtCom= 9.93D-01 WtEn= 7.19D-03
 Coeff-Com: -0.239D-03-0.284D-01 0.207D-01 0.175D+00 0.833D+00
 Coeff-En:   0.000D+00 0.000D+00 0.000D+00 0.000D+00 0.100D+01
 Coeff:     -0.238D-03-0.281D-01 0.206D-01 0.173D+00 0.834D+00
 Gap=     0.323 Goal=   None    Shift=    0.000
 Gap=     0.202 Goal=   None    Shift=    0.000
 RMSDP=8.97D-05 MaxDP=1.66D-03 DE=-3.16D-04 OVMax= 2.59D-03

 Cycle   6  Pass 0  IDiag  1:
 E= -135.512493388945     Delta-E=       -0.000023816676 Rises=F Damp=F
 DIIS: error= 1.62D-04 at cycle   6 NSaved=   6.
 NSaved= 6 IEnMin= 6 EnMin= -135.512493388945     IErMin= 6 ErrMin= 1.62D-04
 ErrMax= 1.62D-04  0.00D+00 EMaxC= 1.00D-01 BMatC= 3.70D-06 BMatP= 6.73D-05
 IDIUse=3 WtCom= 9.98D-01 WtEn= 1.62D-03
 Coeff-Com: -0.232D-03 0.133D-02-0.561D-01-0.626D-01 0.130D-01 0.110D+01
 Coeff-En:   0.000D+00 0.000D+00 0.000D+00 0.000D+00 0.000D+00 0.100D+01
 Coeff:     -0.231D-03 0.133D-02-0.561D-01-0.625D-01 0.130D-01 0.110D+01
 Gap=     0.323 Goal=   None    Shift=    0.000
 Gap=     0.202 Goal=   None    Shift=    0.000
 RMSDP=3.89D-05 MaxDP=6.71D-04 DE=-2.38D-05 OVMax= 7.09D-04

 Cycle   7  Pass 0  IDiag  1:
 E= -135.512495398837     Delta-E=       -0.000002009892 Rises=F Damp=F
 DIIS: error= 5.17D-05 at cycle   7 NSaved=   7.
 NSaved= 7 IEnMin= 7 EnMin= -135.512495398837     IErMin= 7 ErrMin= 5.17D-05
 ErrMax= 5.17D-05  0.00D+00 EMaxC= 1.00D-01 BMatC= 5.01D-07 BMatP= 3.70D-06
 IDIUse=1 WtCom= 1.00D+00 WtEn= 0.00D+00
 Coeff-Com: -0.965D-04 0.206D-02-0.209D-01-0.316D-01-0.388D-01 0.400D+00
 Coeff-Com:  0.689D+00
 Coeff:     -0.965D-04 0.206D-02-0.209D-01-0.316D-01-0.388D-01 0.400D+00
 Coeff:      0.689D+00
 Gap=     0.323 Goal=   None    Shift=    0.000
 Gap=     0.202 Goal=   None    Shift=    0.000
 RMSDP=7.30D-06 MaxDP=9.53D-05 DE=-2.01D-06 OVMax= 1.57D-04

 Initial convergence to 1.0D-05 achieved.  Increase integral accuracy.
 Cycle   8  Pass 1  IDiag  1:
 E= -135.512505573974     Delta-E=       -0.000010175137 Rises=F Damp=F
 DIIS: error= 1.92D-05 at cycle   1 NSaved=   1.
 NSaved= 1 IEnMin= 1 EnMin= -135.512505573974     IErMin= 1 ErrMin= 1.92D-05
 ErrMax= 1.92D-05  0.00D+00 EMaxC= 1.00D-01 BMatC= 5.14D-08 BMatP= 5.14D-08
 IDIUse=1 WtCom= 1.00D+00 WtEn= 0.00D+00
 Coeff-Com:  0.100D+01
 Coeff:      0.100D+01
 Gap=     0.323 Goal=   None    Shift=    0.000
 Gap=     0.202 Goal=   None    Shift=    0.000
 RMSDP=7.30D-06 MaxDP=9.53D-05 DE=-1.02D-05 OVMax= 6.31D-05

 Cycle   9  Pass 1  IDiag  1:
 E= -135.512505587502     Delta-E=       -0.000000013528 Rises=F Damp=F
 DIIS: error= 1.58D-05 at cycle   2 NSaved=   2.
 NSaved= 2 IEnMin= 2 EnMin= -135.512505587502     IErMin= 2 ErrMin= 1.58D-05
 ErrMax= 1.58D-05  0.00D+00 EMaxC= 1.00D-01 BMatC= 4.02D-08 BMatP= 5.14D-08
 IDIUse=1 WtCom= 1.00D+00 WtEn= 0.00D+00
 Coeff-Com:  0.462D+00 0.538D+00
 Coeff:      0.462D+00 0.538D+00
 Gap=     0.323 Goal=   None    Shift=    0.000
 Gap=     0.202 Goal=   None    Shift=    0.000
 RMSDP=1.62D-06 MaxDP=2.36D-05 DE=-1.35D-08 OVMax= 3.65D-05

 Cycle  10  Pass 1  IDiag  1:
 E= -135.512505598294     Delta-E=       -0.000000010792 Rises=F Damp=F
 DIIS: error= 4.37D-06 at cycle   3 NSaved=   3.
 NSaved= 3 IEnMin= 3 EnMin= -135.512505598294     IErMin= 3 ErrMin= 4.37D-06
 ErrMax= 4.37D-06  0.00D+00 EMaxC= 1.00D-01 BMatC= 2.13D-09 BMatP= 4.02D-08
 IDIUse=1 WtCom= 1.00D+00 WtEn= 0.00D+00
 Coeff-Com: -0.319D+00-0.124D+00 0.144D+01
 Coeff:     -0.319D+00-0.124D+00 0.144D+01
 Gap=     0.323 Goal=   None    Shift=    0.000
 Gap=     0.202 Goal=   None    Shift=    0.000
 RMSDP=1.28D-06 MaxDP=1.45D-05 DE=-1.08D-08 OVMax= 3.20D-05

 Cycle  11  Pass 1  IDiag  1:
 E= -135.512505600028     Delta-E=       -0.000000001735 Rises=F Damp=F
 DIIS: error= 7.53D-07 at cycle   4 NSaved=   4.
 NSaved= 4 IEnMin= 4 EnMin= -135.512505600028     IErMin= 4 ErrMin= 7.53D-07
 ErrMax= 7.53D-07  0.00D+00 EMaxC= 1.00D-01 BMatC= 9.89D-11 BMatP= 2.13D-09
 IDIUse=1 WtCom= 1.00D+00 WtEn= 0.00D+00
 Coeff-Com: -0.101D+00-0.502D-01 0.367D+00 0.784D+00
 Coeff:     -0.101D+00-0.502D-01 0.367D+00 0.784D+00
 Gap=     0.323 Goal=   None    Shift=    0.000
 Gap=     0.202 Goal=   None    Shift=    0.000
 RMSDP=1.69D-07 MaxDP=2.08D-06 DE=-1.73D-09 OVMax= 5.06D-06

 Cycle  12  Pass 1  IDiag  1:
 E= -135.512505600066     Delta-E=       -0.000000000038 Rises=F Damp=F
 DIIS: error= 5.07D-07 at cycle   5 NSaved=   5.
 NSaved= 5 IEnMin= 5 EnMin= -135.512505600066     IErMin= 5 ErrMin= 5.07D-07
 ErrMax= 5.07D-07  0.00D+00 EMaxC= 1.00D-01 BMatC= 2.20D-11 BMatP= 9.89D-11
 IDIUse=1 WtCom= 1.00D+00 WtEn= 0.00D+00
 Coeff-Com:  0.145D-02-0.246D-02-0.402D-01 0.271D+00 0.770D+00
 Coeff:      0.145D-02-0.246D-02-0.402D-01 0.271D+00 0.770D+00
 Gap=     0.323 Goal=   None    Shift=    0.000
 Gap=     0.202 Goal=   None    Shift=    0.000
 RMSDP=6.98D-08 MaxDP=1.17D-06 DE=-3.81D-11 OVMax= 1.78D-06

 Cycle  13  Pass 1  IDiag  1:
 E= -135.512505600072     Delta-E=       -0.000000000006 Rises=F Damp=F
 DIIS: error= 2.86D-07 at cycle   6 NSaved=   6.
 NSaved= 6 IEnMin= 6 EnMin= -135.512505600072     IErMin= 6 ErrMin= 2.86D-07
 ErrMax= 2.86D-07  0.00D+00 EMaxC= 1.00D-01 BMatC= 7.96D-12 BMatP= 2.20D-11
 IDIUse=1 WtCom= 1.00D+00 WtEn= 0.00D+00
 Coeff-Com:  0.190D-01 0.839D-02-0.863D-01-0.942D-02 0.424D+00 0.645D+00
 Coeff:      0.190D-01 0.839D-02-0.863D-01-0.942D-02 0.424D+00 0.645D+00
 Gap=     0.323 Goal=   None    Shift=    0.000
 Gap=     0.202 Goal=   None    Shift=    0.000
 RMSDP=3.44D-08 MaxDP=6.32D-07 DE=-5.71D-12 OVMax= 1.85D-06

 Cycle  14  Pass 1  IDiag  1:
 E= -135.512505600075     Delta-E=       -0.000000000003 Rises=F Damp=F
 DIIS: error= 5.46D-08 at cycle   7 NSaved=   7.
 NSaved= 7 IEnMin= 7 EnMin= -135.512505600075     IErMin= 7 ErrMin= 5.46D-08
 ErrMax= 5.46D-08  0.00D+00 EMaxC= 1.00D-01 BMatC= 7.44D-13 BMatP= 7.96D-12
 IDIUse=1 WtCom= 1.00D+00 WtEn= 0.00D+00
 Coeff-Com:  0.573D-02 0.321D-02-0.217D-01-0.433D-01 0.275D-01 0.244D+00
 Coeff-Com:  0.784D+00
 Coeff:      0.573D-02 0.321D-02-0.217D-01-0.433D-01 0.275D-01 0.244D+00
 Coeff:      0.784D+00
 Gap=     0.323 Goal=   None    Shift=    0.000
 Gap=     0.202 Goal=   None    Shift=    0.000
 RMSDP=1.38D-08 MaxDP=1.99D-07 DE=-2.98D-12 OVMax= 4.53D-07

 Cycle  15  Pass 1  IDiag  1:
 E= -135.512505600075     Delta-E=       -0.000000000000 Rises=F Damp=F
 DIIS: error= 2.33D-08 at cycle   8 NSaved=   8.
 NSaved= 8 IEnMin= 8 EnMin= -135.512505600075     IErMin= 8 ErrMin= 2.33D-08
 ErrMax= 2.33D-08  0.00D+00 EMaxC= 1.00D-01 BMatC= 1.15D-13 BMatP= 7.44D-13
 IDIUse=1 WtCom= 1.00D+00 WtEn= 0.00D+00
 Coeff-Com: -0.241D-02-0.638D-03 0.125D-01-0.181D-01-0.878D-01-0.148D-01
 Coeff-Com:  0.295D+00 0.816D+00
 Coeff:     -0.241D-02-0.638D-03 0.125D-01-0.181D-01-0.878D-01-0.148D-01
 Coeff:      0.295D+00 0.816D+00
 Gap=     0.323 Goal=   None    Shift=    0.000
 Gap=     0.202 Goal=   None    Shift=    0.000
 RMSDP=6.82D-09 MaxDP=1.03D-07 DE=-3.13D-13 OVMax= 3.98D-07

 SCF Done:  E(UPBE1PBE) =  -135.512505600     A.U. after   15 cycles
            NFock= 15  Conv=0.68D-08     -V/T= 2.0051
 <Sx>= 0.0000 <Sy>= 0.0000 <Sz>= 0.5000 <S**2>= 0.7589 S= 0.5044
 <L.S>= 0.000000000000E+00
 KE= 1.348251302558D+02 PE=-4.723364613860D+02 EE= 1.232184145922D+02
 Annihilation of the first spin contaminant:
 S**2 before annihilation     0.7589,   after     0.7500
 Leave Link  502 at Wed Oct  7 14:34:30 2020, MaxMem=  2684354560 cpu:             122.3 elap:              12.2
 (Enter /udrive/faculty/rpeverati/g16/g16/l508.exe)
 QCSCF skips out because SCF is already converged.
 Leave Link  508 at Wed Oct  7 14:34:31 2020, MaxMem=  2684354560 cpu:               0.5 elap:               0.3
 (Enter /udrive/faculty/rpeverati/g16/g16/l601.exe)
 Copying SCF densities to generalized density rwf, IOpCl= 1 IROHF=0.

 **********************************************************************

            Population analysis using the SCF density.

 **********************************************************************

 Orbital symmetries:
 Alpha Orbitals:
       Occupied  (A) (A) (A) (A) (A) (A) (A) (A) (A) (A) (A) (A)
                 (A) (A)
       Virtual   (A) (A) (A) (A) (A) (A) (A) (A) (A) (A) (A) (A)
                 (A) (A) (A) (A) (A) (A) (A) (A) (A) (A) (A) (A)
                 (A) (A) (A) (A) (A) (A) (A) (A) (A) (A) (A) (A)
                 (A) (A) (A) (A) (A) (A) (A) (A)
 Beta  Orbitals:
       Occupied  (A) (A) (A) (A) (A) (A) (A) (A) (A) (A) (A) (A)
                 (A)
       Virtual   (A) (A) (A) (A) (A) (A) (A) (A) (A) (A) (A) (A)
                 (A) (A) (A) (A) (A) (A) (A) (A) (A) (A) (A) (A)
                 (A) (A) (A) (A) (A) (A) (A) (A) (A) (A) (A) (A)
                 (A) (A) (A) (A) (A) (A) (A) (A) (A)
 The electronic state is 2-A.
 Alpha  occ. eigenvalues --  -14.38115 -10.22752 -10.21280  -0.87069  -0.77841
 Alpha  occ. eigenvalues --   -0.63499  -0.47153  -0.47083  -0.45365  -0.39953
 Alpha  occ. eigenvalues --   -0.38472  -0.35998  -0.30045  -0.22400
 Alpha virt. eigenvalues --    0.09917   0.13794   0.16449   0.16721   0.18456
 Alpha virt. eigenvalues --    0.18939   0.21029   0.24974   0.31955   0.51295
 Alpha virt. eigenvalues --    0.53904   0.56921   0.62040   0.62545   0.69153
 Alpha virt. eigenvalues --    0.74792   0.79658   0.80039   0.90212   0.90286
 Alpha virt. eigenvalues --    0.93419   0.93687   0.96004   0.97008   0.98545
 Alpha virt. eigenvalues --    1.02241   1.20885   1.41986   1.50059   1.54753
 Alpha virt. eigenvalues --    1.59923   1.67911   1.69464   1.82978   1.95472
 Alpha virt. eigenvalues --    1.96340   2.03326   2.13925   2.26847   2.33214
 Alpha virt. eigenvalues --    2.38038   2.40656   2.44531   2.62497
  Beta  occ. eigenvalues --  -14.36759 -10.21810 -10.21310  -0.83600  -0.76588
  Beta  occ. eigenvalues --   -0.62100  -0.46265  -0.44869  -0.44391  -0.38404
  Beta  occ. eigenvalues --   -0.37393  -0.35725  -0.27289
  Beta virt. eigenvalues --   -0.07052   0.10560   0.14210   0.16808   0.17328
  Beta virt. eigenvalues --    0.18719   0.19244   0.21515   0.25632   0.34321
  Beta virt. eigenvalues --    0.51811   0.54113   0.57551   0.62689   0.65651
  Beta virt. eigenvalues --    0.69985   0.79021   0.79918   0.81129   0.90382
  Beta virt. eigenvalues --    0.90661   0.94089   0.94264   0.96584   0.98283
  Beta virt. eigenvalues --    0.99631   1.02505   1.21721   1.43229   1.51444
  Beta virt. eigenvalues --    1.56407   1.61501   1.72094   1.72257   1.85909
  Beta virt. eigenvalues --    1.97017   1.97155   2.04987   2.16653   2.27504
  Beta virt. eigenvalues --    2.33781   2.38585   2.44108   2.45246   2.63671
          Condensed to atoms (all electrons):
               1          2          3          4          5          6
     1  C    5.115682   0.339222   0.003473   0.385487   0.385487   0.380208
     2  C    0.339222   5.429556  -0.120508  -0.035552  -0.035552  -0.036163
     3  N    0.003473  -0.120508   7.212953   0.001201   0.001201  -0.000068
     4  H    0.385487  -0.035552   0.001201   0.521179  -0.027144  -0.030324
     5  H    0.385487  -0.035552   0.001201  -0.027144   0.521187  -0.030324
     6  H    0.380208  -0.036163  -0.000068  -0.030324  -0.030324   0.536914
     7  H   -0.035100   0.370261   0.001467  -0.003211   0.004248  -0.002557
     8  H   -0.035101   0.370259   0.001467   0.004248  -0.003210  -0.002557
     9  H   -0.026369   0.209729   0.146795  -0.003992  -0.003992   0.003077
    10  H    0.000006   0.010615   0.278232  -0.000012  -0.000025  -0.000005
    11  H    0.000006   0.010615   0.278232  -0.000025  -0.000011  -0.000005
               7          8          9         10         11
     1  C   -0.035100  -0.035101  -0.026369   0.000006   0.000006
     2  C    0.370261   0.370259   0.209729   0.010615   0.010615
     3  N    0.001467   0.001467   0.146795   0.278232   0.278232
     4  H   -0.003211   0.004248  -0.003992  -0.000012  -0.000025
     5  H    0.004248  -0.003210  -0.003992  -0.000025  -0.000011
     6  H   -0.002557  -0.002557   0.003077  -0.000005  -0.000005
     7  H    0.529274  -0.029911  -0.017599  -0.000541  -0.000012
     8  H   -0.029911   0.529282  -0.017598  -0.000012  -0.000541
     9  H   -0.017599  -0.017598   0.488674  -0.026987  -0.026987
    10  H   -0.000541  -0.000012  -0.026987   0.451751  -0.027645
    11  H   -0.000012  -0.000541  -0.026987  -0.027645   0.451752
          Atomic-Atomic Spin Densities.
               1          2          3          4          5          6
     1  C   -0.013773  -0.041516   0.006963   0.004337   0.004337   0.005451
     2  C   -0.041516   0.708956  -0.127934  -0.005437  -0.005438  -0.007926
     3  N    0.006963  -0.127934   0.802344   0.000898   0.000898  -0.000275
     4  H    0.004337  -0.005437   0.000898   0.006647   0.001340  -0.004014
     5  H    0.004337  -0.005438   0.000898   0.001340   0.006649  -0.004014
     6  H    0.005451  -0.007926  -0.000275  -0.004014  -0.004014   0.042311
     7  H    0.003589  -0.017701   0.004290   0.000765   0.000168  -0.001445
     8  H    0.003588  -0.017699   0.004290   0.000168   0.000765  -0.001445
     9  H    0.000257   0.040400  -0.039456  -0.000015  -0.000015  -0.000069
    10  H   -0.000223   0.005095  -0.014157  -0.000044  -0.000017   0.000008
    11  H   -0.000224   0.005095  -0.014157  -0.000017  -0.000044   0.000008
               7          8          9         10         11
     1  C    0.003589   0.003588   0.000257  -0.000223  -0.000224
     2  C   -0.017701  -0.017699   0.040400   0.005095   0.005095
     3  N    0.004290   0.004290  -0.039456  -0.014157  -0.014157
     4  H    0.000765   0.000168  -0.000015  -0.000044  -0.000017
     5  H    0.000168   0.000765  -0.000015  -0.000017  -0.000044
     6  H   -0.001445  -0.001445  -0.000069   0.000008   0.000008
     7  H   -0.012982   0.003593   0.002760  -0.000337  -0.000157
     8  H    0.003593  -0.012986   0.002761  -0.000157  -0.000337
     9  H    0.002760   0.002761  -0.112793   0.003877   0.003877
    10  H   -0.000337  -0.000157   0.003877  -0.015913   0.003425
    11  H   -0.000157  -0.000337   0.003877   0.003425  -0.015913
 Mulliken charges and spin densities:
               1          2
     1  C   -0.513002  -0.027215
     2  C   -0.512483   0.535892
     3  N   -0.804445   0.623703
     4  H    0.188142   0.004627
     5  H    0.188135   0.004628
     6  H    0.181804   0.028590
     7  H    0.183679  -0.017459
     8  H    0.183675  -0.017460
     9  H    0.275249  -0.098416
    10  H    0.314623  -0.018445
    11  H    0.314621  -0.018445
 Sum of Mulliken charges =  -0.00000   1.00000
 Mulliken charges and spin densities with hydrogens summed into heavy atoms:
               1          2
     1  C    0.045080   0.010630
     2  C    0.130120   0.402557
     3  N   -0.175200   0.586812
 Electronic spatial extent (au):  <R**2>=            316.6544
 Charge=             -0.0000 electrons
 Dipole moment (field-independent basis, Debye):
    X=             -0.1487    Y=              1.7804    Z=              0.0007  Tot=              1.7866
 Quadrupole moment (field-independent basis, Debye-Ang):
   XX=            -20.1449   YY=            -23.2358   ZZ=            -19.8928
   XY=              3.6076   XZ=              0.0013   YZ=             -0.0010
 Traceless Quadrupole moment (field-independent basis, Debye-Ang):
   XX=              0.9463   YY=             -2.1446   ZZ=              1.1984
   XY=              3.6076   XZ=              0.0013   YZ=             -0.0010
 Octapole moment (field-independent basis, Debye-Ang**2):
  XXX=              8.0510  YYY=              1.7004  ZZZ=              0.0012  XYY=             -1.9285
  XXY=              7.0996  XXZ=              0.0023  XZZ=              3.9138  YZZ=              0.6204
  YYZ=              0.0002  XYZ=             -0.0020
 Hexadecapole moment (field-independent basis, Debye-Ang**3):
 XXXX=           -282.2390 YYYY=            -76.4061 ZZZZ=            -36.8419 XXXY=             13.7303
 XXXZ=              0.0039 YYYX=              4.0516 YYYZ=             -0.0013 ZZZX=              0.0028
 ZZZY=             -0.0006 XXYY=            -69.5825 XXZZ=            -50.4408 YYZZ=            -16.6417
 XXYZ=             -0.0044 YYXZ=              0.0004 ZZXY=              1.6553
 N-N= 7.878041093795D+01 E-N=-4.723364597930D+02  KE= 1.348251302558D+02
                          Isotropic Fermi Contact Couplings
        Atom                 a.u.       MegaHertz       Gauss      10(-4) cm-1
     1  C(13)             -0.01052     -11.83162      -4.22182      -3.94660
     2  C(13)              0.17432     195.97279      69.92797      65.36949
     3  N(14)              0.11273      36.42331      12.99674      12.14951
     4  H(1)               0.00234      10.44571       3.72729       3.48431
     5  H(1)               0.00234      10.44712       3.72779       3.48478
     6  H(1)               0.01494      66.76209      23.82237      22.26944
     7  H(1)              -0.00533     -23.81648      -8.49831      -7.94432
     8  H(1)              -0.00533     -23.81817      -8.49892      -7.94489
     9  H(1)              -0.03031    -135.47125     -48.33951     -45.18834
    10  H(1)              -0.00890     -39.78980     -14.19799     -13.27245
    11  H(1)              -0.00890     -39.78975     -14.19797     -13.27243
 --------------------------------------------------------
       Center         ----  Spin Dipole Couplings  ----
                      3XX-RR        3YY-RR        3ZZ-RR
 --------------------------------------------------------
     1   Atom        0.020911     -0.006604     -0.014307
     2   Atom        0.435739     -0.143256     -0.292483
     3   Atom        0.764036     -0.090515     -0.673521
     4   Atom        0.001308      0.002905     -0.004213
     5   Atom        0.001308      0.002906     -0.004214
     6   Atom        0.008183     -0.001354     -0.006829
     7   Atom       -0.008735     -0.007345      0.016080
     8   Atom       -0.008735     -0.007351      0.016086
     9   Atom        0.182820     -0.067269     -0.115550
    10   Atom       -0.006653     -0.021621      0.028274
    11   Atom       -0.006676     -0.021698      0.028373
 --------------------------------------------------------
                        XY            XZ            YZ
 --------------------------------------------------------
     1   Atom        0.010919      0.000000      0.000000
     2   Atom       -0.334000     -0.000021      0.000010
     3   Atom       -0.933259     -0.000158      0.000095
     4   Atom        0.006113      0.004289      0.005499
     5   Atom        0.006113     -0.004288     -0.005498
     6   Atom        0.002296     -0.000000      0.000000
     7   Atom       -0.013279     -0.000636     -0.034706
     8   Atom       -0.013278      0.000635      0.034704
     9   Atom       -0.120124     -0.000007      0.000003
    10   Atom        0.002349     -0.044489     -0.052665
    11   Atom        0.002303      0.044481      0.052629
 --------------------------------------------------------


 ---------------------------------------------------------------------------------
              Anisotropic Spin Dipole Couplings in Principal Axis System
 ---------------------------------------------------------------------------------

       Atom             a.u.   MegaHertz   Gauss  10(-4) cm-1        Axes

              Baa    -0.0143    -1.920    -0.685    -0.640  0.0000 -0.0000  1.0000
     1 C(13)  Bbb    -0.0104    -1.397    -0.498    -0.466 -0.3292  0.9443  0.0000
              Bcc     0.0247     3.317     1.184     1.106  0.9443  0.3292  0.0000
 
              Baa    -0.2958   -39.688   -14.162   -13.239  0.4153  0.9097  0.0000
     2 C(13)  Bbb    -0.2925   -39.248   -14.005   -13.092  0.0000 -0.0000  1.0000
              Bcc     0.5882    78.936    28.167    26.330  0.9097 -0.4153 -0.0000
 
              Baa    -0.6897   -26.599    -9.491    -8.872  0.5402  0.8415  0.0004
     3 N(14)  Bbb    -0.6735   -25.976    -9.269    -8.665 -0.0001 -0.0004  1.0000
              Bcc     1.3632    52.575    18.760    17.537  0.8415 -0.5402 -0.0001
 
              Baa    -0.0074    -3.928    -1.402    -1.310 -0.1831 -0.3772  0.9078
     4 H(1)   Bbb    -0.0040    -2.144    -0.765    -0.715  0.7831 -0.6142 -0.0973
              Bcc     0.0114     6.073     2.167     2.026  0.5943  0.6932  0.4079
 
              Baa    -0.0074    -3.928    -1.402    -1.310  0.1831  0.3771  0.9079
     5 H(1)   Bbb    -0.0040    -2.144    -0.765    -0.715  0.7831 -0.6142  0.0972
              Bcc     0.0114     6.073     2.167     2.026  0.5943  0.6932 -0.4078
 
              Baa    -0.0068    -3.644    -1.300    -1.215  0.0000 -0.0001  1.0000
     6 H(1)   Bbb    -0.0019    -1.002    -0.358    -0.334 -0.2225  0.9749  0.0001
              Bcc     0.0087     4.646     1.658     1.550  0.9749  0.2225 -0.0000
 
              Baa    -0.0368   -19.638    -7.007    -6.550  0.3769  0.7723  0.5114
     7 H(1)   Bbb    -0.0053    -2.804    -1.000    -0.935  0.9147 -0.2236 -0.3365
              Bcc     0.0421    22.441     8.008     7.486  0.1455 -0.5946  0.7907
 
              Baa    -0.0368   -19.638    -7.007    -6.550  0.3769  0.7723 -0.5113
     8 H(1)   Bbb    -0.0053    -2.804    -1.000    -0.935  0.9147 -0.2237  0.3365
              Bcc     0.0421    22.441     8.008     7.486 -0.1455  0.5945  0.7908
 
              Baa    -0.1156   -61.689   -22.012   -20.577  0.3734  0.9277 -0.0067
     9 H(1)   Bbb    -0.1156   -61.652   -21.999   -20.565  0.0025  0.0062  1.0000
              Bcc     0.2312   123.342    44.011    41.142  0.9277 -0.3734 -0.0000
 
              Baa    -0.0652   -34.763   -12.404   -11.596  0.4203  0.6901  0.5892
    10 H(1)   Bbb    -0.0146    -7.816    -2.789    -2.607  0.8026 -0.5856  0.1133
              Bcc     0.0798    42.579    15.193    14.203 -0.4232 -0.4252  0.8000
 
              Baa    -0.0652   -34.763   -12.404   -11.596  0.4205  0.6905 -0.5885
    11 H(1)   Bbb    -0.0146    -7.816    -2.789    -2.607  0.8026 -0.5856 -0.1136
              Bcc     0.0798    42.578    15.193    14.203  0.4230  0.4246  0.8004
 

 ---------------------------------------------------------------------------------

 No NMR shielding tensors so no spin-rotation constants.
 Leave Link  601 at Wed Oct  7 14:34:32 2020, MaxMem=  2684354560 cpu:               9.2 elap:               1.3
 (Enter /udrive/faculty/rpeverati/g16/g16/l701.exe)
 ... and contract with generalized density number  0.
 Compute integral first derivatives.
 R6Disp: Adding Grimme-D3(BJ) dispersion energy 1st derivatives to the gradient.
 Leave Link  701 at Wed Oct  7 14:34:34 2020, MaxMem=  2684354560 cpu:               8.4 elap:               1.2
 (Enter /udrive/faculty/rpeverati/g16/g16/l702.exe)
 L702 exits ... SP integral derivatives will be done elsewhere.
 Leave Link  702 at Wed Oct  7 14:34:35 2020, MaxMem=  2684354560 cpu:               1.4 elap:               0.5
 (Enter /udrive/faculty/rpeverati/g16/g16/l703.exe)
 Integral derivatives from FoFJK, PRISM(SPDF).
 Compute integral first derivatives, UseDBF=F ICtDFT=           0.
 Calling FoFJK, ICntrl=      2127 FMM=F ISym2X=0 I1Cent= 0 IOpClX= 1 NMat=1 NMatS=1 NMatT=0.
 FoFJK:  IHMeth= 1 ICntrl=    2127 DoSepK=F KAlg= 0 I1Cent=           0 FoldK=F
 IRaf=         0 NMat=       1 IRICut=       1 DoRegI=T DoRafI=F ISym2E= 0 IDoP0=0 IntGTp=1.
 FoFCou: FMM=F IPFlag=           0 FMFlag=      100000 FMFlg1=         800
         NFxFlg=           0 DoJE=F BraDBF=F KetDBF=F FulRan=T
         wScrn=  0.000000 ICntrl=      2127 IOpCl=  1 I1Cent=           0 NGrid=           0
         NMat0=    1 NMatS0=      1 NMatT0=    0 NMatD0=    1 NMtDS0=    0 NMtDT0=    0
 Symmetry not used in FoFCou.
 Leave Link  703 at Wed Oct  7 14:34:37 2020, MaxMem=  2684354560 cpu:              17.9 elap:               1.9
 (Enter /udrive/faculty/rpeverati/g16/g16/l716.exe)
 Dipole        =-5.84897613D-02 7.00465615D-01 2.64137786D-04
 ***** Axes restored to original set *****
 -------------------------------------------------------------------
 Center     Atomic                   Forces (Hartrees/Bohr)
 Number     Number              X              Y              Z
 -------------------------------------------------------------------
      1        6           0.004793453    0.005041186    0.000001038
      2        6          -0.000050564   -0.005652175    0.000000126
      3        7          -0.003597395   -0.004533620    0.000000657
      4        1           0.000347640   -0.002044725   -0.002838248
      5        1           0.000347731   -0.002044647    0.002837473
      6        1          -0.003725315    0.001159941   -0.000000085
      7        1          -0.000485813    0.002345936   -0.003132253
      8        1          -0.000485793    0.002345391    0.003132440
      9        1          -0.002640099   -0.001989147   -0.000000907
     10        1           0.002749215    0.002687789   -0.002773577
     11        1           0.002746940    0.002684073    0.002773336
 -------------------------------------------------------------------
 Cartesian Forces:  Max     0.005652175 RMS     0.002700795
 Leave Link  716 at Wed Oct  7 14:34:38 2020, MaxMem=  2684354560 cpu:               1.6 elap:               0.3
 (Enter /udrive/faculty/rpeverati/g16/g16/l103.exe)

 GradGradGradGradGradGradGradGradGradGradGradGradGradGradGradGradGradGrad
 Berny optimization.
 Optmz: redundant internal coordinate code flag= 1
 FormGI is forming the generalized inverse of G from B-inverse, IUseBI=4.
 Internal  Forces:  Max     0.004527889 RMS     0.001774529
 Search for a saddle point.
 Step number   1 out of a maximum of   50
 All quantities printed in internal units (Hartrees-Bohrs-Radians)
 Swapping is turned off.
 Second derivative matrix not updated -- first step.
 The second derivative matrix:
                          R1        R2        R3        R4        R5
           R1           0.31222
           R2           0.00000   0.34851
           R3           0.00000   0.00000   0.34851
           R4           0.00000   0.00000   0.00000   0.34468
           R5           0.00000   0.00000   0.00000   0.00000   0.35095
           R6           0.00000   0.00000   0.00000   0.00000   0.00000
           R7           0.00000   0.00000   0.00000   0.00000   0.00000
           R8           0.00000   0.00000   0.00000   0.00000   0.00000
           R9           0.00000   0.00000   0.00000   0.00000   0.00000
           R10          0.00000   0.00000   0.00000   0.00000   0.00000
           A1           0.00000   0.00000   0.00000   0.00000   0.00000
           A2           0.00000   0.00000   0.00000   0.00000   0.00000
           A3           0.00000   0.00000   0.00000   0.00000   0.00000
           A4           0.00000   0.00000   0.00000   0.00000   0.00000
           A5           0.00000   0.00000   0.00000   0.00000   0.00000
           A6           0.00000   0.00000   0.00000   0.00000   0.00000
           A7           0.00000   0.00000   0.00000   0.00000   0.00000
           A8           0.00000   0.00000   0.00000   0.00000   0.00000
           A9           0.00000   0.00000   0.00000   0.00000   0.00000
           A10          0.00000   0.00000   0.00000   0.00000   0.00000
           A11          0.00000   0.00000   0.00000   0.00000   0.00000
           A12          0.00000   0.00000   0.00000   0.00000   0.00000
           A13          0.00000   0.00000   0.00000   0.00000   0.00000
           A14          0.00000   0.00000   0.00000   0.00000   0.00000
           A15          0.00000   0.00000   0.00000   0.00000   0.00000
           A16          0.00000   0.00000   0.00000   0.00000   0.00000
           A17          0.00000   0.00000   0.00000   0.00000   0.00000
           D1           0.00000   0.00000   0.00000   0.00000   0.00000
           D2           0.00000   0.00000   0.00000   0.00000   0.00000
           D3           0.00000   0.00000   0.00000   0.00000   0.00000
           D4           0.00000   0.00000   0.00000   0.00000   0.00000
           D5           0.00000   0.00000   0.00000   0.00000   0.00000
           D6           0.00000   0.00000   0.00000   0.00000   0.00000
           D7           0.00000   0.00000   0.00000   0.00000   0.00000
           D8           0.00000   0.00000   0.00000   0.00000   0.00000
           D9           0.00000   0.00000   0.00000   0.00000   0.00000
           D10          0.00000   0.00000   0.00000   0.00000   0.00000
           D11          0.00000   0.00000   0.00000   0.00000   0.00000
           D12          0.00000   0.00000   0.00000   0.00000   0.00000
           D13          0.00000   0.00000   0.00000   0.00000   0.00000
           D14          0.00000   0.00000   0.00000   0.00000   0.00000
           D15          0.00000   0.00000   0.00000   0.00000   0.00000
                          R6        R7        R8        R9        R10
           R6           0.35095
           R7           0.00000   0.18877
           R8           0.00000   0.00000   0.18823
           R9           0.00000   0.00000   0.00000   0.44133
           R10          0.00000   0.00000   0.00000   0.00000   0.44132
           A1           0.00000   0.00000   0.00000   0.00000   0.00000
           A2           0.00000   0.00000   0.00000   0.00000   0.00000
           A3           0.00000   0.00000   0.00000   0.00000   0.00000
           A4           0.00000   0.00000   0.00000   0.00000   0.00000
           A5           0.00000   0.00000   0.00000   0.00000   0.00000
           A6           0.00000   0.00000   0.00000   0.00000   0.00000
           A7           0.00000   0.00000   0.00000   0.00000   0.00000
           A8           0.00000   0.00000   0.00000   0.00000   0.00000
           A9           0.00000   0.00000   0.00000   0.00000   0.00000
           A10          0.00000   0.00000   0.00000   0.00000   0.00000
           A11          0.00000   0.00000   0.00000   0.00000   0.00000
           A12          0.00000   0.00000   0.00000   0.00000   0.00000
           A13          0.00000   0.00000   0.00000   0.00000   0.00000
           A14          0.00000   0.00000   0.00000   0.00000   0.00000
           A15          0.00000   0.00000   0.00000   0.00000   0.00000
           A16          0.00000   0.00000   0.00000   0.00000   0.00000
           A17          0.00000   0.00000   0.00000   0.00000   0.00000
           D1           0.00000   0.00000   0.00000   0.00000   0.00000
           D2           0.00000   0.00000   0.00000   0.00000   0.00000
           D3           0.00000   0.00000   0.00000   0.00000   0.00000
           D4           0.00000   0.00000   0.00000   0.00000   0.00000
           D5           0.00000   0.00000   0.00000   0.00000   0.00000
           D6           0.00000   0.00000   0.00000   0.00000   0.00000
           D7           0.00000   0.00000   0.00000   0.00000   0.00000
           D8           0.00000   0.00000   0.00000   0.00000   0.00000
           D9           0.00000   0.00000   0.00000   0.00000   0.00000
           D10          0.00000   0.00000   0.00000   0.00000   0.00000
           D11          0.00000   0.00000   0.00000   0.00000   0.00000
           D12          0.00000   0.00000   0.00000   0.00000   0.00000
           D13          0.00000   0.00000   0.00000   0.00000   0.00000
           D14          0.00000   0.00000   0.00000   0.00000   0.00000
           D15          0.00000   0.00000   0.00000   0.00000   0.00000
                          A1        A2        A3        A4        A5
           A1           0.16000
           A2           0.00000   0.16000
           A3           0.00000   0.00000   0.16000
           A4           0.00000   0.00000   0.00000   0.16000
           A5           0.00000   0.00000   0.00000   0.00000   0.16000
           A6           0.00000   0.00000   0.00000   0.00000   0.00000
           A7           0.00000   0.00000   0.00000   0.00000   0.00000
           A8           0.00000   0.00000   0.00000   0.00000   0.00000
           A9           0.00000   0.00000   0.00000   0.00000   0.00000
           A10          0.00000   0.00000   0.00000   0.00000   0.00000
           A11          0.00000   0.00000   0.00000   0.00000   0.00000
           A12          0.00000   0.00000   0.00000   0.00000   0.00000
           A13          0.00000   0.00000   0.00000   0.00000   0.00000
           A14          0.00000   0.00000   0.00000   0.00000   0.00000
           A15          0.00000   0.00000   0.00000   0.00000   0.00000
           A16          0.00000   0.00000   0.00000   0.00000   0.00000
           A17          0.00000   0.00000   0.00000   0.00000   0.00000
           D1           0.00000   0.00000   0.00000   0.00000   0.00000
           D2           0.00000   0.00000   0.00000   0.00000   0.00000
           D3           0.00000   0.00000   0.00000   0.00000   0.00000
           D4           0.00000   0.00000   0.00000   0.00000   0.00000
           D5           0.00000   0.00000   0.00000   0.00000   0.00000
           D6           0.00000   0.00000   0.00000   0.00000   0.00000
           D7           0.00000   0.00000   0.00000   0.00000   0.00000
           D8           0.00000   0.00000   0.00000   0.00000   0.00000
           D9           0.00000   0.00000   0.00000   0.00000   0.00000
           D10          0.00000   0.00000   0.00000   0.00000   0.00000
           D11          0.00000   0.00000   0.00000   0.00000   0.00000
           D12          0.00000   0.00000   0.00000   0.00000   0.00000
           D13          0.00000   0.00000   0.00000   0.00000   0.00000
           D14          0.00000   0.00000   0.00000   0.00000   0.00000
           D15          0.00000   0.00000   0.00000   0.00000   0.00000
                          A6        A7        A8        A9        A10
           A6           0.16000
           A7           0.00000   0.16000
           A8           0.00000   0.00000   0.16000
           A9           0.00000   0.00000   0.00000   0.16000
           A10          0.00000   0.00000   0.00000   0.00000   0.16000
           A11          0.00000   0.00000   0.00000   0.00000   0.00000
           A12          0.00000   0.00000   0.00000   0.00000   0.00000
           A13          0.00000   0.00000   0.00000   0.00000   0.00000
           A14          0.00000   0.00000   0.00000   0.00000   0.00000
           A15          0.00000   0.00000   0.00000   0.00000   0.00000
           A16          0.00000   0.00000   0.00000   0.00000   0.00000
           A17          0.00000   0.00000   0.00000   0.00000   0.00000
           D1           0.00000   0.00000   0.00000   0.00000   0.00000
           D2           0.00000   0.00000   0.00000   0.00000   0.00000
           D3           0.00000   0.00000   0.00000   0.00000   0.00000
           D4           0.00000   0.00000   0.00000   0.00000   0.00000
           D5           0.00000   0.00000   0.00000   0.00000   0.00000
           D6           0.00000   0.00000   0.00000   0.00000   0.00000
           D7           0.00000   0.00000   0.00000   0.00000   0.00000
           D8           0.00000   0.00000   0.00000   0.00000   0.00000
           D9           0.00000   0.00000   0.00000   0.00000   0.00000
           D10          0.00000   0.00000   0.00000   0.00000   0.00000
           D11          0.00000   0.00000   0.00000   0.00000   0.00000
           D12          0.00000   0.00000   0.00000   0.00000   0.00000
           D13          0.00000   0.00000   0.00000   0.00000   0.00000
           D14          0.00000   0.00000   0.00000   0.00000   0.00000
           D15          0.00000   0.00000   0.00000   0.00000   0.00000
                          A11       A12       A13       A14       A15
           A11          0.16000
           A12          0.00000   0.16000
           A13          0.00000   0.00000   0.16000
           A14          0.00000   0.00000   0.00000   0.16000
           A15          0.00000   0.00000   0.00000   0.00000   0.16000
           A16          0.00000   0.00000   0.00000   0.00000   0.00000
           A17          0.00000   0.00000   0.00000   0.00000   0.00000
           D1           0.00000   0.00000   0.00000   0.00000   0.00000
           D2           0.00000   0.00000   0.00000   0.00000   0.00000
           D3           0.00000   0.00000   0.00000   0.00000   0.00000
           D4           0.00000   0.00000   0.00000   0.00000   0.00000
           D5           0.00000   0.00000   0.00000   0.00000   0.00000
           D6           0.00000   0.00000   0.00000   0.00000   0.00000
           D7           0.00000   0.00000   0.00000   0.00000   0.00000
           D8           0.00000   0.00000   0.00000   0.00000   0.00000
           D9           0.00000   0.00000   0.00000   0.00000   0.00000
           D10          0.00000   0.00000   0.00000   0.00000   0.00000
           D11          0.00000   0.00000   0.00000   0.00000   0.00000
           D12          0.00000   0.00000   0.00000   0.00000   0.00000
           D13          0.00000   0.00000   0.00000   0.00000   0.00000
           D14          0.00000   0.00000   0.00000   0.00000   0.00000
           D15          0.00000   0.00000   0.00000   0.00000   0.00000
                          A16       A17       D1        D2        D3
           A16          0.00230
           A17          0.00000   0.00230
           D1           0.00000   0.00000   0.00617
           D2           0.00000   0.00000   0.00000   0.00617
           D3           0.00000   0.00000   0.00000   0.00000   0.00617
           D4           0.00000   0.00000   0.00000   0.00000   0.00000
           D5           0.00000   0.00000   0.00000   0.00000   0.00000
           D6           0.00000   0.00000   0.00000   0.00000   0.00000
           D7           0.00000   0.00000   0.00000   0.00000   0.00000
           D8           0.00000   0.00000   0.00000   0.00000   0.00000
           D9           0.00000   0.00000   0.00000   0.00000   0.00000
           D10          0.00000   0.00000   0.00000   0.00000   0.00000
           D11          0.00000   0.00000   0.00000   0.00000   0.00000
           D12          0.00000   0.00000   0.00000   0.00000   0.00000
           D13          0.00000   0.00000   0.00000   0.00000   0.00000
           D14          0.00000   0.00000   0.00000   0.00000   0.00000
           D15          0.00000   0.00000   0.00000   0.00000   0.00000
                          D4        D5        D6        D7        D8
           D4           0.00617
           D5           0.00000   0.00617
           D6           0.00000   0.00000   0.00617
           D7           0.00000   0.00000   0.00000   0.00617
           D8           0.00000   0.00000   0.00000   0.00000   0.00617
           D9           0.00000   0.00000   0.00000   0.00000   0.00000
           D10          0.00000   0.00000   0.00000   0.00000   0.00000
           D11          0.00000   0.00000   0.00000   0.00000   0.00000
           D12          0.00000   0.00000   0.00000   0.00000   0.00000
           D13          0.00000   0.00000   0.00000   0.00000   0.00000
           D14          0.00000   0.00000   0.00000   0.00000   0.00000
           D15          0.00000   0.00000   0.00000   0.00000   0.00000
                          D9        D10       D11       D12       D13
           D9           0.00617
           D10          0.00000   0.00230
           D11          0.00000   0.00000   0.00230
           D12          0.00000   0.00000   0.00000   0.00230
           D13          0.00000   0.00000   0.00000   0.00000   0.00230
           D14          0.00000   0.00000   0.00000   0.00000   0.00000
           D15          0.00000   0.00000   0.00000   0.00000   0.00000
                          D14       D15
           D14          0.00230
           D15          0.00000   0.00230
 ITU=  0
 Eigenvectors of the second derivative matrix:
                           1         2         3         4         5
     Eigenvalues --     0.00230   0.00230   0.00230   0.00617   0.04596
   1         R1         0.00000   0.00000  -0.00000   0.00000  -0.00000
   2         R2        -0.00000   0.00000   0.00000   0.00000  -0.00000
   3         R3         0.00000  -0.00000  -0.00000  -0.00000  -0.00001
   4         R4        -0.00000   0.00000   0.00000   0.00000   0.00000
   5         R5        -0.00000   0.00000   0.00000  -0.00000  -0.00000
   6         R6         0.00000  -0.00000   0.00000  -0.00000  -0.00000
   7         R7        -0.00000   0.00000   0.00000  -0.00000   0.00019
   8         R8         0.00000  -0.00000  -0.00000   0.00000  -0.00018
   9         R9        -0.00000  -0.00000  -0.00000   0.00000   0.00000
  10         R10       -0.00000   0.00000  -0.00000  -0.00000   0.00000
  11         A1        -0.00000  -0.00000  -0.00000  -0.00000   0.00003
  12         A2         0.00000   0.00000  -0.00000   0.00000  -0.00000
  13         A3         0.00000   0.00000   0.00000   0.00000  -0.00003
  14         A4         0.00000  -0.00000   0.00000  -0.00000   0.00005
  15         A5        -0.00000   0.00000  -0.00000  -0.00000   0.00000
  16         A6        -0.00000  -0.00000   0.00000   0.00000  -0.00005
  17         A7        -0.00000  -0.00000  -0.00000   0.00003   0.07527
  18         A8         0.00000  -0.00000  -0.00000  -0.00002   0.07713
  19         A9         0.00000  -0.00000   0.00000   0.00000  -0.23365
  20         A10       -0.00000   0.00000   0.00000  -0.00000   0.35004
  21         A11       -0.00000   0.00000   0.00000   0.00001  -0.18971
  22         A12        0.00000   0.00000  -0.00000  -0.00001  -0.18769
  23         A13        0.00000  -0.00000  -0.00000  -0.00000  -0.00167
  24         A14        0.00000  -0.00000   0.00000  -0.00000  -0.00167
  25         A15        0.00000  -0.00000  -0.00000  -0.00000  -0.00889
  26         A16       -0.92004   0.08760   0.29157   0.00012   0.04123
  27         A17       -0.30670  -0.26140  -0.89232  -0.00030   0.01645
  28         D1        -0.00000  -0.00000  -0.00000  -0.33332  -0.33862
  29         D2        -0.00000  -0.00000  -0.00000  -0.33332   0.33742
  30         D3         0.00000  -0.00000  -0.00000  -0.33335   0.00109
  31         D4         0.00000  -0.00000  -0.00000  -0.33332  -0.33854
  32         D5         0.00000  -0.00000  -0.00000  -0.33333   0.33750
  33         D6         0.00000  -0.00000  -0.00000  -0.33335   0.00117
  34         D7         0.00000  -0.00000  -0.00000  -0.33332  -0.33863
  35         D8         0.00000  -0.00000  -0.00000  -0.33332   0.33741
  36         D9         0.00000  -0.00000  -0.00000  -0.33335   0.00109
  37         D10       -0.03147   0.35739  -0.23213   0.00091   0.00605
  38         D11        0.07839   0.35878  -0.22658   0.00083  -0.00894
  39         D12        0.03437   0.40908  -0.05564  -0.00046   0.12235
  40         D13        0.14424   0.41047  -0.05008  -0.00054   0.10736
  41         D14       -0.16518   0.40656  -0.06566  -0.00033  -0.10592
  42         D15       -0.05531   0.40796  -0.06011  -0.00041  -0.12090
                           6         7         8         9        10
     Eigenvalues --     0.05078   0.05667   0.05671   0.06105   0.09110
   1         R1         0.00013   0.00000  -0.00000   0.00001  -0.00002
   2         R2         0.00000  -0.00000  -0.00000   0.00000  -0.00000
   3         R3        -0.00010  -0.00000   0.00000   0.00002  -0.00004
   4         R4         0.00000   0.00000   0.00000  -0.00000  -0.00000
   5         R5        -0.00000   0.00000   0.00000  -0.00000  -0.00000
   6         R6        -0.00000   0.00000  -0.00000   0.00000  -0.00000
   7         R7        -0.00010  -0.00000   0.00000   0.00057   0.00148
   8         R8        -0.00000   0.00000  -0.00000  -0.00063  -0.00135
   9         R9        -0.00000  -0.00000   0.00000  -0.00000  -0.00000
  10         R10       -0.00000  -0.00000   0.00000  -0.00000   0.00000
  11         A1        -0.00179   0.10917  -0.18979   0.00018  -0.00005
  12         A2         0.00142   0.10988   0.18939   0.00000  -0.00001
  13         A3         0.00080  -0.21899   0.00040  -0.00018   0.00005
  14         A4        -0.00196   0.41324  -0.00076   0.00035  -0.00009
  15         A5        -0.00142  -0.20751  -0.35783  -0.00001  -0.00000
  16         A6         0.00293  -0.20617   0.35859  -0.00033   0.00009
  17         A7         0.23861   0.00086  -0.00145  -0.01306  -0.36866
  18         A8        -0.23639  -0.00095   0.00150  -0.01012  -0.36622
  19         A9        -0.00106   0.00002  -0.00001   0.00254  -0.07403
  20         A10        0.00043  -0.00000   0.00000   0.00369   0.39599
  21         A11        0.30131   0.00156  -0.00249   0.00782   0.25720
  22         A12       -0.30350  -0.00147   0.00244   0.01395   0.25136
  23         A13       -0.00081   0.00008  -0.00004  -0.11067   0.00459
  24         A14       -0.00081   0.00008  -0.00004  -0.11067   0.00459
  25         A15       -0.00430   0.00044  -0.00022  -0.58946   0.02443
  26         A16        0.04744   0.00021  -0.00022  -0.09520   0.12116
  27         A17       -0.08812  -0.00014   0.00027  -0.03657   0.04748
  28         D1         0.16160  -0.33414  -0.19379   0.00726   0.07556
  29         D2         0.16448  -0.33423  -0.19374  -0.01058  -0.07358
  30         D3        -0.32504  -0.33648  -0.19003   0.00281  -0.00193
  31         D4         0.15888   0.33504  -0.19503   0.00782   0.07542
  32         D5         0.16176   0.33495  -0.19498  -0.01002  -0.07372
  33         D6        -0.32777   0.33269  -0.19126   0.00337  -0.00208
  34         D7         0.16406   0.00154   0.38500   0.00727   0.07557
  35         D8         0.16694   0.00144   0.38505  -0.01056  -0.07358
  36         D9        -0.32258  -0.00081   0.38877   0.00283  -0.00193
  37         D10        0.27248   0.00029  -0.00077   0.31993  -0.00817
  38         D11        0.26623   0.00083  -0.00104  -0.32060   0.00406
  39         D12       -0.13312  -0.00048   0.00056   0.33743   0.30602
  40         D13       -0.13937   0.00005   0.00029  -0.30310   0.31825
  41         D14       -0.12998  -0.00062   0.00062   0.30344  -0.31619
  42         D15       -0.13624  -0.00008   0.00035  -0.33709  -0.30397
                          11        12        13        14        15
     Eigenvalues --     0.12058   0.16000   0.16000   0.16000   0.16000
   1         R1         0.00037   0.00000   0.00000   0.00000  -0.00000
   2         R2         0.00000   0.00000   0.00000  -0.00000  -0.00000
   3         R3        -0.00028  -0.00000   0.00000  -0.00000   0.00000
   4         R4        -0.00000   0.00000  -0.00000  -0.00000  -0.00000
   5         R5         0.00000   0.00000  -0.00000   0.00000  -0.00000
   6         R6         0.00000  -0.00000   0.00000   0.00000  -0.00000
   7         R7        -0.00043  -0.00000   0.00000   0.00000   0.00000
   8         R8        -0.00000  -0.00000   0.00000   0.00000   0.00000
   9         R9        -0.00000  -0.00000  -0.00000  -0.00000   0.00000
  10         R10       -0.00000  -0.00000  -0.00000   0.00000   0.00000
  11         A1        -0.00022   0.62157   0.33100   0.12113  -0.15523
  12         A2         0.00344   0.03774  -0.34700   0.12397   0.65383
  13         A3        -0.00072   0.38035  -0.25603  -0.12561  -0.01181
  14         A4        -0.00129  -0.34942   0.00848  -0.12989  -0.26424
  15         A5         0.00088  -0.53033  -0.03966   0.00239   0.08841
  16         A6        -0.00223  -0.22133   0.31919   0.00088  -0.33980
  17         A7         0.48313   0.01432   0.00403  -0.17594   0.01379
  18         A8        -0.48659   0.01491   0.00121  -0.17836   0.01952
  19         A9        -0.00239  -0.06391  -0.01148   0.77465  -0.07280
  20         A10        0.00199  -0.01973  -0.00354   0.23909  -0.02248
  21         A11       -0.37046   0.02730   0.00429  -0.32985   0.03215
  22         A12        0.37483   0.02705   0.00547  -0.32885   0.02975
  23         A13        0.00030  -0.02237   0.70185  -0.01623   0.33462
  24         A14        0.00030   0.09047  -0.32098   0.00930  -0.48385
  25         A15        0.00157  -0.01276  -0.07150   0.00094   0.02805
  26         A16        0.04242   0.00000  -0.00000   0.00000   0.00000
  27         A17       -0.07498   0.00000  -0.00000   0.00000  -0.00000
  28         D1        -0.06796   0.00000   0.00000   0.00000   0.00000
  29         D2        -0.06848  -0.00000   0.00000  -0.00000   0.00000
  30         D3         0.13702  -0.00000   0.00000  -0.00000   0.00000
  31         D4        -0.06743   0.00000   0.00000   0.00000  -0.00000
  32         D5        -0.06795  -0.00000   0.00000   0.00000   0.00000
  33         D6         0.13755  -0.00000   0.00000   0.00000   0.00000
  34         D7        -0.06844   0.00000  -0.00000  -0.00000  -0.00000
  35         D8        -0.06896   0.00000  -0.00000  -0.00000  -0.00000
  36         D9         0.13654   0.00000   0.00000  -0.00000  -0.00000
  37         D10        0.23104  -0.00000   0.00000   0.00000  -0.00000
  38         D11        0.23138  -0.00000   0.00000  -0.00000  -0.00000
  39         D12       -0.11505   0.00000   0.00000   0.00000   0.00000
  40         D13       -0.11471   0.00000   0.00000  -0.00000   0.00000
  41         D14       -0.11649  -0.00000   0.00000   0.00000  -0.00000
  42         D15       -0.11615  -0.00000  -0.00000  -0.00000  -0.00000
                          16        17        18        19        20
     Eigenvalues --     0.16000   0.16000   0.18823   0.18877   0.31222
   1         R1        -0.00000   0.00000   0.00000  -0.00000   1.00000
   2         R2         0.00000   0.00000  -0.00000   0.00000   0.00000
   3         R3        -0.00000  -0.00000   0.00000   0.00000  -0.00001
   4         R4         0.00000   0.00000   0.00000  -0.00000  -0.00000
   5         R5         0.00000  -0.00000  -0.00000  -0.00000  -0.00000
   6         R6         0.00000  -0.00000  -0.00000  -0.00000   0.00000
   7         R7         0.00000   0.00000  -0.00040   1.00000   0.00000
   8         R8        -0.00000   0.00000   1.00000   0.00040  -0.00000
   9         R9        -0.00000   0.00000   0.00000  -0.00000   0.00000
  10         R10       -0.00000  -0.00000  -0.00000  -0.00000   0.00000
  11         A1         0.08396   0.36879   0.00000  -0.00000   0.00000
  12         A2         0.30944   0.13141  -0.00000   0.00000  -0.00000
  13         A3        -0.34701  -0.57559  -0.00000  -0.00000   0.00000
  14         A4        -0.20848  -0.26509   0.00000  -0.00000   0.00000
  15         A5         0.13926   0.10952  -0.00000   0.00000  -0.00000
  16         A6         0.01992   0.23515  -0.00000  -0.00000   0.00000
  17         A7         0.02144   0.03212  -0.00101   0.00153  -0.00069
  18         A8         0.02444   0.03384  -0.00100   0.00067   0.00065
  19         A9        -0.10031  -0.14421  -0.00038   0.00042  -0.00001
  20         A10       -0.03096  -0.04451   0.00139  -0.00152   0.00003
  21         A11        0.04328   0.06167   0.00060  -0.00079   0.00012
  22         A12        0.04202   0.06095   0.00060  -0.00051  -0.00010
  23         A13        0.30852  -0.51629  -0.00021   0.00019   0.00000
  24         A14        0.75041  -0.24195  -0.00021   0.00019   0.00000
  25         A15       -0.19876   0.14242  -0.00111   0.00100   0.00003
  26         A16       -0.00000  -0.00000  -0.00005   0.00005   0.00006
  27         A17       -0.00000  -0.00000  -0.00002   0.00005  -0.00013
  28         D1        -0.00000  -0.00000  -0.00003   0.00005  -0.00007
  29         D2        -0.00000   0.00000   0.00003  -0.00001  -0.00007
  30         D3        -0.00000  -0.00000   0.00000  -0.00004   0.00014
  31         D4        -0.00000   0.00000  -0.00003   0.00005  -0.00007
  32         D5        -0.00000   0.00000   0.00003  -0.00001  -0.00007
  33         D6         0.00000  -0.00000   0.00000  -0.00004   0.00014
  34         D7         0.00000  -0.00000  -0.00003   0.00005  -0.00007
  35         D8         0.00000  -0.00000   0.00003  -0.00001  -0.00007
  36         D9         0.00000  -0.00000   0.00000  -0.00004   0.00014
  37         D10        0.00000  -0.00000  -0.00005  -0.00003   0.00039
  38         D11        0.00000  -0.00000   0.00005  -0.00013   0.00038
  39         D12       -0.00000  -0.00000  -0.00023   0.00029  -0.00020
  40         D13       -0.00000  -0.00000  -0.00013   0.00019  -0.00021
  41         D14        0.00000   0.00000   0.00013  -0.00011  -0.00018
  42         D15        0.00000   0.00000   0.00023  -0.00021  -0.00018
                          21        22        23        24        25
     Eigenvalues --     0.34468   0.34851   0.34851   0.35095   0.35095
   1         R1        -0.00000  -0.00001   0.00000   0.00000   0.00000
   2         R2        -0.00000   0.00000  -1.00000  -0.00000  -0.00000
   3         R3         0.00000  -1.00000  -0.00000   0.00000   0.00000
   4         R4        -1.00000  -0.00000   0.00000  -0.00000   0.00000
   5         R5         0.00000   0.00000  -0.00000  -0.00000   1.00000
   6         R6         0.00000  -0.00000   0.00000  -1.00000  -0.00000
   7         R7        -0.00000   0.00000   0.00000  -0.00000   0.00000
   8         R8         0.00000   0.00000  -0.00000  -0.00000   0.00000
   9         R9         0.00000  -0.00000   0.00000  -0.00000   0.00000
  10         R10       -0.00000  -0.00000  -0.00000  -0.00000   0.00000
  11         A1         0.00000   0.00000   0.00000  -0.00000   0.00000
  12         A2         0.00000  -0.00000   0.00000  -0.00000   0.00000
  13         A3        -0.00000   0.00000  -0.00000   0.00000  -0.00000
  14         A4        -0.00000   0.00000  -0.00000   0.00000  -0.00000
  15         A5        -0.00000  -0.00000  -0.00000  -0.00000   0.00000
  16         A6         0.00000   0.00000   0.00000  -0.00000   0.00000
  17         A7         0.00000  -0.00052  -0.00000   0.00000   0.00000
  18         A8         0.00000   0.00062   0.00000  -0.00000   0.00000
  19         A9        -0.00000   0.00002   0.00000   0.00000  -0.00000
  20         A10       -0.00000  -0.00008  -0.00000   0.00000  -0.00000
  21         A11       -0.00000   0.00005   0.00000  -0.00000   0.00000
  22         A12       -0.00000  -0.00012  -0.00000   0.00000   0.00000
  23         A13       -0.00000  -0.00001  -0.00000   0.00000  -0.00000
  24         A14        0.00000  -0.00001  -0.00000   0.00000  -0.00000
  25         A15        0.00000  -0.00007  -0.00000   0.00000   0.00000
  26         A16       -0.00000   0.00008   0.00000   0.00000  -0.00000
  27         A17       -0.00000  -0.00011  -0.00000  -0.00000   0.00000
  28         D1        -0.00000  -0.00006  -0.00000  -0.00000   0.00000
  29         D2         0.00000  -0.00007  -0.00000   0.00000   0.00000
  30         D3        -0.00000   0.00013   0.00000   0.00000  -0.00000
  31         D4        -0.00000  -0.00006  -0.00000  -0.00000   0.00000
  32         D5         0.00000  -0.00007  -0.00000   0.00000   0.00000
  33         D6        -0.00000   0.00013   0.00000   0.00000  -0.00000
  34         D7        -0.00000  -0.00006  -0.00000  -0.00000   0.00000
  35         D8         0.00000  -0.00007  -0.00000  -0.00000   0.00000
  36         D9         0.00000   0.00013   0.00000   0.00000  -0.00000
  37         D10       -0.00000   0.00034   0.00000  -0.00000  -0.00000
  38         D11        0.00000   0.00037   0.00000   0.00000  -0.00000
  39         D12       -0.00000  -0.00016  -0.00000  -0.00000  -0.00000
  40         D13       -0.00000  -0.00013  -0.00000  -0.00000  -0.00000
  41         D14        0.00000  -0.00023  -0.00000  -0.00000  -0.00000
  42         D15        0.00000  -0.00020  -0.00000   0.00000  -0.00000
                          26        27
     Eigenvalues --     0.44132   0.44133
   1         R1        -0.00000  -0.00000
   2         R2        -0.00000   0.00000
   3         R3         0.00000  -0.00000
   4         R4        -0.00000   0.00000
   5         R5        -0.00000  -0.00000
   6         R6        -0.00000  -0.00000
   7         R7         0.00000   0.00000
   8         R8         0.00000  -0.00000
   9         R9         0.00000   1.00000
  10         R10        1.00000  -0.00000
  11         A1         0.00000   0.00000
  12         A2        -0.00000  -0.00000
  13         A3        -0.00000  -0.00000
  14         A4        -0.00000   0.00000
  15         A5        -0.00000  -0.00000
  16         A6         0.00000   0.00000
[...]
    R4        2.07754   0.00000   0.00000   0.00004   0.00004   2.07759
    R5        2.06621   0.00001   0.00000  -0.00005  -0.00005   2.06616
    R6        2.06590   0.00000   0.00000   0.00009   0.00009   2.06599
    R7        2.46638   0.00003   0.00000   0.00062   0.00062   2.46700
    R8        2.43075  -0.00004   0.00000  -0.00064  -0.00064   2.43011
    R9        1.94072  -0.00001   0.00000  -0.00006  -0.00006   1.94065
   R10        1.94064  -0.00001   0.00000  -0.00003  -0.00003   1.94061
    A1        1.94199   0.00001   0.00000   0.00053   0.00053   1.94252
    A2        1.94396   0.00000   0.00000  -0.00055  -0.00055   1.94340
    A3        1.94211  -0.00000   0.00000  -0.00007  -0.00007   1.94204
    A4        1.88007  -0.00000   0.00000  -0.00010  -0.00010   1.87997
    A5        1.87688  -0.00000   0.00000  -0.00022  -0.00022   1.87666
    A6        1.87561  -0.00000   0.00000   0.00042   0.00042   1.87603
    A7        2.00207   0.00001   0.00000   0.00052   0.00051   2.00258
    A8        2.00365  -0.00001   0.00000  -0.00034  -0.00034   2.00331
    A9        1.83651   0.00002   0.00000  -0.00077  -0.00077   1.83573
   A10        1.93672   0.00000   0.00000  -0.00022  -0.00020   1.93651
   A11        1.82182  -0.00003   0.00000   0.00573   0.00573   1.82755
   A12        1.84248   0.00000   0.00000  -0.00485  -0.00485   1.83764
   A13        1.74581   0.00001   0.00000   0.00036   0.00038   1.74619
   A14        1.74650   0.00001   0.00000   0.00007   0.00009   1.74659
   A15        1.80090  -0.00000   0.00000   0.00005   0.00015   1.80105
   A16        3.24741  -0.00000   0.00000   0.01375   0.01374   3.26115
   A17        3.25515   0.00000   0.00000  -0.01997  -0.01998   3.23517
    D1        0.96012  -0.00001   0.00000  -0.00217  -0.00217   0.95795
    D2       -3.04925  -0.00000   0.00000  -0.00231  -0.00231  -3.05156
    D3       -1.03160   0.00001   0.00000  -0.00889  -0.00889  -1.04049
    D4        3.05814  -0.00000   0.00000  -0.00231  -0.00231   3.05582
    D5       -0.95123  -0.00000   0.00000  -0.00245  -0.00245  -0.95369
    D6        1.06641   0.00001   0.00000  -0.00903  -0.00903   1.05738
    D7       -1.13261  -0.00001   0.00000  -0.00219  -0.00219  -1.13481
    D8        1.14121  -0.00000   0.00000  -0.00233  -0.00233   1.13887
    D9       -3.12433   0.00001   0.00000  -0.00891  -0.00891  -3.13325
   D10        2.45607  -0.00000   0.00000  -0.12285  -0.12282   2.33326
   D11       -2.00388  -0.00000   0.00000  -0.12267  -0.12269  -2.12658
   D12        0.31962  -0.00001   0.00000  -0.12195  -0.12193   0.19769
   D13        2.14285  -0.00001   0.00000  -0.12177  -0.12181   2.02104
   D14       -1.69498  -0.00000   0.00000  -0.12113  -0.12110  -1.81608
   D15        0.12825  -0.00000   0.00000  -0.12095  -0.12098   0.00727
         Item               Value     Threshold  Converged?
 Maximum Force            0.000035     0.000450     YES
 RMS     Force            0.000011     0.000300     YES
 Maximum Displacement     0.160313     0.001800     NO 
 RMS     Displacement     0.043791     0.001200     NO 
 Predicted change in Energy=-1.201700D-06
                           ----------------------------
                           ! Non-Optimized Parameters !
                           ! (Angstroms and Degrees)  !
 --------------------------                            --------------------------
 ! Name  Definition              Value          Derivative Info.                !
 --------------------------------------------------------------------------------
 ! R1    R(1,2)                  1.5059         -DE/DX =    0.0                 !
 ! R2    R(1,4)                  1.0951         -DE/DX =    0.0                 !
 ! R3    R(1,5)                  1.0952         -DE/DX =    0.0                 !
 ! R4    R(1,6)                  1.0994         -DE/DX =    0.0                 !
 ! R5    R(2,7)                  1.0934         -DE/DX =    0.0                 !
 ! R6    R(2,8)                  1.0933         -DE/DX =    0.0                 !
 ! R7    R(2,9)                  1.3055         -DE/DX =    0.0                 !
 ! R8    R(3,9)                  1.286          -DE/DX =    0.0                 !
 ! R9    R(3,10)                 1.027          -DE/DX =    0.0                 !
 ! R10   R(3,11)                 1.0269         -DE/DX =    0.0                 !
 ! A1    A(2,1,4)              111.298          -DE/DX =    0.0                 !
 ! A2    A(2,1,5)              111.3488         -DE/DX =    0.0                 !
 ! A3    A(2,1,6)              111.2704         -DE/DX =    0.0                 !
 ! A4    A(4,1,5)              107.7142         -DE/DX =    0.0                 !
 ! A5    A(4,1,6)              107.5248         -DE/DX =    0.0                 !
 ! A6    A(5,1,6)              107.4888         -DE/DX =    0.0                 !
 ! A7    A(1,2,7)              114.7393         -DE/DX =    0.0                 !
 ! A8    A(1,2,8)              114.7811         -DE/DX =    0.0                 !
 ! A9    A(1,2,9)              105.1797         -DE/DX =    0.0                 !
 ! A10   A(7,2,8)              110.9539         -DE/DX =    0.0                 !
 ! A11   A(7,2,9)              104.7109         -DE/DX =    0.0                 !
 ! A12   A(8,2,9)              105.2889         -DE/DX =    0.0                 !
 ! A13   A(9,3,10)             100.049          -DE/DX =    0.0                 !
 ! A14   A(9,3,11)             100.0723         -DE/DX =    0.0                 !
 ! A15   A(10,3,11)            103.1924         -DE/DX =    0.0                 !
 ! A16   L(2,9,3,5,-1)         186.8501         -DE/DX =    0.0                 !
 ! A17   L(2,9,3,5,-2)         185.3614         -DE/DX =    0.0                 !
 ! D1    D(4,1,2,7)             54.8865         -DE/DX =    0.0                 !
 ! D2    D(4,1,2,8)           -174.8415         -DE/DX =    0.0                 !
 ! D3    D(4,1,2,9)            -59.6158         -DE/DX =    0.0                 !
 ! D4    D(5,1,2,7)            175.0857         -DE/DX =    0.0                 !
 ! D5    D(5,1,2,8)            -54.6422         -DE/DX =    0.0                 !
 ! D6    D(5,1,2,9)             60.5835         -DE/DX =    0.0                 !
 ! D7    D(6,1,2,7)            -65.0196         -DE/DX =    0.0                 !
 ! D8    D(6,1,2,8)             65.2525         -DE/DX =    0.0                 !
 ! D9    D(6,1,2,9)           -179.5218         -DE/DX =    0.0                 !
 ! D10   D(1,2,3,10)           133.6858         -DE/DX =    0.0                 !
 ! D11   D(1,2,3,11)          -121.8438         -DE/DX =    0.0                 !
 ! D12   D(7,2,3,10)            11.3268         -DE/DX =    0.0                 !
 ! D13   D(7,2,3,11)           115.7971         -DE/DX =    0.0                 !
 ! D14   D(8,2,3,10)          -104.0536         -DE/DX =    0.0                 !
 ! D15   D(8,2,3,11)             0.4168         -DE/DX =    0.0                 !
 --------------------------------------------------------------------------------
 GradGradGradGradGradGradGradGradGradGradGradGradGradGradGradGradGradGrad

 Leave Link  103 at Wed Oct  7 14:39:36 2020, MaxMem=  2684354560 cpu:              16.9 elap:               1.8
 (Enter /udrive/faculty/rpeverati/g16/g16/l9999.exe)

 ----------------------------------------------------------------------

 Electric dipole moment (input orientation):
 (Debye = 10**-18 statcoulomb cm , SI units = C m)
                  (au)            (Debye)         (10**-30 SI)
   Tot        0.712163D+00      0.181014D+01      0.603797D+01
   x         -0.977609D-01     -0.248483D+00     -0.828852D+00
   y          0.692435D+00      0.175999D+01      0.587071D+01
   z          0.134733D+00      0.342456D+00      0.114231D+01

 Dipole polarizability, Alpha (input orientation).
 (esu units = cm**3 , SI units = C**2 m**2 J**-1)
 Alpha(0;0):
               (au)            (10**-24 esu)      (10**-40 SI)
   iso        0.396617D+02      0.587725D+01      0.653932D+01
   aniso      0.279926D+02      0.414807D+01      0.461535D+01
   xx         0.574690D+02      0.851603D+01      0.947536D+01
   yx        -0.480191D+01     -0.711569D+00     -0.791728D+00
   yy         0.308623D+02      0.457332D+01      0.508851D+01
   zx        -0.212579D+00     -0.315010D-01     -0.350496D-01
   zy        -0.503920D+00     -0.746733D-01     -0.830853D-01
   zz         0.306537D+02      0.454240D+01      0.505411D+01

 ----------------------------------------------------------------------

 Dipole orientation:
     6         -2.87706241         -0.52341174         -0.42042262
     6         -0.78603848          0.21080199          1.36506294
     7          3.42969260          0.38457495         -1.09669181
     1         -3.06727502          0.84824789         -1.95812099
     1         -2.52722671         -2.37787408         -1.27019394
     1         -4.70587564         -0.62197076          0.56035102
     1         -0.95233738          2.11307316          2.15432432
     1         -0.38644681         -1.17201701          2.84697564
     1          1.25018339          0.29962973         -0.02380844
     1          4.17055878          1.95657668         -0.23279698
     1          4.31484578         -1.08104758         -0.18316114

 Electric dipole moment (dipole orientation):
 (Debye = 10**-18 statcoulomb cm , SI units = C m)
                  (au)            (Debye)         (10**-30 SI)
   Tot        0.712163D+00      0.181014D+01      0.603797D+01
   x          0.000000D+00      0.000000D+00      0.000000D+00
   y          0.000000D+00      0.000000D+00      0.000000D+00
   z          0.712163D+00      0.181014D+01      0.603797D+01

 Dipole polarizability, Alpha (dipole orientation).
 (esu units = cm**3 , SI units = C**2 m**2 J**-1)
 Alpha(0;0):
               (au)            (10**-24 esu)      (10**-40 SI)
   iso        0.396617D+02      0.587725D+01      0.653932D+01
   aniso      0.279926D+02      0.414807D+01      0.461535D+01
   xx         0.554947D+02      0.822347D+01      0.914985D+01
   yx         0.217828D+01      0.322788D+00      0.359150D+00
   yy         0.310265D+02      0.459766D+01      0.511558D+01
   zx        -0.823438D+01     -0.122021D+01     -0.135767D+01
   zy        -0.336463D+00     -0.498587D-01     -0.554753D-01
   zz         0.324637D+02      0.481062D+01      0.535254D+01

 ----------------------------------------------------------------------

 Test job not archived.
 1\1\GINC-NODE62\Freq\UPBE1PBE\6-31G(d)\C2H8N1(2)\RPEVERATI\07-Oct-2020
 \0\\#P Freq PBE1PBE/6-31G* 5D 7F Integral=UltraFineGrid SCF=(NoSymm,XQ
 C,MaxCyc=120) EmpiricalDispersion=GD3BJ IOp(1/33=1) Geom=Check Guess=R
 ead\\TS search on BH76.\\0,2\C,-1.498897386,-0.4439825419,0.0182194345
 \C,-0.4960029615,0.6785362034,-0.0288988252\N,1.8886627551,-0.31884156
 62,-0.0585257025\H,-1.4047901626,-1.097629273,-0.855286798\H,-1.365119
 0935,-1.0616354389,0.9127125679\H,-2.528427346,-0.0586692344,0.0342705
 991\H,-0.5269617151,1.2811436882,-0.9407159012\H,-0.4776776919,1.31470
 50867,0.8599738667\H,0.6706107319,0.0945120299,-0.0657328201\H,2.30511
 09353,0.340211497,-0.7270431577\H,2.1962348689,0.0447393534,0.85131999
 38\\Version=ES64L-G16RevA.03\State=2-A\HF=-135.5127897\S2=0.758835\S2-
 1=0.\S2A=0.750035\RMSD=4.944e-10\RMSF=2.044e-05\ZeroPoint=0.0940461\Th
 ermal=0.0999056\Dipole=-0.0977609,0.6924349,0.1347327\DipoleDeriv=-0.1
 650284,-0.029741,0.0030762,0.1206202,0.023301,-0.0017754,0.0015201,-0.
 0015597,0.0481045,0.8140036,-0.1852461,-0.0067957,-0.1407019,0.107029,
 0.0007962,-0.0034508,0.001249,0.1058481,-0.0464183,0.03866,0.0123871,0
 .0693381,-0.3091084,-0.0125113,0.0304135,-0.014243,-0.2213439,0.072995
 3,-0.0023715,0.0233997,-0.0454198,-0.0158019,-0.0851148,0.0017033,-0.1
 030995,-0.053321,0.0684717,0.0022516,-0.030687,-0.0419773,-0.0100249,0
 .0865052,-0.005645,0.1041944,-0.0636066,-0.1793084,0.0412015,0.004655,
 -0.0364476,0.0332926,0.0006943,0.0075165,0.0005066,0.0847725,-0.076611
 8,0.0232161,-0.0124033,0.0153406,-0.0489078,0.0855696,0.0312122,0.0871
 411,-0.0679428,-0.0849907,0.0225717,0.0086156,0.0140409,-0.0588291,-0.
 0846913,-0.0290004,-0.0913825,-0.0639126,-0.8379076,0.2506178,0.007900
 8,0.2494146,0.0555914,0.0068221,-0.0152778,0.0124024,0.0927279,0.21319
 85,-0.0961138,0.0371341,-0.1114319,0.063647,0.15574,-0.019498,0.100458
 2,0.1232729,0.2215962,-0.0650465,-0.0472824,-0.0927758,0.1598113,-0.15
 20347,0.0005063,-0.0956669,0.0154011\Polar=57.4690015,-4.8019079,30.86
 23115,-0.2125791,-0.5039204,30.6536565\Quadrupole=0.5191328,-1.3972645
 ,0.8781317,2.7692077,0.5213054,-0.3579865\PG=C01 [X(C2H8N1)]\NImag=1\\
 0.51945172,-0.02881739,0.53512573,0.00185560,0.00189050,0.58574019,-0.
 12580746,-0.08006742,0.00254469,0.24786340,-0.09051705,-0.16021607,0.0
 0376542,0.10436612,0.48637598,0.00279147,0.00339106,-0.08519523,0.0074
 7077,-0.00028421,0.59870925,0.01147089,-0.00087109,-0.00021951,-0.1078
 5787,0.05403435,0.00386169,0.19004835,-0.00397303,0.00068306,0.0002362
 6,0.04130229,-0.01887584,-0.00258022,0.15040148,0.28226217,0.00006284,
 -0.00021422,-0.00026891,0.00017662,-0.00040822,0.00538689,0.00232437,-
 0.04215038,0.55540138,-0.04949224,0.01671914,0.02181369,0.00019551,-0.
 01443647,-0.02102100,-0.00035187,0.00050211,0.00036955,0.05311960,0.01
 569008,-0.14332443,-0.12779605,0.00201144,-0.01456883,-0.02065334,-0.0
 0057179,0.00052595,0.00020780,-0.01330854,0.15480832,0.02112126,-0.127
 52417,-0.22532306,-0.00155692,0.00144658,0.00263532,-0.00055585,0.0003
 1318,-0.00002598,-0.02314970,0.14101408,0.24022090,-0.05187442,0.02117
 897,-0.03053353,0.00135024,-0.01364387,0.02169423,-0.00031855,0.000580
 27,-0.00045777,-0.00080486,-0.00231469,0.00340352,0.05566964,0.0202542
 3,-0.13277716,0.12292395,0.00319478,-0.01378054,0.02122538,-0.00044848
 ,0.00047764,-0.00008716,-0.00322097,0.01260607,-0.01666226,-0.01841988
 ,0.14314516,-0.02990381,0.12263167,-0.23273977,0.00139932,-0.00020222,
 0.00071501,0.00054129,-0.00037305,0.00012885,-0.00421689,0.01553143,-0
 .02004294,0.03238037,-0.13617442,0.24860349,-0.27171104,0.09330831,0.0
 0328453,-0.02254582,0.00308487,0.00053261,-0.00032125,0.00072722,0.000
 02332,-0.00221163,0.00090878,-0.00024305,-0.00341096,0.00137660,0.0003
 3997,0.29862621,0.08675071,-0.08005804,-0.00135055,-0.02413350,0.00726
 551,0.00043664,0.00105369,-0.00014512,0.00003013,0.01787365,-0.0073527
 3,0.00132481,0.01674184,-0.00704972,-0.00174190,-0.09550071,0.08701332
 ,0.00339781,-0.00149540,-0.04744478,0.00098214,-0.00022422,-0.00064896
 ,-0.00005989,-0.00003516,-0.00004891,0.02598401,-0.00942069,0.00017039
 ,-0.02656488,0.00973648,0.00095025,-0.00391876,0.00133142,0.04606655,0
 .00239601,-0.01385154,0.02136305,-0.03224758,0.00264131,-0.01766231,0.
 00467461,-0.00150343,0.00019210,0.00056661,0.00059064,-0.00061737,-0.0
 0282820,-0.00386440,-0.00054769,0.00092017,0.00107833,-0.00014770,0.03
 768580,0.00355152,-0.01084300,0.01953362,-0.00469821,-0.13133429,0.129
 65006,-0.00200844,0.00045231,-0.00091736,0.00088403,0.00063789,-0.0001
 2908,-0.00425485,-0.00297732,-0.00013543,-0.00032607,0.00057679,-0.000
 04710,0.00277234,0.13760793,-0.00071344,-0.00086709,0.00172094,-0.0090
 0211,0.12546420,-0.24762444,-0.00098884,-0.00013663,0.00054308,0.00052
 705,0.00036608,0.00074409,-0.00007405,-0.00055313,0.00168254,0.0001481
 7,-0.00006730,0.00011839,0.01022091,-0.13871393,0.26109846,0.00130835,
 -0.01451206,-0.02076473,-0.03179105,-0.00399827,0.00584859,0.00375517,
 -0.00077761,-0.00006471,-0.00279249,-0.00375131,0.00093938,0.00058550,
 0.00060390,0.00062108,0.00086253,0.00106302,0.00007171,0.00077494,-0.0
 0127181,-0.00217424,0.03739008,0.00255073,-0.01152491,-0.01919714,-0.0
 1165623,-0.14110535,-0.13332169,-0.00177445,0.00035034,0.00052277,-0.0
 0424646,-0.00293821,0.00051405,0.00089473,0.00065360,0.00009770,-0.000
 33522,0.00056073,0.00003674,-0.00036954,0.01194933,0.01541167,0.010365
 57,0.14817974,0.00066156,0.00216576,0.00345904,-0.00233808,-0.12949939
 ,-0.23897913,0.00045659,0.00051609,0.00059331,0.00043796,0.00092539,0.
 00158561,-0.00055426,-0.00039210,0.00077803,-0.00018417,-0.00001868,0.
 00009866,0.00115599,-0.01655637,-0.01815503,0.00169559,0.14262262,0.25
 135276,-0.03437275,0.00623213,0.00079354,0.07071557,-0.03882788,-0.003
 15629,0.06351337,-0.04795957,-0.00202129,0.00137670,0.00045360,0.00039
 144,0.00139898,0.00036222,-0.00041086,-0.00057415,-0.00490047,0.000201
 58,-0.01203361,0.00526949,0.00224659,-0.01048564,0.00435065,-0.0016845
 2,-0.06166110,-0.00686517,0.00325821,0.00026542,-0.02645200,-0.0177273
 7,0.00109050,-0.02334250,-0.00150024,0.00476952,-0.00086064,-0.0002380
 1,-0.00038702,-0.00069696,-0.00013813,0.00038066,-0.00314621,-0.001027
 39,0.00007230,0.01208556,-0.00621919,-0.00085389,0.01209447,-0.0062830
 5,0.00048169,0.05912379,0.03266323,0.00063807,-0.00001053,-0.00002462,
 0.00110984,-0.00037603,-0.03507286,0.00218778,0.00327469,-0.03477131,-
 0.00074939,-0.00014667,0.00000861,0.00064211,-0.00002184,-0.00002905,0
 .00003121,0.00002403,0.00076323,-0.01404964,0.00731234,-0.00026878,0.0
 1365909,-0.00680240,-0.00088848,0.00190740,-0.00371208,0.06996955,-0.0
 0070348,0.00038817,-0.00009526,-0.00002666,-0.00131493,-0.00009454,-0.
 09521324,-0.09663089,0.09778496,0.00010536,0.00006715,0.00011929,0.000
 31560,0.00023001,-0.00017664,0.00021267,0.00001020,-0.00000768,-0.0001
 0029,0.00035874,-0.00055564,0.00032466,-0.00019266,-0.00012805,-0.0099
 3311,-0.01434339,0.01467930,0.09929115,0.00096641,-0.00034107,0.000041
 42,-0.00233737,0.00254918,-0.00153260,-0.11642726,-0.18659461,0.185299
 85,-0.00003500,-0.00010917,0.00002838,0.00008946,-0.00004029,-0.000099
 87,-0.00001624,0.00020868,-0.00000960,-0.00033246,0.00032124,0.0001207
 5,0.00058015,-0.00009668,-0.00001171,0.00881942,-0.00116127,-0.0030547
 2,0.10512943,0.18051791,-0.00049396,0.00044005,-0.00001527,0.00171049,
 -0.00112870,-0.00038814,0.08099167,0.13296910,-0.19597288,-0.00002979,
 -0.00010901,0.00000766,0.00004011,-0.00006407,-0.00001284,-0.00013914,
 -0.00019744,0.00000290,-0.00039064,0.00022567,0.00022904,0.00000743,0.
 00011766,-0.00018594,-0.00250143,0.00079294,0.00092497,-0.09863997,-0.
 16346347,0.22251290,-0.00066558,0.00029276,-0.00004207,0.00015173,-0.0
 0138818,-0.00026523,-0.06939960,-0.04266885,-0.09838999,0.00028930,0.0
 0022463,0.00014799,-0.00008296,-0.00006799,-0.00002615,0.00015328,-0.0
 0003676,0.00006166,0.00019153,-0.00027674,0.00036560,0.00006795,0.0004
 1286,0.00048140,-0.00794426,-0.00759694,-0.02005576,0.00572735,0.00356
 344,0.01944521,0.07151127,0.00040895,0.00001767,-0.00031286,-0.0015299
 1,0.00141762,0.00257843,-0.06004551,-0.07763566,-0.14705273,0.00012913
 ,-0.00004684,0.00006145,-0.00015502,-0.00011930,0.00008542,-0.00008133
 ,0.00000797,0.00005523,0.00075319,-0.00017168,-0.00017073,-0.00039605,
 0.00025446,-0.00023330,0.00707664,-0.00162680,0.00351321,0.00629817,0.
 00474609,0.03041727,0.04754176,0.07315647,0.00058260,-0.00040764,0.000
 09146,-0.00249677,0.00144678,0.00046229,-0.08853930,-0.09203387,-0.330
 96552,0.00003451,0.00008098,0.00001939,0.00002416,0.00006916,-0.000033
 58,0.00012531,0.00022883,-0.00002773,0.00048330,-0.00022241,-0.0000882
 8,0.00016081,-0.00000198,0.00034116,0.00423383,-0.00290004,-0.00061126
 ,-0.01288578,-0.01731843,-0.02710240,0.09827733,0.11105862,0.35791447\
 \-0.00001874,-0.00001490,0.00000837,0.00005855,0.00001129,-0.00003356,
 0.00003710,-0.00002409,-0.00001268,0.00000390,0.00000283,-0.00000046,0
 .00000264,0.00000161,-0.00000373,0.00000396,-0.00000159,-0.00000108,-0
 .00002341,-0.00000096,0.00000667,0.00000704,-0.00000045,-0.00000008,-0
 .00006525,0.00001975,0.00002812,-0.00000089,0.00000764,-0.00000180,-0.
 00000491,-0.00000115,0.00001024\\\@


 PICNIC:  A SNACK IN THE GRASS.
 Job cpu time:       0 days  0 hours  7 minutes 49.4 seconds.
 Elapsed time:       0 days  0 hours  0 minutes 53.8 seconds.
 File lengths (MBytes):  RWF=     15 Int=      0 D2E=      0 Chk=      2 Scr=      1
 Normal termination of Gaussian 16 at Wed Oct  7 14:39:38 2020.
