 Entering Gaussian System, Link 0=g16
 Input=MN_12_c2h5_lower_BH76_PBE_631Gs.in
 Output=MN_12_c2h5_lower_BH76_PBE_631Gs.log
 Initial command:
 /udrive/faculty/rpeverati/g16/g16/l1.exe "/udrive/scratch-directories/gaussian09/rpeverati/Gau-21835.inp" -scrdir="/udrive/scratch-directories/gaussian09/rpeverati/"
 Entering Link 1 = /udrive/faculty/rpeverati/g16/g16/l1.exe PID=     21852.
  
 Copyright (c) 1988,1990,1992,1993,1995,1998,2003,2009,2016,
            Gaussian, Inc.  All Rights Reserved.
  
 This is part of the Gaussian(R) 16 program.  It is based on
 the Gaussian(R) 09 system (copyright 2009, Gaussian, Inc.),
 the Gaussian(R) 03 system (copyright 2003, Gaussian, Inc.),
 the Gaussian(R) 98 system (copyright 1998, Gaussian, Inc.),
 the Gaussian(R) 94 system (copyright 1995, Gaussian, Inc.),
 the Gaussian 92(TM) system (copyright 1992, Gaussian, Inc.),
 the Gaussian 90(TM) system (copyright 1990, Gaussian, Inc.),
 the Gaussian 88(TM) system (copyright 1988, Gaussian, Inc.),
 the Gaussian 86(TM) system (copyright 1986, Carnegie Mellon
 University), and the Gaussian 82(TM) system (copyright 1983,
 Carnegie Mellon University). Gaussian is a federally registered
 trademark of Gaussian, Inc.
  
 This software contains proprietary and confidential information,
 including trade secrets, belonging to Gaussian, Inc.
  
 This software is provided under written license and may be
 used, copied, transmitted, or stored only in accord with that
 written license.
  
 The following legend is applicable only to US Government
 contracts under FAR:
  
                    RESTRICTED RIGHTS LEGEND
  
 Use, reproduction and disclosure by the US Government is
 subject to restrictions as set forth in subparagraphs (a)
 and (c) of the Commercial Computer Software - Restricted
 Rights clause in FAR 52.227-19.
  
 Gaussian, Inc.
 340 Quinnipiac St., Bldg. 40, Wallingford CT 06492
  
  
 ---------------------------------------------------------------
 Warning -- This program may not be used in any manner that
 competes with the business of Gaussian, Inc. or will provide
 assistance to any competitor of Gaussian, Inc.  The licensee
 of this program is prohibited from giving any competitor of
 Gaussian, Inc. access to this program.  By using this program,
 the user acknowledges that Gaussian, Inc. is engaged in the
 business of creating and licensing software in the field of
 computational chemistry and represents and warrants to the
 licensee that it is not a competitor of Gaussian, Inc. and that
 it will not use this program in any manner prohibited above.
 ---------------------------------------------------------------
  

 Cite this work as:
 Gaussian 16, Revision A.03,
 M. J. Frisch, G. W. Trucks, H. B. Schlegel, G. E. Scuseria, 
 M. A. Robb, J. R. Cheeseman, G. Scalmani, V. Barone, 
 G. A. Petersson, H. Nakatsuji, X. Li, M. Caricato, A. V. Marenich, 
 J. Bloino, B. G. Janesko, R. Gomperts, B. Mennucci, H. P. Hratchian, 
 J. V. Ortiz, A. F. Izmaylov, J. L. Sonnenberg, D. Williams-Young, 
 F. Ding, F. Lipparini, F. Egidi, J. Goings, B. Peng, A. Petrone, 
 T. Henderson, D. Ranasinghe, V. G. Zakrzewski, J. Gao, N. Rega, 
 G. Zheng, W. Liang, M. Hada, M. Ehara, K. Toyota, R. Fukuda, 
 J. Hasegawa, M. Ishida, T. Nakajima, Y. Honda, O. Kitao, H. Nakai, 
 T. Vreven, K. Throssell, J. A. Montgomery, Jr., J. E. Peralta, 
 F. Ogliaro, M. J. Bearpark, J. J. Heyd, E. N. Brothers, K. N. Kudin, 
 V. N. Staroverov, T. A. Keith, R. Kobayashi, J. Normand, 
 K. Raghavachari, A. P. Rendell, J. C. Burant, S. S. Iyengar, 
 J. Tomasi, M. Cossi, J. M. Millam, M. Klene, C. Adamo, R. Cammi, 
 J. W. Ochterski, R. L. Martin, K. Morokuma, O. Farkas, 
 J. B. Foresman, and D. J. Fox, Gaussian, Inc., Wallingford CT, 2016.
 
 ******************************************
 Gaussian 16:  ES64L-G16RevA.03 25-Dec-2016
                 7-Oct-2020 
 ******************************************
 %NoSave
 %nproc=12
 Will use up to   12 processors via shared memory.
 %mem=20GB
 %chk=MN_12_c2h5_lower_BH76_PBE_631Gs
 ----------------------------------------------------------------------
 #P Opt(MaxCyc=100) PBEPBE/6-31G* 5D 7F Integral=UltraFineGrid SCF=(NoS
 ymm,XQC,MaxCyc=120) IOp(1/33=1)
 ----------------------------------------------------------------------
 1/6=100,18=20,19=15,26=4,33=1,38=1/1,3;
 2/9=110,12=2,17=6,18=5,40=1/2;
 3/5=1,6=6,7=1,8=11,11=2,25=1,30=1,71=1,74=1009,75=-5/1,2,3;
 4/9=2/1;
 5/5=2,7=120,8=3,13=1,38=5/2,8;
 6/7=2,8=2,9=2,10=2,28=1/1;
 7//1,2,3,16;
 1/6=100,18=20,19=15,26=4,33=1/3(2);
 2/9=110/2;
 99//99;
 2/9=110/2;
 3/5=1,6=6,7=1,8=11,11=2,25=1,30=1,71=1,74=1009,75=-5/1,2,3;
 4/5=5,9=2,16=3,69=1/1;
 5/5=2,7=120,8=3,13=1,38=5/2,8;
 7//1,2,3,16;
 1/6=100,18=20,19=15,26=4,33=1/3(-5);
 2/9=110/2;
 6/7=2,8=2,9=2,10=2,19=2,28=1/1;
 99/9=1/99;
 Leave Link    1 at Wed Oct  7 16:07:33 2020, MaxMem=  2684354560 cpu:               3.8 elap:               0.4
 (Enter /udrive/faculty/rpeverati/g16/g16/l101.exe)
 ONIOM data not found on unit 2.
 ------------------
 TS search on BH76.
 ------------------
 TstMul:  ICh=     0
 TstMul:  Mul=     2
 TstMul:  ICh=     0
 TstMul:  Mul=     2
 Symbolic Z-matrix:
 Charge =  0 Multiplicity = 2
 C                    -0.01058  -0.69586   0. 
 C                    -0.01058   0.79518   0. 
 H                     1.00908  -1.09968   0. 
 H                    -0.50862  -1.09548   0.88342 
 H                    -0.50862  -1.09548  -0.88342 
 H                     0.06753   1.34734  -0.92432 
 H                     0.06753   1.34734   0.92432 
 
 RdStrC is calling ZToCFu for IStruc=1 NZ=     7.
 PrtBox:  NBox=     1 Levels=  1 BoxLen=    8.00 SMaxX=        4.62
          Shift=            0.961153            2.078100            1.746710
 Box      1 Number                   0 centers from      1 to      7:
 After GenITR:
 ITRead=  0  0  0  0  0  0  0
 MicOpt= -1 -1 -1 -1 -1 -1 -1
 ITRead=  0  0  0  0  0  0  0
 MicOpt= -1 -1 -1 -1 -1 -1 -1
 NAtoms=      7 NQM=        7 NQMF=       0 NMMI=      0 NMMIF=      0
                NMic=       0 NMicF=      0.
                    Isotopes and Nuclear Properties:
 (Nuclear quadrupole moments (NQMom) in fm**2, nuclear magnetic moments (NMagM)
  in nuclear magnetons)

  Atom         1           2           3           4           5           6           7
 IAtWgt=          12          12           1           1           1           1           1
 AtmWgt=  12.0000000  12.0000000   1.0078250   1.0078250   1.0078250   1.0078250   1.0078250
 NucSpn=           0           0           1           1           1           1           1
 AtZEff=   0.0000000   0.0000000   0.0000000   0.0000000   0.0000000   0.0000000   0.0000000
 NQMom=    0.0000000   0.0000000   0.0000000   0.0000000   0.0000000   0.0000000   0.0000000
 NMagM=    0.0000000   0.0000000   2.7928460   2.7928460   2.7928460   2.7928460   2.7928460
 AtZNuc=   6.0000000   6.0000000   1.0000000   1.0000000   1.0000000   1.0000000   1.0000000
 No MM parameters found.
 Leave Link  101 at Wed Oct  7 16:07:34 2020, MaxMem=  2684354560 cpu:               7.9 elap:               0.8
 (Enter /udrive/faculty/rpeverati/g16/g16/l103.exe)

 GradGradGradGradGradGradGradGradGradGradGradGradGradGradGradGradGradGrad
 Berny optimization.
 Optmz: redundant internal coordinate code flag= 1
 Initialization pass.
                           ----------------------------
                           !    Initial Parameters    !
                           ! (Angstroms and Degrees)  !
 --------------------------                            --------------------------
 ! Name  Definition              Value          Derivative Info.                !
 --------------------------------------------------------------------------------
 ! R1    R(1,2)                  1.491          estimate D2E/DX2                !
 ! R2    R(1,3)                  1.0967         estimate D2E/DX2                !
 ! R3    R(1,4)                  1.09           estimate D2E/DX2                !
 ! R4    R(1,5)                  1.09           estimate D2E/DX2                !
 ! R5    R(2,6)                  1.0795         estimate D2E/DX2                !
 ! R6    R(2,7)                  1.0795         estimate D2E/DX2                !
 ! A1    A(2,1,3)              111.6056         estimate D2E/DX2                !
 ! A2    A(2,1,4)              111.507          estimate D2E/DX2                !
 ! A3    A(2,1,5)              111.507          estimate D2E/DX2                !
 ! A4    A(3,1,4)              106.8467         estimate D2E/DX2                !
 ! A5    A(3,1,5)              106.8467         estimate D2E/DX2                !
 ! A6    A(4,1,5)              108.2798         estimate D2E/DX2                !
 ! A7    A(1,2,6)              120.7631         estimate D2E/DX2                !
 ! A8    A(1,2,7)              120.7631         estimate D2E/DX2                !
 ! A9    A(6,2,7)              117.7935         estimate D2E/DX2                !
 ! D1    D(3,1,2,6)             85.17           estimate D2E/DX2                !
 ! D2    D(3,1,2,7)            -85.17           estimate D2E/DX2                !
 ! D3    D(4,1,2,6)           -155.4169         estimate D2E/DX2                !
 ! D4    D(4,1,2,7)             34.243          estimate D2E/DX2                !
 ! D5    D(5,1,2,6)            -34.243          estimate D2E/DX2                !
 ! D6    D(5,1,2,7)            155.4169         estimate D2E/DX2                !
 --------------------------------------------------------------------------------
 Maximum allowed force set to 1.00D+20.
 Trust Radius=3.00D-01 FncErr=1.00D-07 GrdErr=1.00D-06 EigMax=2.50D+02 EigMin=1.00D-04
 Number of steps in this run=    100 maximum allowed number of steps=    100.
 GradGradGradGradGradGradGradGradGradGradGradGradGradGradGradGradGradGrad

 Leave Link  103 at Wed Oct  7 16:07:35 2020, MaxMem=  2684354560 cpu:               1.2 elap:               0.5
 (Enter /udrive/faculty/rpeverati/g16/g16/l202.exe)
                          Input orientation:                          
 ---------------------------------------------------------------------
 Center     Atomic      Atomic             Coordinates (Angstroms)
 Number     Number       Type             X           Y           Z
 ---------------------------------------------------------------------
      1          6           0       -0.010575   -0.695857    0.000000
      2          6           0       -0.010575    0.795184    0.000000
      3          1           0        1.009083   -1.099683    0.000000
      4          1           0       -0.508620   -1.095481    0.883419
      5          1           0       -0.508620   -1.095481   -0.883419
      6          1           0        0.067529    1.347343   -0.924319
      7          1           0        0.067529    1.347343    0.924319
 ---------------------------------------------------------------------
                    Distance matrix (angstroms):
                    1          2          3          4          5
     1  C    0.000000
     2  C    1.491041   0.000000
     3  H    1.096712   2.151795   0.000000
     4  H    1.090036   2.145482   1.756095   0.000000
     5  H    1.090036   2.145482   1.756095   1.766838   0.000000
     6  H    2.243911   1.079512   2.780077   3.093099   2.510182
     7  H    2.243911   1.079512   2.780077   2.510182   3.093099
                    6          7
     6  H    0.000000
     7  H    1.848638   0.000000
 Stoichiometry    C2H5(2)
 Framework group  CS[SG(C2H),X(H4)]
 Deg. of freedom     9
 Full point group                 CS      NOp   2
 Largest Abelian subgroup         CS      NOp   2
 Largest concise Abelian subgroup CS      NOp   2
                         Standard orientation:                         
 ---------------------------------------------------------------------
 Center     Atomic      Atomic             Coordinates (Angstroms)
 Number     Number       Type             X           Y           Z
 ---------------------------------------------------------------------
      1          6           0       -0.010575   -0.695857    0.000000
      2          6           0       -0.010575    0.795184   -0.000000
      3          1           0        1.009083   -1.099683    0.000000
      4          1           0       -0.508620   -1.095481    0.883419
      5          1           0       -0.508620   -1.095481   -0.883419
      6          1           0        0.067529    1.347343   -0.924319
      7          1           0        0.067529    1.347343    0.924319
 ---------------------------------------------------------------------
 Rotational constants (GHZ):         104.1481796          22.7216789          21.0750208
 Leave Link  202 at Wed Oct  7 16:07:36 2020, MaxMem=  2684354560 cpu:               2.0 elap:               0.6
 (Enter /udrive/faculty/rpeverati/g16/g16/l301.exe)
 Standard basis: 6-31G(d) (5D, 7F)
 Ernie: Thresh=  0.10000D-02 Tol=  0.10000D-05 Strict=F.
 There are    28 symmetry adapted cartesian basis functions of A'  symmetry.
 There are    12 symmetry adapted cartesian basis functions of A"  symmetry.
 There are    26 symmetry adapted basis functions of A'  symmetry.
 There are    12 symmetry adapted basis functions of A"  symmetry.
    38 basis functions,    76 primitive gaussians,    40 cartesian basis functions
     9 alpha electrons        8 beta electrons
       nuclear repulsion energy        36.9778142119 Hartrees.
 IExCor= 1009 DFT=T Ex=PBE Corr=PBE ExCW=0 ScaHFX=  0.000000
 ScaDFX=  1.000000  1.000000  1.000000  1.000000 ScalE2=  1.000000  1.000000
 IRadAn=      5 IRanWt=     -1 IRanGd=            0 ICorTp=0 IEmpDi=  4
 NAtoms=    7 NActive=    7 NUniq=    5 SFac= 1.96D+00 NAtFMM=   60 NAOKFM=F Big=F
 Integral buffers will be    131072 words long.
 Raffenetti 2 integral format.
 Two-electron integral symmetry is turned on.
 Leave Link  301 at Wed Oct  7 16:07:36 2020, MaxMem=  2684354560 cpu:               1.7 elap:               0.4
 (Enter /udrive/faculty/rpeverati/g16/g16/l302.exe)
 NPDir=0 NMtPBC=     1 NCelOv=     1 NCel=       1 NClECP=     1 NCelD=      1
         NCelK=      1 NCelE2=     1 NClLst=     1 CellRange=     0.0.
 One-electron integrals computed using PRISM.
 One-electron integral symmetry used in STVInt
 NBasis=    38 RedAO= T EigKep=  1.05D-02  NBF=    26    12
 NBsUse=    38 1.00D-06 EigRej= -1.00D+00 NBFU=    26    12
 Precomputing XC quadrature grid using
 IXCGrd= 4 IRadAn=           5 IRanWt=          -1 IRanGd=           0 AccXCQ= 0.00D+00.
 Generated NRdTot=       0 NPtTot=           0 NUsed=           0 NTot=          32
 NSgBfM=    40    40    40    40    40 MxSgAt=     7 MxSgA2=     7.
 Leave Link  302 at Wed Oct  7 16:07:37 2020, MaxMem=  2684354560 cpu:               3.6 elap:               0.7
 (Enter /udrive/faculty/rpeverati/g16/g16/l303.exe)
 DipDrv:  MaxL=1.
 Leave Link  303 at Wed Oct  7 16:07:38 2020, MaxMem=  2684354560 cpu:               1.0 elap:               0.4
 (Enter /udrive/faculty/rpeverati/g16/g16/l401.exe)
 SCF N**3 symmetry information disabled.
 ExpMin= 1.61D-01 ExpMax= 3.05D+03 ExpMxC= 4.57D+02 IAcc=3 IRadAn=         5 AccDes= 0.00D+00
 Harris functional with IExCor= 1009 and IRadAn=       5 diagonalized for initial guess.
 HarFok:  IExCor= 1009 AccDes= 0.00D+00 IRadAn=         5 IDoV= 1 UseB2=F ITyADJ=14
 ICtDFT=  3500011 ScaDFX=  1.000000  1.000000  1.000000  1.000000
 FoFCou: FMM=F IPFlag=           0 FMFlag=      100000 FMFlg1=           0
         NFxFlg=           0 DoJE=T BraDBF=F KetDBF=T FulRan=T
         wScrn=  0.000000 ICntrl=       500 IOpCl=  0 I1Cent=   200000004 NGrid=           0
         NMat0=    1 NMatS0=      1 NMatT0=    0 NMatD0=    1 NMtDS0=    0 NMtDT0=    0
 Petite list used in FoFCou.
 Harris En= -79.0853521227161    
 JPrj=0 DoOrth=F DoCkMO=F.
 Initial guess orbital symmetries:
 Alpha Orbitals:
       Occupied  (A') (A') (A') (A') (A") (A') (A') (A") (A')
       Virtual   (A') (A") (A') (A') (A') (A") (A') (A") (A') (A')
                 (A') (A") (A') (A') (A") (A") (A') (A') (A') (A')
                 (A") (A") (A') (A') (A") (A') (A') (A") (A')
 Beta  Orbitals:
       Occupied  (A') (A') (A') (A') (A") (A') (A') (A")
       Virtual   (A') (A') (A") (A') (A') (A') (A") (A') (A") (A')
                 (A') (A') (A") (A') (A') (A") (A") (A') (A') (A')
                 (A') (A") (A") (A') (A') (A") (A') (A') (A") (A')
 The electronic state of the initial guess is 2-A'.
 Initial guess <Sx>= 0.0000 <Sy>= 0.0000 <Sz>= 0.5000 <S**2>= 0.7500 S= 0.5000
 Leave Link  401 at Wed Oct  7 16:07:39 2020, MaxMem=  2684354560 cpu:               5.4 elap:               0.8
 (Enter /udrive/faculty/rpeverati/g16/g16/l502.exe)
 Keep J ints in memory in symmetry-blocked form, NReq=10633654.
 FoFCou: FMM=F IPFlag=           0 FMFlag=           0 FMFlg1=           0
         NFxFlg=           0 DoJE=F BraDBF=F KetDBF=F FulRan=T
         wScrn=  0.000000 ICntrl=       600 IOpCl=  0 I1Cent=           0 NGrid=           0
         NMat0=    1 NMatS0=    741 NMatT0=    0 NMatD0=    1 NMtDS0=    0 NMtDT0=    0
 Petite list used in FoFCou.
 UHF open shell SCF:
 Using DIIS extrapolation, IDIIS=  1040.
 NGot=  2684354560 LenX=  2684207108 LenY=  2684205067
 Requested convergence on RMS density matrix=1.00D-08 within 120 cycles.
 Requested convergence on MAX density matrix=1.00D-06.
 Requested convergence on             energy=1.00D-06.
 No special actions if energy rises.
 Integral accuracy reduced to 1.0D-05 until final iterations.

 Cycle   1  Pass 0  IDiag  1:
 E= -78.9440038249354    
 DIIS: error= 5.75D-02 at cycle   1 NSaved=   1.
 NSaved= 1 IEnMin= 1 EnMin= -78.9440038249354     IErMin= 1 ErrMin= 5.75D-02
 ErrMax= 5.75D-02  0.00D+00 EMaxC= 1.00D-01 BMatC= 2.88D-01 BMatP= 2.88D-01
 IDIUse=3 WtCom= 4.25D-01 WtEn= 5.75D-01
 Coeff-Com:  0.100D+01
 Coeff-En:   0.100D+01
 Coeff:      0.100D+01
 Gap=     0.190 Goal=   None    Shift=    0.000
 Gap=     0.248 Goal=   None    Shift=    0.000
 GapD=    0.190 DampG=1.000 DampE=0.500 DampFc=0.5000 IDamp=-1.
 Damping current iteration by 5.00D-01
 RMSDP=1.72D-02 MaxDP=1.54D-01              OVMax= 1.95D-01

 Cycle   2  Pass 0  IDiag  1:
 E= -78.9751828523713     Delta-E=       -0.031179027436 Rises=F Damp=T
 DIIS: error= 8.93D-03 at cycle   2 NSaved=   2.
 NSaved= 2 IEnMin= 2 EnMin= -78.9751828523713     IErMin= 2 ErrMin= 8.93D-03
 ErrMax= 8.93D-03  0.00D+00 EMaxC= 1.00D-01 BMatC= 1.58D-02 BMatP= 2.88D-01
 IDIUse=3 WtCom= 9.11D-01 WtEn= 8.93D-02
 Coeff-Com:  0.163D+00 0.837D+00
 Coeff-En:   0.263D+00 0.737D+00
 Coeff:      0.172D+00 0.828D+00
 Gap=     0.242 Goal=   None    Shift=    0.000
 Gap=     0.267 Goal=   None    Shift=    0.000
 RMSDP=2.26D-03 MaxDP=2.57D-02 DE=-3.12D-02 OVMax= 1.15D-01

 Cycle   3  Pass 0  IDiag  1:
 E= -79.0282795885412     Delta-E=       -0.053096736170 Rises=F Damp=F
 DIIS: error= 2.00D-03 at cycle   3 NSaved=   3.
 NSaved= 3 IEnMin= 3 EnMin= -79.0282795885412     IErMin= 3 ErrMin= 2.00D-03
 ErrMax= 2.00D-03  0.00D+00 EMaxC= 1.00D-01 BMatC= 5.22D-04 BMatP= 1.58D-02
 IDIUse=3 WtCom= 9.80D-01 WtEn= 2.00D-02
 Coeff-Com:  0.285D-01 0.144D+00 0.827D+00
 Coeff-En:   0.000D+00 0.000D+00 0.100D+01
 Coeff:      0.279D-01 0.141D+00 0.831D+00
 Gap=     0.249 Goal=   None    Shift=    0.000
 Gap=     0.238 Goal=   None    Shift=    0.000
 RMSDP=4.70D-04 MaxDP=6.64D-03 DE=-5.31D-02 OVMax= 6.04D-03

 Cycle   4  Pass 0  IDiag  1:
 E= -79.0283995114357     Delta-E=       -0.000119922895 Rises=F Damp=F
 DIIS: error= 1.00D-03 at cycle   4 NSaved=   4.
 NSaved= 4 IEnMin= 4 EnMin= -79.0283995114357     IErMin= 4 ErrMin= 1.00D-03
 ErrMax= 1.00D-03  0.00D+00 EMaxC= 1.00D-01 BMatC= 1.44D-04 BMatP= 5.22D-04
 IDIUse=3 WtCom= 9.90D-01 WtEn= 1.00D-02
 Coeff-Com:  0.254D-02 0.953D-02 0.324D+00 0.664D+00
 Coeff-En:   0.000D+00 0.000D+00 0.000D+00 0.100D+01
 Coeff:      0.252D-02 0.943D-02 0.321D+00 0.667D+00
 Gap=     0.248 Goal=   None    Shift=    0.000
 Gap=     0.240 Goal=   None    Shift=    0.000
 RMSDP=1.96D-04 MaxDP=2.50D-03 DE=-1.20D-04 OVMax= 3.17D-03

 Cycle   5  Pass 0  IDiag  1:
 E= -79.0284308287894     Delta-E=       -0.000031317354 Rises=F Damp=F
 DIIS: error= 4.75D-04 at cycle   5 NSaved=   5.
 NSaved= 5 IEnMin= 5 EnMin= -79.0284308287894     IErMin= 5 ErrMin= 4.75D-04
 ErrMax= 4.75D-04  0.00D+00 EMaxC= 1.00D-01 BMatC= 3.36D-05 BMatP= 1.44D-04
 IDIUse=3 WtCom= 9.95D-01 WtEn= 4.75D-03
 Coeff-Com: -0.285D-02-0.158D-01 0.587D-01 0.354D+00 0.606D+00
 Coeff-En:   0.000D+00 0.000D+00 0.000D+00 0.118D+00 0.882D+00
 Coeff:     -0.284D-02-0.157D-01 0.584D-01 0.353D+00 0.607D+00
 Gap=     0.248 Goal=   None    Shift=    0.000
 Gap=     0.240 Goal=   None    Shift=    0.000
 RMSDP=7.32D-05 MaxDP=1.11D-03 DE=-3.13D-05 OVMax= 1.18D-03

 Cycle   6  Pass 0  IDiag  1:
 E= -79.0284399063290     Delta-E=       -0.000009077540 Rises=F Damp=F
 DIIS: error= 6.15D-05 at cycle   6 NSaved=   6.
 NSaved= 6 IEnMin= 6 EnMin= -79.0284399063290     IErMin= 6 ErrMin= 6.15D-05
 ErrMax= 6.15D-05  0.00D+00 EMaxC= 1.00D-01 BMatC= 5.01D-07 BMatP= 3.36D-05
 IDIUse=1 WtCom= 1.00D+00 WtEn= 0.00D+00
 Coeff-Com: -0.345D-03-0.159D-02-0.273D-01-0.434D-01 0.446D-01 0.103D+01
 Coeff:     -0.345D-03-0.159D-02-0.273D-01-0.434D-01 0.446D-01 0.103D+01
 Gap=     0.248 Goal=   None    Shift=    0.000
 Gap=     0.240 Goal=   None    Shift=    0.000
 RMSDP=1.52D-05 MaxDP=1.96D-04 DE=-9.08D-06 OVMax= 2.34D-04

 Cycle   7  Pass 0  IDiag  1:
 E= -79.0284401371415     Delta-E=       -0.000000230813 Rises=F Damp=F
 DIIS: error= 7.46D-06 at cycle   7 NSaved=   7.
 NSaved= 7 IEnMin= 7 EnMin= -79.0284401371415     IErMin= 7 ErrMin= 7.46D-06
 ErrMax= 7.46D-06  0.00D+00 EMaxC= 1.00D-01 BMatC= 1.02D-08 BMatP= 5.01D-07
 IDIUse=1 WtCom= 1.00D+00 WtEn= 0.00D+00
 Coeff-Com:  0.107D-03 0.702D-03-0.351D-02-0.158D-01-0.205D-01 0.383D-01
 Coeff-Com:  0.100D+01
 Coeff:      0.107D-03 0.702D-03-0.351D-02-0.158D-01-0.205D-01 0.383D-01
 Coeff:      0.100D+01
 Gap=     0.248 Goal=   None    Shift=    0.000
 Gap=     0.240 Goal=   None    Shift=    0.000
 RMSDP=2.83D-06 MaxDP=3.04D-05 DE=-2.31D-07 OVMax= 3.83D-05

 Initial convergence to 1.0D-05 achieved.  Increase integral accuracy.
 Cycle   8  Pass 1  IDiag  1:
 E= -79.0284406311228     Delta-E=       -0.000000493981 Rises=F Damp=F
 DIIS: error= 3.10D-06 at cycle   1 NSaved=   1.
 NSaved= 1 IEnMin= 1 EnMin= -79.0284406311228     IErMin= 1 ErrMin= 3.10D-06
 ErrMax= 3.10D-06  0.00D+00 EMaxC= 1.00D-01 BMatC= 1.40D-09 BMatP= 1.40D-09
 IDIUse=1 WtCom= 1.00D+00 WtEn= 0.00D+00
 Coeff-Com:  0.100D+01
 Coeff:      0.100D+01
 Gap=     0.248 Goal=   None    Shift=    0.000
 Gap=     0.240 Goal=   None    Shift=    0.000
 RMSDP=2.83D-06 MaxDP=3.04D-05 DE=-4.94D-07 OVMax= 1.84D-05

 Cycle   9  Pass 1  IDiag  1:
 E= -79.0284406314621     Delta-E=       -0.000000000339 Rises=F Damp=F
 DIIS: error= 2.31D-06 at cycle   2 NSaved=   2.
 NSaved= 2 IEnMin= 2 EnMin= -79.0284406314621     IErMin= 2 ErrMin= 2.31D-06
 ErrMax= 2.31D-06  0.00D+00 EMaxC= 1.00D-01 BMatC= 6.42D-10 BMatP= 1.40D-09
 IDIUse=1 WtCom= 1.00D+00 WtEn= 0.00D+00
 Coeff-Com:  0.394D+00 0.606D+00
 Coeff:      0.394D+00 0.606D+00
 Gap=     0.248 Goal=   None    Shift=    0.000
 Gap=     0.240 Goal=   None    Shift=    0.000
 RMSDP=5.82D-07 MaxDP=8.56D-06 DE=-3.39D-10 OVMax= 8.01D-06

 Cycle  10  Pass 1  IDiag  1:
 E= -79.0284406316586     Delta-E=       -0.000000000197 Rises=F Damp=F
 DIIS: error= 4.26D-07 at cycle   3 NSaved=   3.
 NSaved= 3 IEnMin= 3 EnMin= -79.0284406316586     IErMin= 3 ErrMin= 4.26D-07
 ErrMax= 4.26D-07  0.00D+00 EMaxC= 1.00D-01 BMatC= 2.63D-11 BMatP= 6.42D-10
 IDIUse=1 WtCom= 1.00D+00 WtEn= 0.00D+00
 Coeff-Com:  0.613D-01 0.174D+00 0.765D+00
 Coeff:      0.613D-01 0.174D+00 0.765D+00
 Gap=     0.248 Goal=   None    Shift=    0.000
 Gap=     0.240 Goal=   None    Shift=    0.000
 RMSDP=1.01D-07 MaxDP=1.47D-06 DE=-1.97D-10 OVMax= 1.30D-06

 Cycle  11  Pass 1  IDiag  1:
 E= -79.0284406316645     Delta-E=       -0.000000000006 Rises=F Damp=F
 DIIS: error= 2.62D-07 at cycle   4 NSaved=   4.
 NSaved= 4 IEnMin= 4 EnMin= -79.0284406316645     IErMin= 4 ErrMin= 2.62D-07
 ErrMax= 2.62D-07  0.00D+00 EMaxC= 1.00D-01 BMatC= 1.06D-11 BMatP= 2.63D-11
 IDIUse=1 WtCom= 1.00D+00 WtEn= 0.00D+00
 Coeff-Com: -0.312D-01-0.228D-02 0.412D+00 0.621D+00
 Coeff:     -0.312D-01-0.228D-02 0.412D+00 0.621D+00
 Gap=     0.248 Goal=   None    Shift=    0.000
 Gap=     0.240 Goal=   None    Shift=    0.000
 RMSDP=4.68D-08 MaxDP=6.29D-07 DE=-5.85D-12 OVMax= 6.07D-07

 Cycle  12  Pass 1  IDiag  1:
 E= -79.0284406316674     Delta-E=       -0.000000000003 Rises=F Damp=F
 DIIS: error= 3.74D-08 at cycle   5 NSaved=   5.
 NSaved= 5 IEnMin= 5 EnMin= -79.0284406316674     IErMin= 5 ErrMin= 3.74D-08
 ErrMax= 3.74D-08  0.00D+00 EMaxC= 1.00D-01 BMatC= 1.90D-13 BMatP= 1.06D-11
 IDIUse=1 WtCom= 1.00D+00 WtEn= 0.00D+00
 Coeff-Com: -0.786D-02-0.137D-01-0.311D-01 0.597D-01 0.993D+00
 Coeff:     -0.786D-02-0.137D-01-0.311D-01 0.597D-01 0.993D+00
 Gap=     0.248 Goal=   None    Shift=    0.000
 Gap=     0.240 Goal=   None    Shift=    0.000
 RMSDP=1.36D-08 MaxDP=1.08D-07 DE=-2.87D-12 OVMax= 1.63D-07

 Cycle  13  Pass 1  IDiag  1:
 E= -79.0284406316674     Delta-E=       -0.000000000000 Rises=F Damp=F
 DIIS: error= 1.98D-08 at cycle   6 NSaved=   6.
 NSaved= 6 IEnMin= 6 EnMin= -79.0284406316674     IErMin= 6 ErrMin= 1.98D-08
 ErrMax= 1.98D-08  0.00D+00 EMaxC= 1.00D-01 BMatC= 3.64D-14 BMatP= 1.90D-13
 IDIUse=1 WtCom= 1.00D+00 WtEn= 0.00D+00
 Coeff-Com: -0.606D-03-0.505D-02-0.425D-01-0.287D-01 0.374D+00 0.703D+00
 Coeff:     -0.606D-03-0.505D-02-0.425D-01-0.287D-01 0.374D+00 0.703D+00
 Gap=     0.248 Goal=   None    Shift=    0.000
 Gap=     0.240 Goal=   None    Shift=    0.000
 RMSDP=4.11D-09 MaxDP=4.42D-08 DE=-5.68D-14 OVMax= 5.54D-08

 SCF Done:  E(UPBE-PBE) =  -79.0284406317     A.U. after   13 cycles
            NFock= 13  Conv=0.41D-08     -V/T= 2.0051
 <Sx>= 0.0000 <Sy>= 0.0000 <Sz>= 0.5000 <S**2>= 0.7535 S= 0.5017
 <L.S>= 0.000000000000E+00
 KE= 7.862555652482D+01 PE=-2.567857156148D+02 EE= 6.215390424639D+01
 Annihilation of the first spin contaminant:
 S**2 before annihilation     0.7535,   after     0.7500
 Leave Link  502 at Wed Oct  7 16:07:42 2020, MaxMem=  2684354560 cpu:              20.7 elap:               2.2
 (Enter /udrive/faculty/rpeverati/g16/g16/l508.exe)
 QCSCF skips out because SCF is already converged.
 Leave Link  508 at Wed Oct  7 16:07:42 2020, MaxMem=  2684354560 cpu:               0.3 elap:               0.4
 (Enter /udrive/faculty/rpeverati/g16/g16/l601.exe)
 Copying SCF densities to generalized density rwf, IOpCl= 1 IROHF=0.

 **********************************************************************

            Population analysis using the SCF density.

 **********************************************************************

 Orbital symmetries:
 Alpha Orbitals:
       Occupied  (A') (A') (A') (A') (A") (A') (A') (A") (A')
       Virtual   (A') (A') (A") (A') (A") (A') (A') (A") (A') (A')
                 (A') (A") (A') (A') (A") (A") (A') (A') (A') (A')
                 (A") (A") (A') (A') (A') (A") (A') (A") (A')
 Beta  Orbitals:
       Occupied  (A') (A') (A') (A') (A") (A') (A') (A")
       Virtual   (A') (A') (A") (A') (A') (A") (A') (A') (A") (A')
                 (A') (A') (A") (A') (A') (A") (A") (A') (A') (A')
                 (A') (A") (A") (A') (A') (A") (A') (A') (A") (A')
 The electronic state is 2-A'.
 Alpha  occ. eigenvalues --   -9.88767  -9.87822  -0.67799  -0.54097  -0.39641
 Alpha  occ. eigenvalues --   -0.36150  -0.33844  -0.30813  -0.15432
 Alpha virt. eigenvalues --    0.09412   0.11792   0.12439   0.15259   0.19622
 Alpha virt. eigenvalues --    0.22564   0.47881   0.50441   0.51495   0.57320
 Alpha virt. eigenvalues --    0.57808   0.70109   0.75093   0.82577   0.83352
 Alpha virt. eigenvalues --    0.89814   0.90268   0.92765   1.23271   1.39748
 Alpha virt. eigenvalues --    1.58090   1.69133   1.85396   1.92411   2.08491
 Alpha virt. eigenvalues --    2.11271   2.25224   2.38005   2.51407
  Beta  occ. eigenvalues --   -9.87896  -9.87424  -0.66375  -0.52036  -0.39003
  Beta  occ. eigenvalues --   -0.35060  -0.33033  -0.30381
  Beta virt. eigenvalues --   -0.06403   0.09903   0.12686   0.13227   0.16004
  Beta virt. eigenvalues --    0.20110   0.23529   0.48588   0.50775   0.55981
  Beta virt. eigenvalues --    0.59087   0.61240   0.70935   0.77095   0.83241
  Beta virt. eigenvalues --    0.83856   0.90156   0.91178   0.95172   1.24450
  Beta virt. eigenvalues --    1.42497   1.64671   1.69771   1.88613   1.96195
  Beta virt. eigenvalues --    2.11801   2.14084   2.27012   2.38717   2.52995
          Condensed to atoms (all electrons):
               1          2          3          4          5          6
     1  C    5.057452   0.395999   0.369755   0.378978   0.378978  -0.037239
     2  C    0.395999   5.276447  -0.046385  -0.034220  -0.034220   0.380128
     3  H    0.369755  -0.046385   0.570350  -0.034951  -0.034951   0.000657
     4  H    0.378978  -0.034220  -0.034951   0.549284  -0.028879   0.004097
     5  H    0.378978  -0.034220  -0.034951  -0.028879   0.549284  -0.005807
     6  H   -0.037239   0.380128   0.000657   0.004097  -0.005807   0.543139
     7  H   -0.037239   0.380128   0.000657  -0.005807   0.004097  -0.038324
               7
     1  C   -0.037239
     2  C    0.380128
     3  H    0.000657
     4  H   -0.005807
     5  H    0.004097
     6  H   -0.038324
     7  H    0.543139
          Atomic-Atomic Spin Densities.
               1          2          3          4          5          6
     1  C   -0.063546  -0.038217   0.015814   0.006483   0.006483  -0.000161
     2  C   -0.038217   1.185325  -0.033617  -0.008707  -0.008707  -0.006332
     3  H    0.015814  -0.033617   0.105749  -0.012134  -0.012134  -0.000463
     4  H    0.006483  -0.008707  -0.012134   0.023396   0.004688   0.000006
     5  H    0.006483  -0.008707  -0.012134   0.004688   0.023396   0.000746
     6  H   -0.000161  -0.006332  -0.000463   0.000006   0.000746  -0.047037
     7  H   -0.000161  -0.006332  -0.000463   0.000746   0.000006   0.002331
               7
     1  C   -0.000161
     2  C   -0.006332
     3  H   -0.000463
     4  H    0.000746
     5  H    0.000006
     6  H    0.002331
     7  H   -0.047037
 Mulliken charges and spin densities:
               1          2
     1  C   -0.506684  -0.073304
     2  C   -0.317876   1.083414
     3  H    0.174867   0.062751
     4  H    0.171498   0.014479
     5  H    0.171498   0.014479
     6  H    0.153348  -0.050910
     7  H    0.153348  -0.050910
 Sum of Mulliken charges =  -0.00000   1.00000
 Mulliken charges and spin densities with hydrogens summed into heavy atoms:
               1          2
     1  C    0.011179   0.018405
     2  C   -0.011179   0.981595
 Electronic spatial extent (au):  <R**2>=             98.2747
 Charge=              0.0000 electrons
 Dipole moment (field-independent basis, Debye):
    X=              0.1351    Y=             -0.2585    Z=              0.0000  Tot=              0.2917
 Quadrupole moment (field-independent basis, Debye-Ang):
   XX=            -14.8604   YY=            -13.9055   ZZ=            -13.3326
   XY=              0.1700   XZ=             -0.0000   YZ=              0.0000
 Traceless Quadrupole moment (field-independent basis, Debye-Ang):
   XX=             -0.8275   YY=              0.1273   ZZ=              0.7002
   XY=              0.1700   XZ=             -0.0000   YZ=              0.0000
 Octapole moment (field-independent basis, Debye-Ang**2):
  XXX=              0.6540  YYY=              0.1894  ZZZ=              0.0000  XYY=              0.2595
  XXY=             -1.4319  XXZ=              0.0000  XZZ=             -0.4307  YZZ=              0.4654
  YYZ=             -0.0000  XYZ=              0.0000
 Hexadecapole moment (field-independent basis, Debye-Ang**3):
 XXXX=            -21.9642 YYYY=            -83.3026 ZZZZ=            -27.0331 XXXY=             -0.8856
 XXXZ=             -0.0000 YYYX=              0.0371 YYYZ=              0.0000 ZZZX=             -0.0000
 ZZZY=             -0.0000 XXYY=            -17.9321 XXZZ=             -8.4445 YYZZ=            -16.3533
 XXYZ=              0.0000 YYXZ=              0.0000 ZZXY=              0.7006
 N-N= 3.697781421193D+01 E-N=-2.567857148121D+02  KE= 7.862555652482D+01
                          Isotropic Fermi Contact Couplings
        Atom                 a.u.       MegaHertz       Gauss      10(-4) cm-1
     1  C(13)             -0.02868     -32.24333     -11.50522     -10.75522
     2  C(13)              0.14171     159.30476      56.84390      53.13835
     3  H(1)               0.03243     144.97594      51.73102      48.35877
     4  H(1)               0.00787      35.17377      12.55088      11.73271
     5  H(1)               0.00787      35.17377      12.55088      11.73271
     6  H(1)              -0.01498     -66.97775     -23.89933     -22.34137
     7  H(1)              -0.01498     -66.97775     -23.89933     -22.34137
 --------------------------------------------------------
       Center         ----  Spin Dipole Couplings  ----
                      3XX-RR        3YY-RR        3ZZ-RR
 --------------------------------------------------------
     1   Atom        0.007204      0.012947     -0.020151
     2   Atom        1.058936     -0.529191     -0.529745
     3   Atom       -0.001018      0.012357     -0.011339
     4   Atom       -0.008218      0.012187     -0.003969
     5   Atom       -0.008218      0.012187     -0.003969
     6   Atom       -0.003296     -0.033402      0.036698
     7   Atom       -0.003296     -0.033402      0.036698
 --------------------------------------------------------
                        XY            XZ            YZ
 --------------------------------------------------------
     1   Atom       -0.004711      0.000000      0.000000
     2   Atom       -0.078922      0.000000     -0.000000
     3   Atom       -0.009923     -0.000000      0.000000
     4   Atom        0.003697     -0.001584     -0.010394
     5   Atom        0.003697      0.001584      0.010394
     6   Atom        0.001209     -0.008024     -0.062499
     7   Atom        0.001209      0.008024      0.062499
 --------------------------------------------------------


 ---------------------------------------------------------------------------------
              Anisotropic Spin Dipole Couplings in Principal Axis System
 ---------------------------------------------------------------------------------

       Atom             a.u.   MegaHertz   Gauss  10(-4) cm-1        Axes

              Baa    -0.0202    -2.704    -0.965    -0.902  0.0000  0.0000  1.0000
     1 C(13)  Bbb     0.0046     0.612     0.218     0.204  0.8719  0.4897 -0.0000
              Bcc     0.0156     2.092     0.747     0.698 -0.4897  0.8719  0.0000
 
              Baa    -0.5331   -71.537   -25.526   -23.862  0.0495  0.9988  0.0000
     2 C(13)  Bbb    -0.5297   -71.087   -25.366   -23.712  0.0000  0.0000  1.0000
              Bcc     1.0628   142.624    50.892    47.574  0.9988 -0.0495  0.0000
 
              Baa    -0.0113    -6.050    -2.159    -2.018  0.0000  0.0000  1.0000
     3 H(1)   Bbb    -0.0063    -3.360    -1.199    -1.121  0.8829  0.4697  0.0000
              Bcc     0.0176     9.410     3.358     3.139 -0.4697  0.8829  0.0000
 
              Baa    -0.0092    -4.894    -1.746    -1.633 -0.5032  0.4470  0.7396
     4 H(1)   Bbb    -0.0087    -4.651    -1.660    -1.552  0.8507  0.1056  0.5150
              Bcc     0.0179     9.546     3.406     3.184  0.1521  0.8883 -0.4334
 
              Baa    -0.0092    -4.894    -1.746    -1.633  0.5032 -0.4470  0.7396
     5 H(1)   Bbb    -0.0087    -4.651    -1.660    -1.552  0.8507  0.1056 -0.5150
              Bcc     0.0179     9.546     3.406     3.184  0.1521  0.8883  0.4334
 
              Baa    -0.0701   -37.426   -13.355   -12.484  0.0453  0.8608  0.5069
     6 H(1)   Bbb    -0.0039    -2.078    -0.741    -0.693  0.9942 -0.0881  0.0608
              Bcc     0.0740    39.504    14.096    13.177 -0.0970 -0.5013  0.8598
 
              Baa    -0.0701   -37.426   -13.355   -12.484  0.0453  0.8608 -0.5069
     7 H(1)   Bbb    -0.0039    -2.078    -0.741    -0.693  0.9942 -0.0881 -0.0608
              Bcc     0.0740    39.504    14.096    13.177  0.0970  0.5013  0.8598
 

 ---------------------------------------------------------------------------------

 No NMR shielding tensors so no spin-rotation constants.
 Leave Link  601 at Wed Oct  7 16:07:44 2020, MaxMem=  2684354560 cpu:               5.7 elap:               0.9
 (Enter /udrive/faculty/rpeverati/g16/g16/l701.exe)
 ... and contract with generalized density number  0.
 Compute integral first derivatives.
 Leave Link  701 at Wed Oct  7 16:07:45 2020, MaxMem=  2684354560 cpu:               4.3 elap:               0.8
 (Enter /udrive/faculty/rpeverati/g16/g16/l702.exe)
 L702 exits ... SP integral derivatives will be done elsewhere.
 Leave Link  702 at Wed Oct  7 16:07:45 2020, MaxMem=  2684354560 cpu:               1.0 elap:               0.3
 (Enter /udrive/faculty/rpeverati/g16/g16/l703.exe)
 Integral derivatives from FoFJK, PRISM(SPDF).
 Compute integral first derivatives, UseDBF=F ICtDFT=           0.
 Calling FoFJK, ICntrl=      2527 FMM=F ISym2X=1 I1Cent= 0 IOpClX= 0 NMat=1 NMatS=1 NMatT=0.
 FoFJK:  IHMeth= 1 ICntrl=    2527 DoSepK=F KAlg= 0 I1Cent=           0 FoldK=F
 IRaf=         0 NMat=       1 IRICut=       1 DoRegI=T DoRafI=F ISym2E= 1 IDoP0=0 IntGTp=1.
 FoFCou: FMM=F IPFlag=           0 FMFlag=      100000 FMFlg1=         800
         NFxFlg=           0 DoJE=F BraDBF=F KetDBF=F FulRan=T
         wScrn=  0.000000 ICntrl=      2527 IOpCl=  0 I1Cent=           0 NGrid=           0
         NMat0=    1 NMatS0=      1 NMatT0=    0 NMatD0=    1 NMtDS0=    0 NMtDT0=    0
 Petite list used in FoFCou.
 Leave Link  703 at Wed Oct  7 16:07:46 2020, MaxMem=  2684354560 cpu:               7.5 elap:               0.9
 (Enter /udrive/faculty/rpeverati/g16/g16/l716.exe)
 Dipole        = 5.31435374D-02-1.01717591D-01 0.00000000D+00
 ***** Axes restored to original set *****
 -------------------------------------------------------------------
 Center     Atomic                   Forces (Hartrees/Bohr)
 Number     Number              X              Y              Z
 -------------------------------------------------------------------
      1        6          -0.001161924    0.012098388    0.000000000
      2        6          -0.001383719   -0.009306285    0.000000000
      3        1           0.008942888   -0.004812260    0.000000000
      4        1          -0.003853573   -0.004191756    0.007617792
      5        1          -0.003853573   -0.004191756   -0.007617792
      6        1           0.000654950    0.005201835   -0.007985621
      7        1           0.000654950    0.005201835    0.007985621
 -------------------------------------------------------------------
 Cartesian Forces:  Max     0.012098388 RMS     0.005785019
 Leave Link  716 at Wed Oct  7 16:07:47 2020, MaxMem=  2684354560 cpu:               1.8 elap:               0.6
 (Enter /udrive/faculty/rpeverati/g16/g16/l103.exe)

 GradGradGradGradGradGradGradGradGradGradGradGradGradGradGradGradGradGrad
 Berny optimization.
 Optmz: redundant internal coordinate code flag= 1
 FormGI is forming the generalized inverse of G from B-inverse, IUseBI=4.
 Internal  Forces:  Max     0.010086556 RMS     0.004733014
 Search for a local minimum.
 Step number   1 out of a maximum of  100
 All quantities printed in internal units (Hartrees-Bohrs-Radians)
 RMS Force = .47330D-02 SwitMx=.10000D-02 MixMth= 1
 Mixed Optimization -- RFO/linear search
 Second derivative matrix not updated -- first step.
 The second derivative matrix:
                          R1        R2        R3        R4        R5
           R1           0.33336
           R2           0.00000   0.34048
           R3           0.00000   0.00000   0.34809
           R4           0.00000   0.00000   0.00000   0.34809
           R5           0.00000   0.00000   0.00000   0.00000   0.36053
           R6           0.00000   0.00000   0.00000   0.00000   0.00000
           A1           0.00000   0.00000   0.00000   0.00000   0.00000
           A2           0.00000   0.00000   0.00000   0.00000   0.00000
           A3           0.00000   0.00000   0.00000   0.00000   0.00000
           A4           0.00000   0.00000   0.00000   0.00000   0.00000
           A5           0.00000   0.00000   0.00000   0.00000   0.00000
           A6           0.00000   0.00000   0.00000   0.00000   0.00000
           A7           0.00000   0.00000   0.00000   0.00000   0.00000
           A8           0.00000   0.00000   0.00000   0.00000   0.00000
           A9           0.00000   0.00000   0.00000   0.00000   0.00000
           D1           0.00000   0.00000   0.00000   0.00000   0.00000
           D2           0.00000   0.00000   0.00000   0.00000   0.00000
           D3           0.00000   0.00000   0.00000   0.00000   0.00000
           D4           0.00000   0.00000   0.00000   0.00000   0.00000
           D5           0.00000   0.00000   0.00000   0.00000   0.00000
           D6           0.00000   0.00000   0.00000   0.00000   0.00000
                          R6        A1        A2        A3        A4
           R6           0.36053
           A1           0.00000   0.16000
           A2           0.00000   0.00000   0.16000
           A3           0.00000   0.00000   0.00000   0.16000
           A4           0.00000   0.00000   0.00000   0.00000   0.16000
           A5           0.00000   0.00000   0.00000   0.00000   0.00000
           A6           0.00000   0.00000   0.00000   0.00000   0.00000
           A7           0.00000   0.00000   0.00000   0.00000   0.00000
           A8           0.00000   0.00000   0.00000   0.00000   0.00000
           A9           0.00000   0.00000   0.00000   0.00000   0.00000
           D1           0.00000   0.00000   0.00000   0.00000   0.00000
           D2           0.00000   0.00000   0.00000   0.00000   0.00000
           D3           0.00000   0.00000   0.00000   0.00000   0.00000
           D4           0.00000   0.00000   0.00000   0.00000   0.00000
           D5           0.00000   0.00000   0.00000   0.00000   0.00000
           D6           0.00000   0.00000   0.00000   0.00000   0.00000
                          A5        A6        A7        A8        A9
           A5           0.16000
           A6           0.00000   0.16000
           A7           0.00000   0.00000   0.16000
           A8           0.00000   0.00000   0.00000   0.16000
           A9           0.00000   0.00000   0.00000   0.00000   0.16000
           D1           0.00000   0.00000   0.00000   0.00000   0.00000
           D2           0.00000   0.00000   0.00000   0.00000   0.00000
           D3           0.00000   0.00000   0.00000   0.00000   0.00000
           D4           0.00000   0.00000   0.00000   0.00000   0.00000
           D5           0.00000   0.00000   0.00000   0.00000   0.00000
           D6           0.00000   0.00000   0.00000   0.00000   0.00000
                          D1        D2        D3        D4        D5
           D1           0.00884
           D2           0.00000   0.00884
           D3           0.00000   0.00000   0.00884
           D4           0.00000   0.00000   0.00000   0.00884
           D5           0.00000   0.00000   0.00000   0.00000   0.00884
           D6           0.00000   0.00000   0.00000   0.00000   0.00000
                          D6
           D6           0.00884
 ITU=  0
 Eigenvectors of the second derivative matrix:
                           1         2         3         4         5
     Eigenvalues --     0.00884   0.00951   0.07164   0.07233   0.16000
   1         R1         0.00000   0.00000  -0.00000   0.00000   0.00000
   2         R2         0.00000   0.00000  -0.00000   0.00000  -0.00000
   3         R3         0.00000   0.00000   0.00000   0.00000  -0.00000
   4         R4         0.00000   0.00000   0.00000  -0.00000  -0.00000
   5         R5        -0.00000  -0.00000  -0.00000  -0.00000   0.00000
   6         R6        -0.00000   0.00000  -0.00000   0.00000  -0.00000
   7         A1        -0.00000   0.00000  -0.24987   0.00000  -0.23853
   8         A2        -0.00000  -0.00000   0.12540   0.21550   0.48042
   9         A3        -0.00000  -0.00000   0.12540  -0.21550  -0.09023
  10         A4         0.00000  -0.00000  -0.23487   0.40443  -0.12911
  11         A5         0.00000   0.00000  -0.23487  -0.40443   0.17496
  12         A6         0.00000  -0.00000   0.45960  -0.00000  -0.21271
  13         A7         0.00000  -0.03820   0.00000   0.00000  -0.10053
  14         A8         0.00000  -0.03820   0.00000  -0.00000   0.59940
  15         A9        -0.00000  -0.03872  -0.00000   0.00000  -0.49219
  16         D1        -0.40825  -0.40735  -0.00000  -0.43970  -0.00000
  17         D2        -0.40825   0.40735  -0.00000  -0.43970  -0.00000
  18         D3        -0.40825  -0.40735  -0.38228   0.21985   0.00000
  19         D4        -0.40825   0.40735  -0.38228   0.21985   0.00000
  20         D5        -0.40825  -0.40735   0.38228   0.21985   0.00000
  21         D6        -0.40825   0.40735   0.38228   0.21985   0.00000
                           6         7         8         9        10
     Eigenvalues --     0.16000   0.16000   0.16000   0.16000   0.33336
   1         R1        -0.00000   0.00000  -0.00000   0.00000   1.00000
   2         R2        -0.00000   0.00000  -0.00000   0.00000   0.00000
   3         R3        -0.00000   0.00000  -0.00000   0.00000  -0.00000
   4         R4         0.00000   0.00000  -0.00000  -0.00000   0.00000
   5         R5        -0.00000   0.00000   0.00000  -0.00000   0.00000
   6         R6        -0.00000   0.00000   0.00000  -0.00000  -0.00000
   7         A1         0.69654   0.19179   0.26183   0.16768   0.00000
   8         A2         0.18946   0.15920  -0.61240   0.06268   0.00000
   9         A3        -0.16967  -0.52277  -0.02162   0.60027  -0.00000
  10         A4        -0.47146  -0.18685   0.18704  -0.12259  -0.00000
  11         A5        -0.28010   0.17653  -0.12776  -0.40904  -0.00000
  12         A6        -0.01079   0.19820   0.34564  -0.36142  -0.00000
  13         A7         0.30120  -0.58212  -0.18241  -0.44351   0.00000
  14         A8        -0.06481   0.12295   0.50228   0.19695   0.00000
  15         A9        -0.23322   0.45303  -0.31559   0.24327  -0.00000
  16         D1         0.00000   0.00000   0.00000  -0.00000   0.00000
  17         D2         0.00000  -0.00000   0.00000  -0.00000   0.00000
  18         D3        -0.00000  -0.00000   0.00000  -0.00000  -0.00000
  19         D4        -0.00000  -0.00000   0.00000  -0.00000  -0.00000
  20         D5        -0.00000  -0.00000   0.00000  -0.00000   0.00000
  21         D6        -0.00000  -0.00000   0.00000  -0.00000   0.00000
                          11        12        13        14        15
     Eigenvalues --     0.34048   0.34809   0.34809   0.36053   0.36053
   1         R1         0.00000   0.00000   0.00000  -0.00000  -0.00000
   2         R2        -1.00000   0.00000   0.00000   0.00000   0.00000
   3         R3        -0.00000  -0.41695   0.90893   0.00000   0.00000
   4         R4        -0.00000  -0.90893  -0.41695   0.00000  -0.00000
   5         R5         0.00000  -0.00000  -0.00000  -0.69572   0.71831
   6         R6        -0.00000  -0.00000   0.00000  -0.71831  -0.69572
   7         A1        -0.00000   0.00000   0.00000  -0.00000  -0.00000
   8         A2         0.00000   0.00000   0.00000  -0.00000   0.00000
   9         A3         0.00000  -0.00000  -0.00000  -0.00000  -0.00000
  10         A4         0.00000  -0.00000  -0.00000   0.00000   0.00000
  11         A5        -0.00000  -0.00000   0.00000   0.00000   0.00000
  12         A6        -0.00000   0.00000  -0.00000   0.00000   0.00000
  13         A7        -0.00000  -0.00000   0.00000   0.00000   0.00000
  14         A8        -0.00000  -0.00000  -0.00000  -0.00000  -0.00000
  15         A9         0.00000   0.00000  -0.00000  -0.00000  -0.00000
  16         D1        -0.00000  -0.00000   0.00000   0.00000  -0.00000
  17         D2        -0.00000  -0.00000   0.00000   0.00000  -0.00000
  18         D3         0.00000  -0.00000   0.00000   0.00000   0.00000
  19         D4        -0.00000  -0.00000   0.00000   0.00000   0.00000
  20         D5        -0.00000   0.00000   0.00000   0.00000   0.00000
  21         D6        -0.00000   0.00000   0.00000   0.00000   0.00000
 Iter=   1 RLamda= 0.00000000D+00 Sum=-1.36147706D-03.
 Iter=   2 RLamda=-1.36147706D-03 Sum=-1.35593159D-03.
 Iter=   3 RLamda=-1.35593159D-03 Sum=-1.35595403D-03.
 Iter=   4 RLamda=-1.35595403D-03 Sum=-1.35595394D-03.
 RFO step:  Lambda=-1.35595403D-03 EMin= 8.84451838D-03
 Linear search not attempted -- first point.
 Iteration  1 RMS(Cart)=  0.01451196 RMS(Int)=  0.00004573
 Iteration  2 RMS(Cart)=  0.00005434 RMS(Int)=  0.00000780
 Iteration  3 RMS(Cart)=  0.00000000 RMS(Int)=  0.00000780
 ITry= 1 IFail=0 DXMaxC= 2.35D-02 DCOld= 1.00D+10 DXMaxT= 3.00D-01 DXLimC= 3.00D+00 Rises=F
 ClnCor:  largest displacement from symmetrization is 5.35D-14 for atom     7.
 Variable       Old X    -DE/DX   Delta X   Delta X   Delta X     New X
                                 (Linear)    (Quad)   (Total)
    R1        2.81766   0.00110   0.00000   0.00328   0.00328   2.82094
    R2        2.07249   0.01009   0.00000   0.02951   0.02951   2.10199
    R3        2.05987   0.00947   0.00000   0.02710   0.02710   2.08697
    R4        2.05987   0.00947   0.00000   0.02710   0.02710   2.08697
    R5        2.03998   0.00955   0.00000   0.02638   0.02638   2.06636
    R6        2.03998   0.00955   0.00000   0.02638   0.02638   2.06636
    A1        1.94788   0.00124   0.00000   0.00703   0.00702   1.95491
    A2        1.94617   0.00069   0.00000   0.00462   0.00460   1.95077
    A3        1.94617   0.00069   0.00000   0.00462   0.00460   1.95077
    A4        1.86483  -0.00113   0.00000  -0.00765  -0.00766   1.85717
    A5        1.86483  -0.00113   0.00000  -0.00765  -0.00766   1.85717
    A6        1.88984  -0.00054   0.00000  -0.00217  -0.00218   1.88766
    A7        2.10771   0.00026   0.00000   0.00190   0.00189   2.10960
    A8        2.10771   0.00026   0.00000   0.00190   0.00189   2.10960
    A9        2.05589  -0.00050   0.00000  -0.00284  -0.00285   2.05304
    D1        1.48650   0.00004   0.00000   0.00323   0.00323   1.48973
    D2       -1.48650  -0.00004   0.00000  -0.00323  -0.00323  -1.48973
    D3       -2.71254  -0.00010   0.00000   0.00140   0.00139  -2.71114
    D4        0.59765  -0.00017   0.00000  -0.00507  -0.00507   0.59258
    D5       -0.59765   0.00017   0.00000   0.00507   0.00507  -0.59258
    D6        2.71254   0.00010   0.00000  -0.00140  -0.00139   2.71114
         Item               Value     Threshold  Converged?
 Maximum Force            0.010087     0.000450     NO 
 RMS     Force            0.004733     0.000300     NO 
 Maximum Displacement     0.023484     0.001800     NO 
 RMS     Displacement     0.014518     0.001200     NO 
 Predicted change in Energy=-6.807247D-04
 Lowest energy point so far.  Saving SCF results.
 Largest change from initial coordinates is atom    3       0.016 Angstoms.
 GradGradGradGradGradGradGradGradGradGradGradGradGradGradGradGradGradGrad

 Leave Link  103 at Wed Oct  7 16:07:48 2020, MaxMem=  2684354560 cpu:               2.3 elap:               0.6
 (Enter /udrive/faculty/rpeverati/g16/g16/l202.exe)
                          Input orientation:                          
 ---------------------------------------------------------------------
 Center     Atomic      Atomic             Coordinates (Angstroms)
 Number     Number       Type             X           Y           Z
 ---------------------------------------------------------------------
      1          6           0       -0.011017   -0.694417   -0.000000
      2          6           0       -0.009764    0.798359    0.000000
      3          1           0        1.019906   -1.112111   -0.000000
      4          1           0       -0.513394   -1.103601    0.894337
      5          1           0       -0.513394   -1.103601   -0.894337
      6          1           0        0.066707    1.359369   -0.935466
      7          1           0        0.066707    1.359369    0.935466
 ---------------------------------------------------------------------
                    Distance matrix (angstroms):
                    1          2          3          4          5
     1  C    0.000000
     2  C    1.492776   0.000000
     3  H    1.112326   2.170279   0.000000
     4  H    1.104378   2.161234   1.775083   0.000000
     5  H    1.104378   2.161234   1.775083   1.788673   0.000000
     6  H    2.258135   1.093470   2.809252   3.122646   2.530697
     7  H    2.258135   1.093470   2.809252   2.530697   3.122646
                    6          7
     6  H    0.000000
     7  H    1.870932   0.000000
 Stoichiometry    C2H5(2)
 Framework group  CS[SG(C2H),X(H4)]
 Deg. of freedom     9
 Full point group                 CS      NOp   2
 RotChk:  IX=0 Diff= 1.19D-03
 Largest Abelian subgroup         CS      NOp   2
 Largest concise Abelian subgroup CS      NOp   2
                         Standard orientation:                         
 ---------------------------------------------------------------------
 Center     Atomic      Atomic             Coordinates (Angstroms)
 Number     Number       Type             X           Y           Z
 ---------------------------------------------------------------------
      1          6           0       -0.010541   -0.695784   -0.000000
      2          6           0       -0.010541    0.796993    0.000000
      3          1           0        1.020732   -1.112612   -0.000000
      4          1           0       -0.512575   -1.105389    0.894337
      5          1           0       -0.512575   -1.105389   -0.894337
      6          1           0        0.065458    1.358067   -0.935466
      7          1           0        0.065458    1.358067    0.935466
 ---------------------------------------------------------------------
 Rotational constants (GHZ):         101.7877581          22.5236823          20.8620430
 Leave Link  202 at Wed Oct  7 16:07:49 2020, MaxMem=  2684354560 cpu:               1.2 elap:               0.4
 (Enter /udrive/faculty/rpeverati/g16/g16/l301.exe)
 Standard basis: 6-31G(d) (5D, 7F)
 Ernie: Thresh=  0.10000D-02 Tol=  0.10000D-05 Strict=F.
 There are    28 symmetry adapted cartesian basis functions of A'  symmetry.
 There are    12 symmetry adapted cartesian basis functions of A"  symmetry.
 There are    26 symmetry adapted basis functions of A'  symmetry.
 There are    12 symmetry adapted basis functions of A"  symmetry.
    38 basis functions,    76 primitive gaussians,    40 cartesian basis functions
     9 alpha electrons        8 beta electrons
       nuclear repulsion energy        36.6954886232 Hartrees.
 IExCor= 1009 DFT=T Ex=PBE Corr=PBE ExCW=0 ScaHFX=  0.000000
 ScaDFX=  1.000000  1.000000  1.000000  1.000000 ScalE2=  1.000000  1.000000
 IRadAn=      5 IRanWt=     -1 IRanGd=            0 ICorTp=0 IEmpDi=  4
 NAtoms=    7 NActive=    7 NUniq=    5 SFac= 1.96D+00 NAtFMM=   60 NAOKFM=F Big=F
 Integral buffers will be    131072 words long.
 Raffenetti 2 integral format.
 Two-electron integral symmetry is turned on.
 Leave Link  301 at Wed Oct  7 16:07:49 2020, MaxMem=  2684354560 cpu:               1.5 elap:               0.3
 (Enter /udrive/faculty/rpeverati/g16/g16/l302.exe)
 NPDir=0 NMtPBC=     1 NCelOv=     1 NCel=       1 NClECP=     1 NCelD=      1
         NCelK=      1 NCelE2=     1 NClLst=     1 CellRange=     0.0.
 One-electron integrals computed using PRISM.
 One-electron integral symmetry used in STVInt
 NBasis=    38 RedAO= T EigKep=  1.08D-02  NBF=    26    12
 NBsUse=    38 1.00D-06 EigRej= -1.00D+00 NBFU=    26    12
 Precomputing XC quadrature grid using
 IXCGrd= 4 IRadAn=           5 IRanWt=          -1 IRanGd=           0 AccXCQ= 0.00D+00.
 Generated NRdTot=       0 NPtTot=           0 NUsed=           0 NTot=          32
 NSgBfM=    40    40    40    40    40 MxSgAt=     7 MxSgA2=     7.
 Leave Link  302 at Wed Oct  7 16:07:50 2020, MaxMem=  2684354560 cpu:               2.9 elap:               0.5
 (Enter /udrive/faculty/rpeverati/g16/g16/l303.exe)
 DipDrv:  MaxL=1.
 Leave Link  303 at Wed Oct  7 16:07:50 2020, MaxMem=  2684354560 cpu:               1.1 elap:               0.5
 (Enter /udrive/faculty/rpeverati/g16/g16/l401.exe)
 Initial guess from the checkpoint file:  "MN_12_c2h5_lower_BH76_PBE_631Gs.chk"
 SCF N**3 symmetry information disabled.
 B after Tr=    -0.000000    0.000000    0.000000
         Rot=    1.000000    0.000000    0.000000   -0.000259 Ang=  -0.03 deg.
 Guess basis will be translated and rotated to current coordinates.
 JPrj=2 DoOrth=T DoCkMO=T.
 Initial guess orbital symmetries:
 Alpha Orbitals:
       Occupied  (A') (A') (A') (A') (A") (A') (A') (A") (A')
       Virtual   (A') (A') (A") (A') (A") (A') (A') (A") (A') (A')
                 (A') (A") (A') (A') (A") (A") (A') (A') (A') (A')
                 (A") (A") (A') (A') (A') (A") (A') (A") (A')
 Beta  Orbitals:
       Occupied  (A') (A') (A') (A') (A") (A') (A') (A")
       Virtual   (A') (A') (A") (A') (A') (A") (A') (A') (A") (A')
                 (A') (A') (A") (A') (A') (A") (A") (A') (A') (A')
                 (A') (A") (A") (A') (A') (A") (A') (A') (A") (A')
 The electronic state of the initial guess is 2-A'.
 Initial guess <Sx>= 0.0000 <Sy>= 0.0000 <Sz>= 0.5000 <S**2>= 0.7536 S= 0.5018
 Generating alternative initial guess.
 ExpMin= 1.61D-01 ExpMax= 3.05D+03 ExpMxC= 4.57D+02 IAcc=2 IRadAn=         4 AccDes= 0.00D+00
 Harris functional with IExCor= 1009 and IRadAn=       4 diagonalized for initial guess.
 HarFok:  IExCor= 1009 AccDes= 0.00D+00 IRadAn=         4 IDoV= 1 UseB2=F ITyADJ=14
 ICtDFT=  3500011 ScaDFX=  1.000000  1.000000  1.000000  1.000000
 FoFCou: FMM=F IPFlag=           0 FMFlag=      100000 FMFlg1=           0
         NFxFlg=           0 DoJE=T BraDBF=F KetDBF=T FulRan=T
         wScrn=  0.000000 ICntrl=       500 IOpCl=  0 I1Cent=   200000004 NGrid=           0
         NMat0=    1 NMatS0=      1 NMatT0=    0 NMatD0=    1 NMtDS0=    0 NMtDT0=    0
 Petite list used in FoFCou.
 Harris En= -79.0804928580368    
 Leave Link  401 at Wed Oct  7 16:07:52 2020, MaxMem=  2684354560 cpu:               7.5 elap:               0.9
 (Enter /udrive/faculty/rpeverati/g16/g16/l502.exe)
 Keep J ints in memory in symmetry-blocked form, NReq=10633654.
 FoFCou: FMM=F IPFlag=           0 FMFlag=           0 FMFlg1=           0
         NFxFlg=           0 DoJE=F BraDBF=F KetDBF=F FulRan=T
         wScrn=  0.000000 ICntrl=       600 IOpCl=  0 I1Cent=           0 NGrid=           0
         NMat0=    1 NMatS0=    741 NMatT0=    0 NMatD0=    1 NMtDS0=    0 NMtDT0=    0
 Petite list used in FoFCou.
 UHF open shell SCF:
 Using DIIS extrapolation, IDIIS=  1040.
 NGot=  2684354560 LenX=  2684207108 LenY=  2684205067
 Requested convergence on RMS density matrix=1.00D-08 within 120 cycles.
 Requested convergence on MAX density matrix=1.00D-06.
 Requested convergence on             energy=1.00D-06.
 No special actions if energy rises.
 Integral accuracy reduced to 1.0D-05 until final iterations.

 Cycle   1  Pass 0  IDiag  1:
 E= -79.0289782857793    
 DIIS: error= 1.90D-03 at cycle   1 NSaved=   1.
 NSaved= 1 IEnMin= 1 EnMin= -79.0289782857793     IErMin= 1 ErrMin= 1.90D-03
 ErrMax= 1.90D-03  0.00D+00 EMaxC= 1.00D-01 BMatC= 4.19D-04 BMatP= 4.19D-04
 IDIUse=3 WtCom= 9.81D-01 WtEn= 1.90D-02
 Coeff-Com:  0.100D+01
 Coeff-En:   0.100D+01
 Coeff:      0.100D+01
 Gap=     0.245 Goal=   None    Shift=    0.000
 Gap=     0.237 Goal=   None    Shift=    0.000
 GapD=    0.237 DampG=1.000 DampE=1.000 DampFc=1.0000 IDamp=-1.
 RMSDP=5.24D-04 MaxDP=5.65D-03              OVMax= 6.37D-03

 Cycle   2  Pass 0  IDiag  1:
 E= -79.0290142949792     Delta-E=       -0.000036009200 Rises=F Damp=F
 DIIS: error= 2.24D-03 at cycle   2 NSaved=   2.
 NSaved= 2 IEnMin= 2 EnMin= -79.0290142949792     IErMin= 1 ErrMin= 1.90D-03
 ErrMax= 2.24D-03  0.00D+00 EMaxC= 1.00D-01 BMatC= 4.05D-04 BMatP= 4.19D-04
 IDIUse=3 WtCom= 9.78D-01 WtEn= 2.24D-02
 Coeff-Com:  0.495D+00 0.505D+00
 Coeff-En:   0.410D+00 0.590D+00
 Coeff:      0.493D+00 0.507D+00
 Gap=     0.246 Goal=   None    Shift=    0.000
 Gap=     0.237 Goal=   None    Shift=    0.000
 RMSDP=3.11D-04 MaxDP=3.11D-03 DE=-3.60D-05 OVMax= 3.83D-03

 Cycle   3  Pass 0  IDiag  1:
 E= -79.0291197315713     Delta-E=       -0.000105436592 Rises=F Damp=F
 DIIS: error= 4.90D-04 at cycle   3 NSaved=   3.
 NSaved= 3 IEnMin= 3 EnMin= -79.0291197315713     IErMin= 3 ErrMin= 4.90D-04
 ErrMax= 4.90D-04  0.00D+00 EMaxC= 1.00D-01 BMatC= 2.79D-05 BMatP= 4.05D-04
 IDIUse=3 WtCom= 9.95D-01 WtEn= 4.90D-03
 Coeff-Com:  0.749D-01 0.222D+00 0.703D+00
 Coeff-En:   0.000D+00 0.000D+00 0.100D+01
 Coeff:      0.745D-01 0.221D+00 0.704D+00
 Gap=     0.246 Goal=   None    Shift=    0.000
 Gap=     0.237 Goal=   None    Shift=    0.000
 RMSDP=5.97D-05 MaxDP=6.92D-04 DE=-1.05D-04 OVMax= 8.71D-04

 Cycle   4  Pass 0  IDiag  1:
 E= -79.0291267792871     Delta-E=       -0.000007047716 Rises=F Damp=F
 DIIS: error= 5.88D-05 at cycle   4 NSaved=   4.
 NSaved= 4 IEnMin= 4 EnMin= -79.0291267792871     IErMin= 4 ErrMin= 5.88D-05
 ErrMax= 5.88D-05  0.00D+00 EMaxC= 1.00D-01 BMatC= 5.29D-07 BMatP= 2.79D-05
 IDIUse=1 WtCom= 1.00D+00 WtEn= 0.00D+00
 Coeff-Com:  0.932D-02 0.540D-01 0.219D+00 0.718D+00
 Coeff:      0.932D-02 0.540D-01 0.219D+00 0.718D+00
 Gap=     0.246 Goal=   None    Shift=    0.000
 Gap=     0.237 Goal=   None    Shift=    0.000
 RMSDP=1.24D-05 MaxDP=1.20D-04 DE=-7.05D-06 OVMax= 1.57D-04

 Cycle   5  Pass 0  IDiag  1:
 E= -79.0291268899113     Delta-E=       -0.000000110624 Rises=F Damp=F
 DIIS: error= 2.53D-05 at cycle   5 NSaved=   5.
 NSaved= 5 IEnMin= 5 EnMin= -79.0291268899113     IErMin= 5 ErrMin= 2.53D-05
 ErrMax= 2.53D-05  0.00D+00 EMaxC= 1.00D-01 BMatC= 1.05D-07 BMatP= 5.29D-07
 IDIUse=1 WtCom= 1.00D+00 WtEn= 0.00D+00
 Coeff-Com:  0.179D-02 0.190D-01 0.831D-01 0.375D+00 0.521D+00
 Coeff:      0.179D-02 0.190D-01 0.831D-01 0.375D+00 0.521D+00
 Gap=     0.246 Goal=   None    Shift=    0.000
 Gap=     0.237 Goal=   None    Shift=    0.000
 RMSDP=4.22D-06 MaxDP=6.51D-05 DE=-1.11D-07 OVMax= 6.57D-05

 Initial convergence to 1.0D-05 achieved.  Increase integral accuracy.
 Cycle   6  Pass 1  IDiag  1:
 E= -79.0291278670262     Delta-E=       -0.000000977115 Rises=F Damp=F
 DIIS: error= 4.92D-06 at cycle   1 NSaved=   1.
 NSaved= 1 IEnMin= 1 EnMin= -79.0291278670262     IErMin= 1 ErrMin= 4.92D-06
 ErrMax= 4.92D-06  0.00D+00 EMaxC= 1.00D-01 BMatC= 3.94D-09 BMatP= 3.94D-09
 IDIUse=1 WtCom= 1.00D+00 WtEn= 0.00D+00
 Coeff-Com:  0.100D+01
 Coeff:      0.100D+01
 Gap=     0.246 Goal=   None    Shift=    0.000
 Gap=     0.237 Goal=   None    Shift=    0.000
 RMSDP=4.22D-06 MaxDP=6.51D-05 DE=-9.77D-07 OVMax= 2.57D-05

 Cycle   7  Pass 1  IDiag  1:
 E= -79.0291278669178     Delta-E=        0.000000000108 Rises=F Damp=F
 DIIS: error= 5.52D-06 at cycle   2 NSaved=   2.
 NSaved= 2 IEnMin= 1 EnMin= -79.0291278670262     IErMin= 1 ErrMin= 4.92D-06
 ErrMax= 5.52D-06  0.00D+00 EMaxC= 1.00D-01 BMatC= 5.31D-09 BMatP= 3.94D-09
 IDIUse=1 WtCom= 1.00D+00 WtEn= 0.00D+00
 Coeff-Com:  0.541D+00 0.459D+00
 Coeff:      0.541D+00 0.459D+00
 Gap=     0.246 Goal=   None    Shift=    0.000
 Gap=     0.237 Goal=   None    Shift=    0.000
 RMSDP=9.49D-07 MaxDP=1.41D-05 DE= 1.08D-10 OVMax= 1.52D-05

 Cycle   8  Pass 1  IDiag  1:
 E= -79.0291278683394     Delta-E=       -0.000000001422 Rises=F Damp=F
 DIIS: error= 8.34D-07 at cycle   3 NSaved=   3.
 NSaved= 3 IEnMin= 3 EnMin= -79.0291278683394     IErMin= 3 ErrMin= 8.34D-07
 ErrMax= 8.34D-07  0.00D+00 EMaxC= 1.00D-01 BMatC= 9.43D-11 BMatP= 3.94D-09
 IDIUse=1 WtCom= 1.00D+00 WtEn= 0.00D+00
 Coeff-Com:  0.323D-01 0.109D+00 0.859D+00
 Coeff:      0.323D-01 0.109D+00 0.859D+00
 Gap=     0.246 Goal=   None    Shift=    0.000
 Gap=     0.237 Goal=   None    Shift=    0.000
 RMSDP=1.78D-07 MaxDP=1.75D-06 DE=-1.42D-09 OVMax= 2.74D-06

 Cycle   9  Pass 1  IDiag  1:
 E= -79.0291278683707     Delta-E=       -0.000000000031 Rises=F Damp=F
 DIIS: error= 2.81D-07 at cycle   4 NSaved=   4.
 NSaved= 4 IEnMin= 4 EnMin= -79.0291278683707     IErMin= 4 ErrMin= 2.81D-07
 ErrMax= 2.81D-07  0.00D+00 EMaxC= 1.00D-01 BMatC= 1.04D-11 BMatP= 9.43D-11
 IDIUse=1 WtCom= 1.00D+00 WtEn= 0.00D+00
 Coeff-Com: -0.570D-01-0.270D-01 0.216D+00 0.868D+00
 Coeff:     -0.570D-01-0.270D-01 0.216D+00 0.868D+00
 Gap=     0.246 Goal=   None    Shift=    0.000
 Gap=     0.237 Goal=   None    Shift=    0.000
 RMSDP=7.90D-08 MaxDP=1.01D-06 DE=-3.13D-11 OVMax= 1.45D-06

 Cycle  10  Pass 1  IDiag  1:
 E= -79.0291278683740     Delta-E=       -0.000000000003 Rises=F Damp=F
 DIIS: error= 1.98D-07 at cycle   5 NSaved=   5.
 NSaved= 5 IEnMin= 5 EnMin= -79.0291278683740     IErMin= 5 ErrMin= 1.98D-07
 ErrMax= 1.98D-07  0.00D+00 EMaxC= 1.00D-01 BMatC= 2.49D-12 BMatP= 1.04D-11
 IDIUse=1 WtCom= 1.00D+00 WtEn= 0.00D+00
 Coeff-Com: -0.296D-01-0.210D-01 0.396D-01 0.416D+00 0.595D+00
 Coeff:     -0.296D-01-0.210D-01 0.396D-01 0.416D+00 0.595D+00
 Gap=     0.246 Goal=   None    Shift=    0.000
 Gap=     0.237 Goal=   None    Shift=    0.000
 RMSDP=2.44D-08 MaxDP=3.45D-07 DE=-3.30D-12 OVMax= 4.64D-07

 Cycle  11  Pass 1  IDiag  1:
 E= -79.0291278683748     Delta-E=       -0.000000000001 Rises=F Damp=F
 DIIS: error= 6.19D-08 at cycle   6 NSaved=   6.
 NSaved= 6 IEnMin= 6 EnMin= -79.0291278683748     IErMin= 6 ErrMin= 6.19D-08
 ErrMax= 6.19D-08  0.00D+00 EMaxC= 1.00D-01 BMatC= 2.62D-13 BMatP= 2.49D-12
 IDIUse=1 WtCom= 1.00D+00 WtEn= 0.00D+00
 Coeff-Com: -0.333D-02-0.457D-02-0.189D-01 0.312D-01 0.262D+00 0.733D+00
 Coeff:     -0.333D-02-0.457D-02-0.189D-01 0.312D-01 0.262D+00 0.733D+00
 Gap=     0.246 Goal=   None    Shift=    0.000
 Gap=     0.237 Goal=   None    Shift=    0.000
 RMSDP=8.71D-09 MaxDP=1.09D-07 DE=-8.53D-13 OVMax= 1.17D-07

 SCF Done:  E(UPBE-PBE) =  -79.0291278684     A.U. after   11 cycles
            NFock= 11  Conv=0.87D-08     -V/T= 2.0064
 <Sx>= 0.0000 <Sy>= 0.0000 <Sz>= 0.5000 <S**2>= 0.7536 S= 0.5018
 <L.S>= 0.000000000000E+00
 KE= 7.852684300459D+01 PE=-2.561490135365D+02 EE= 6.189755404026D+01
 Annihilation of the first spin contaminant:
 S**2 before annihilation     0.7536,   after     0.7500
 Leave Link  502 at Wed Oct  7 16:07:54 2020, MaxMem=  2684354560 cpu:              18.2 elap:               1.9
 (Enter /udrive/faculty/rpeverati/g16/g16/l508.exe)
 QCSCF skips out because SCF is already converged.
 Leave Link  508 at Wed Oct  7 16:07:54 2020, MaxMem=  2684354560 cpu:               0.3 elap:               0.4
 (Enter /udrive/faculty/rpeverati/g16/g16/l701.exe)
 ... and contract with generalized density number  0.
 Compute integral first derivatives.
 Leave Link  701 at Wed Oct  7 16:07:55 2020, MaxMem=  2684354560 cpu:               3.5 elap:               0.6
 (Enter /udrive/faculty/rpeverati/g16/g16/l702.exe)
 L702 exits ... SP integral derivatives will be done elsewhere.
 Leave Link  702 at Wed Oct  7 16:07:56 2020, MaxMem=  2684354560 cpu:               1.0 elap:               0.4
 (Enter /udrive/faculty/rpeverati/g16/g16/l703.exe)
 Integral derivatives from FoFJK, PRISM(SPDF).
 Compute integral first derivatives, UseDBF=F ICtDFT=           0.
 Calling FoFJK, ICntrl=      2527 FMM=F ISym2X=1 I1Cent= 0 IOpClX= 0 NMat=1 NMatS=1 NMatT=0.
 FoFJK:  IHMeth= 1 ICntrl=    2527 DoSepK=F KAlg= 0 I1Cent=           0 FoldK=F
 IRaf=         0 NMat=       1 IRICut=       1 DoRegI=T DoRafI=F ISym2E= 1 IDoP0=0 IntGTp=1.
 FoFCou: FMM=F IPFlag=           0 FMFlag=      100000 FMFlg1=         800
         NFxFlg=           0 DoJE=F BraDBF=F KetDBF=F FulRan=T
         wScrn=  0.000000 ICntrl=      2527 IOpCl=  0 I1Cent=           0 NGrid=           0
         NMat0=    1 NMatS0=      1 NMatT0=    0 NMatD0=    1 NMtDS0=    0 NMtDT0=    0
 Petite list used in FoFCou.
 Leave Link  703 at Wed Oct  7 16:07:57 2020, MaxMem=  2684354560 cpu:               7.1 elap:               1.0
 (Enter /udrive/faculty/rpeverati/g16/g16/l716.exe)
 Dipole        = 5.08000714D-02-9.90139344D-02 4.44089210D-16
 ***** Axes restored to original set *****
 -------------------------------------------------------------------
 Center     Atomic                   Forces (Hartrees/Bohr)
 Number     Number              X              Y              Z
 -------------------------------------------------------------------
      1        6          -0.000465906    0.003252351   -0.000000000
      2        6          -0.000201690   -0.001975384    0.000000000
      3        1           0.000444978   -0.000740117   -0.000000000
      4        1           0.000061913   -0.000406175    0.000155351
      5        1           0.000061913   -0.000406175   -0.000155351
      6        1           0.000049396    0.000137750    0.000265987
      7        1           0.000049396    0.000137750   -0.000265987
 -------------------------------------------------------------------
 Cartesian Forces:  Max     0.003252351 RMS     0.000874334
 Leave Link  716 at Wed Oct  7 16:07:58 2020, MaxMem=  2684354560 cpu:               1.6 elap:               0.5
 (Enter /udrive/faculty/rpeverati/g16/g16/l103.exe)

 GradGradGradGradGradGradGradGradGradGradGradGradGradGradGradGradGradGrad
 Berny optimization.
 Optmz: redundant internal coordinate code flag= 1
 Using GEDIIS/GDIIS optimizer.
 Red2BG:  D1=  2.79D-01 OD1=  3.04D-02 B2RMS=  0.00D+00 IAprox=0
 FormGI is forming the generalized inverse of G from B-inverse, IUseBI=4.
 Internal  Forces:  Max     0.001699960 RMS     0.000476873
 Search for a local minimum.
 Step number   2 out of a maximum of  100
 All quantities printed in internal units (Hartrees-Bohrs-Radians)
 RMS Force = .47687D-03 SwitMx=.10000D-02 MixMth= 2
 Mixed Optimization -- En-DIIS/RFO-DIIS
 Update second derivatives using D2CorX and points    1    2
 DE= -6.87D-04 DEPred=-6.81D-04 R= 1.01D+00
 TightC=F SS=  1.41D+00  RLast= 6.36D-02 DXNew= 5.0454D-01 1.9086D-01
 Trust test= 1.01D+00 RLast= 6.36D-02 DXMaxT set to 3.00D-01
 The second derivative matrix:
                          R1        R2        R3        R4        R5
           R1           0.33840
           R2           0.01179   0.33265
           R3           0.01192  -0.00451   0.34664
           R4           0.01192  -0.00451  -0.00145   0.34664
           R5           0.01286  -0.00169   0.00135   0.00135   0.36485
           R6           0.01286  -0.00169   0.00135   0.00135   0.00432
           A1           0.00053  -0.00354  -0.00312  -0.00312  -0.00294
           A2           0.00025  -0.00265  -0.00237  -0.00237  -0.00227
           A3           0.00025  -0.00265  -0.00237  -0.00237  -0.00227
           A4          -0.00037   0.00453   0.00406   0.00406   0.00390
           A5          -0.00037   0.00453   0.00406   0.00406   0.00390
           A6          -0.00031   0.00062   0.00050   0.00050   0.00042
           A7          -0.00006  -0.00164  -0.00151  -0.00151  -0.00150
           A8          -0.00006  -0.00164  -0.00151  -0.00151  -0.00150
           A9           0.00004   0.00230   0.00211   0.00211   0.00208
           D1           0.00011   0.00022   0.00023   0.00023   0.00025
           D2          -0.00011  -0.00022  -0.00023  -0.00023  -0.00025
           D3          -0.00008  -0.00034  -0.00033  -0.00033  -0.00035
           D4          -0.00030  -0.00079  -0.00079  -0.00079  -0.00084
           D5           0.00030   0.00079   0.00079   0.00079   0.00084
           D6           0.00008   0.00034   0.00033   0.00033   0.00035
                          R6        A1        A2        A3        A4
           R6           0.36485
           A1          -0.00294   0.15941
           A2          -0.00227  -0.00041   0.15972
           A3          -0.00227  -0.00041  -0.00028   0.15972
           A4           0.00390   0.00069   0.00047   0.00047   0.15920
           A5           0.00390   0.00069   0.00047   0.00047  -0.00080
           A6           0.00042   0.00015   0.00011   0.00011  -0.00018
           A7          -0.00150  -0.00021  -0.00014  -0.00014   0.00023
           A8          -0.00150  -0.00021  -0.00014  -0.00014   0.00023
           A9           0.00208   0.00030   0.00020   0.00020  -0.00034
           D1           0.00025   0.00001   0.00000   0.00000  -0.00000
           D2          -0.00025  -0.00001  -0.00000  -0.00000   0.00000
           D3          -0.00035  -0.00003  -0.00002  -0.00002   0.00003
           D4          -0.00084  -0.00004  -0.00002  -0.00002   0.00004
           D5           0.00084   0.00004   0.00002   0.00002  -0.00004
           D6           0.00035   0.00003   0.00002   0.00002  -0.00003
                          A5        A6        A7        A8        A9
           A5           0.15920
           A6          -0.00018   0.15997
           A7           0.00023   0.00006   0.15994
           A8           0.00023   0.00006  -0.00006   0.15994
           A9          -0.00034  -0.00009   0.00009   0.00009   0.15986
           D1          -0.00000  -0.00001  -0.00000  -0.00000   0.00000
           D2           0.00000   0.00001   0.00000   0.00000  -0.00000
           D3           0.00003   0.00001  -0.00001  -0.00001   0.00001
           D4           0.00004   0.00002  -0.00000  -0.00000   0.00000
           D5          -0.00004  -0.00002   0.00000   0.00000  -0.00000
           D6          -0.00003  -0.00001   0.00001   0.00001  -0.00001
                          D1        D2        D3        D4        D5
           D1           0.00885
           D2          -0.00000   0.00885
           D3          -0.00000   0.00000   0.00885
           D4          -0.00001   0.00001   0.00000   0.00886
           D5           0.00001  -0.00001  -0.00000  -0.00002   0.00886
           D6           0.00000  -0.00000  -0.00000  -0.00000   0.00000
                          D6
           D6           0.00885
 ITU=  1  0
 Use linear search instead of GDIIS.
 Eigenvectors of the second derivative matrix:
                           1         2         3         4         5
     Eigenvalues --     0.00884   0.00947   0.07097   0.07173   0.15551
   1         R1         0.00000  -0.00048  -0.00154  -0.00000  -0.01795
   2         R2         0.00000  -0.00163   0.00321  -0.00000   0.05161
   3         R3         0.00000  -0.00156   0.00253  -0.00000   0.04161
   4         R4         0.00000  -0.00156   0.00253  -0.00000   0.04161
   5         R5         0.00000  -0.00158   0.00205  -0.00000   0.03472
   6         R6         0.00000  -0.00158   0.00205  -0.00000   0.03472
   7         A1         0.00000  -0.00023  -0.24762  -0.00000   0.54192
   8         A2         0.00000  -0.00017   0.12698   0.21617   0.25933
   9         A3         0.00000  -0.00017   0.12698  -0.21617   0.25933
  10         A4        -0.00000   0.00029  -0.23585   0.40161  -0.42835
  11         A5        -0.00000   0.00029  -0.23585  -0.40161  -0.42835
  12         A6        -0.00000   0.00005   0.45446   0.00000  -0.28933
  13         A7         0.00000   0.03657   0.00075  -0.00000   0.13794
  14         A8         0.00000   0.03657   0.00075  -0.00000   0.13794
  15         A9         0.00000   0.03713  -0.00146   0.00000  -0.27240
  16         D1         0.40825   0.40742   0.00011  -0.44119   0.00033
  17         D2         0.40825  -0.40742  -0.00011  -0.44119  -0.00033
  18         D3         0.40825   0.40751  -0.38350   0.22060   0.00254
  19         D4         0.40825  -0.40733  -0.38371   0.22060   0.00188
  20         D5         0.40825   0.40733   0.38371   0.22060  -0.00188
  21         D6         0.40825  -0.40751   0.38350   0.22060  -0.00254
                           6         7         8         9        10
     Eigenvalues --     0.16000   0.16000   0.16000   0.16002   0.31309
   1         R1        -0.00000   0.00000  -0.00000   0.00132   0.68661
   2         R2        -0.00000   0.00000  -0.00000   0.00228  -0.54510
   3         R3        -0.00000   0.00000  -0.00000   0.00227  -0.30078
   4         R4        -0.00000   0.00000  -0.00000   0.00227  -0.30078
   5         R5        -0.00000   0.00000  -0.00000   0.00236  -0.14942
   6         R6        -0.00000   0.00000  -0.00000   0.00236  -0.14942
   7         A1        -0.02776  -0.05883  -0.58604  -0.17372   0.03983
   8         A2        -0.32398  -0.46936   0.51123  -0.10915   0.02022
   9         A3         0.36598   0.55837   0.37537  -0.10915   0.02022
  10         A4         0.18926   0.28417   0.03898   0.15190  -0.03359
  11         A5        -0.18211  -0.26900   0.11210   0.15190  -0.03359
  12         A6        -0.02315  -0.04906  -0.48875   0.12030  -0.01959
  13         A7         0.58835  -0.39167   0.02509   0.38730   0.01144
  14         A8        -0.58707   0.39437   0.00187   0.38730   0.01144
  15         A9        -0.00126  -0.00267  -0.02663  -0.76508  -0.02280
  16         D1         0.00000  -0.00000   0.00000  -0.00003  -0.00079
  17         D2        -0.00000   0.00000   0.00000   0.00003   0.00079
  18         D3         0.00000  -0.00000  -0.00000  -0.00000  -0.00253
  19         D4        -0.00000   0.00000  -0.00000   0.00006  -0.00096
  20         D5        -0.00000  -0.00000   0.00000  -0.00006   0.00096
  21         D6        -0.00000   0.00000   0.00000   0.00000   0.00253
                          11        12        13        14        15
     Eigenvalues --     0.34149   0.34809   0.35125   0.36053   0.38120
   1         R1        -0.40961  -0.00000  -0.36329  -0.00000   0.47800
   2         R2        -0.83493   0.00000  -0.03065   0.00000   0.04617
   3         R3         0.23092   0.70711  -0.55810   0.00000   0.20732
   4         R4         0.23092  -0.70711  -0.55810   0.00000   0.20732
   5         R5         0.11915   0.00000   0.34915   0.70711   0.58340
   6         R6         0.11915   0.00000   0.34915  -0.70711   0.58340
   7         A1         0.00427   0.00000   0.00896   0.00000  -0.02671
   8         A2         0.00212   0.00000   0.00448   0.00000  -0.01337
   9         A3         0.00212   0.00000   0.00448   0.00000  -0.01337
  10         A4        -0.00353  -0.00000  -0.00746  -0.00000   0.02229
  11         A5        -0.00353  -0.00000  -0.00746  -0.00000   0.02229
  12         A6        -0.00213  -0.00000  -0.00444  -0.00000   0.01321
  13         A7         0.00145   0.00000   0.00293   0.00000  -0.00880
  14         A8         0.00145   0.00000   0.00293   0.00000  -0.00880
  15         A9        -0.00292  -0.00000  -0.00589  -0.00000   0.01769
  16         D1        -0.00019  -0.00000  -0.00035  -0.00000   0.00113
  17         D2         0.00019   0.00000   0.00035  -0.00000  -0.00113
  18         D3        -0.00032  -0.00000  -0.00067  -0.00000   0.00212
  19         D4         0.00005  -0.00000   0.00003  -0.00000  -0.00014
  20         D5        -0.00005  -0.00000  -0.00003   0.00000   0.00014
  21         D6         0.00032   0.00000   0.00067   0.00000  -0.00212
 Iter=   1 RLamda= 0.00000000D+00 Sum=-1.88385425D-05.
 Iter=   2 RLamda=-1.88385425D-05 Sum=-1.88361347D-05.
 RFO step:  Lambda=-1.88385425D-05 EMin= 8.84451838D-03
 Quartic linear search produced a step of  0.02874.
 Iteration  1 RMS(Cart)=  0.00143557 RMS(Int)=  0.00000407
 Iteration  2 RMS(Cart)=  0.00000366 RMS(Int)=  0.00000220
 Iteration  3 RMS(Cart)=  0.00000000 RMS(Int)=  0.00000220
 ITry= 1 IFail=0 DXMaxC= 4.12D-03 DCOld= 1.00D+10 DXMaxT= 3.00D-01 DXLimC= 3.00D+00 Rises=F
 ClnCor:  largest displacement from symmetrization is 1.73D-14 for atom     7.
 Variable       Old X    -DE/DX   Delta X   Delta X   Delta X     New X
                                 (Linear)    (Quad)   (Total)
    R1        2.82094  -0.00170   0.00009  -0.00529  -0.00520   2.81574
    R2        2.10199   0.00069   0.00085   0.00168   0.00253   2.10452
[...]
 DoSqrt=T IScMMF=    -3 MM Scaling Factor =       0.00000
 En-DIIS/RFO-DIIS/Sim-DIIS IScMMF=       -3 using points:     4    3    2
 Iter=   1 RLamda=-4.11554816D-02 Sum=-1.00345137D-08.
 Iter=   2 RLamda=-1.00345137D-08 Sum=-1.39226266D-08.
 RFO step:  Lambda=-1.00345137D-08.
 NNeg= 0 NGDIIS= 3 SimSw=  2.50D-01 Rises=F DC= -1.66D-06 SmlDif=  1.00D-05
 NRisDI= 0 DoIntr=F SqrtH=F CThrHd= 10.0 CDAdj=  3.0
 RMS Error=  0.1197280400D-03 NUsed= 3 OKEnD=F EnDIS=F
 Total RFO-DIIS matrix:
                 1             2             3             4 
      1   0.000000D+00 -0.100000D+01 -0.100000D+01 -0.100000D+01
      2  -0.100000D+01  0.301031D-06 -0.310392D-06 -0.249112D-05
      3  -0.100000D+01 -0.310392D-06  0.302603D-04  0.874221D-04
      4  -0.100000D+01 -0.249112D-05  0.874221D-04  0.266464D-03
 InvSVX:  RCond= 1.71D-07 Info=           0 Equed=N FErr=  1.97D-14 BErr=  5.59D-17
 DidBck=F Rises=F RFO-DIIS coefs:    1.19678   -0.31048    0.11370
 Iteration  1 RMS(Cart)=  0.00008623 RMS(Int)=  0.00000033
 Iteration  2 RMS(Cart)=  0.00000002 RMS(Int)=  0.00000033
 ITry= 1 IFail=0 DXMaxC= 2.47D-04 DCOld= 1.00D+10 DXMaxT= 3.00D-01 DXLimC= 3.00D+00 Rises=F
 ClnCor:  largest displacement from symmetrization is 6.94D-14 for atom     7.
 Variable       Old X    -DE/DX   Delta X   Delta X   Delta X     New X
                                 (Linear)    (Quad)   (Total)
    R1        2.81355  -0.00001   0.00016  -0.00021  -0.00005   2.81350
    R2        2.10520  -0.00002  -0.00015   0.00008  -0.00007   2.10513
    R3        2.08816  -0.00002  -0.00012   0.00006  -0.00006   2.08810
    R4        2.08816  -0.00002  -0.00012   0.00006  -0.00006   2.08810
    R5        2.06613  -0.00001  -0.00003   0.00001  -0.00002   2.06611
    R6        2.06613  -0.00001  -0.00003   0.00001  -0.00002   2.06611
    A1        1.96013  -0.00001  -0.00007   0.00001  -0.00006   1.96007
    A2        1.95425   0.00000   0.00004  -0.00004   0.00001   1.95426
    A3        1.95425   0.00000   0.00004  -0.00004   0.00001   1.95426
    A4        1.85167   0.00000  -0.00000   0.00002   0.00002   1.85169
    A5        1.85167   0.00000  -0.00000   0.00002   0.00002   1.85169
    A6        1.88538   0.00000  -0.00002   0.00003   0.00001   1.88540
    A7        2.11131   0.00001   0.00005   0.00007   0.00012   2.11143
    A8        2.11131   0.00001   0.00005   0.00007   0.00012   2.11143
    A9        2.04871  -0.00003  -0.00006  -0.00011  -0.00018   2.04853
    D1        1.48619   0.00000   0.00013   0.00012   0.00025   1.48643
    D2       -1.48619  -0.00000  -0.00013  -0.00012  -0.00025  -1.48643
    D3       -2.71571   0.00000   0.00010   0.00013   0.00023  -2.71548
    D4        0.59509  -0.00000  -0.00015  -0.00011  -0.00026   0.59483
    D5       -0.59509   0.00000   0.00015   0.00011   0.00026  -0.59483
    D6        2.71571  -0.00000  -0.00010  -0.00013  -0.00023   2.71548
         Item               Value     Threshold  Converged?
 Maximum Force            0.000026     0.000450     YES
 RMS     Force            0.000011     0.000300     YES
 Maximum Displacement     0.000247     0.001800     YES
 RMS     Displacement     0.000086     0.001200     YES
 Predicted change in Energy=-6.725285D-09
 Optimization completed.
    -- Stationary point found.
                           ----------------------------
                           !   Optimized Parameters   !
                           ! (Angstroms and Degrees)  !
 --------------------------                            --------------------------
 ! Name  Definition              Value          Derivative Info.                !
 --------------------------------------------------------------------------------
 ! R1    R(1,2)                  1.4889         -DE/DX =    0.0                 !
 ! R2    R(1,3)                  1.114          -DE/DX =    0.0                 !
 ! R3    R(1,4)                  1.105          -DE/DX =    0.0                 !
 ! R4    R(1,5)                  1.105          -DE/DX =    0.0                 !
 ! R5    R(2,6)                  1.0933         -DE/DX =    0.0                 !
 ! R6    R(2,7)                  1.0933         -DE/DX =    0.0                 !
 ! A1    A(2,1,3)              112.3072         -DE/DX =    0.0                 !
 ! A2    A(2,1,4)              111.9705         -DE/DX =    0.0                 !
 ! A3    A(2,1,5)              111.9705         -DE/DX =    0.0                 !
 ! A4    A(3,1,4)              106.0931         -DE/DX =    0.0                 !
 ! A5    A(3,1,5)              106.0931         -DE/DX =    0.0                 !
 ! A6    A(4,1,5)              108.0245         -DE/DX =    0.0                 !
 ! A7    A(1,2,6)              120.9689         -DE/DX =    0.0                 !
 ! A8    A(1,2,7)              120.9689         -DE/DX =    0.0                 !
 ! A9    A(6,2,7)              117.3824         -DE/DX =    0.0                 !
 ! D1    D(3,1,2,6)             85.1523         -DE/DX =    0.0                 !
 ! D2    D(3,1,2,7)            -85.1523         -DE/DX =    0.0                 !
 ! D3    D(4,1,2,6)           -155.599          -DE/DX =    0.0                 !
 ! D4    D(4,1,2,7)             34.0964         -DE/DX =    0.0                 !
 ! D5    D(5,1,2,6)            -34.0964         -DE/DX =    0.0                 !
 ! D6    D(5,1,2,7)            155.599          -DE/DX =    0.0                 !
 --------------------------------------------------------------------------------
 Lowest energy point so far.  Saving SCF results.
 Largest change from initial coordinates is atom    3       0.015 Angstoms.
 GradGradGradGradGradGradGradGradGradGradGradGradGradGradGradGradGradGrad

 Leave Link  103 at Wed Oct  7 16:08:21 2020, MaxMem=  2684354560 cpu:               1.6 elap:               0.4
 (Enter /udrive/faculty/rpeverati/g16/g16/l202.exe)
                          Input orientation:                          
 ---------------------------------------------------------------------
 Center     Atomic      Atomic             Coordinates (Angstroms)
 Number     Number       Type             X           Y           Z
 ---------------------------------------------------------------------
      1          6           0       -0.011654   -0.691256   -0.000000
      2          6           0       -0.011783    0.797613    0.000000
      3          1           0        1.019034   -1.114017   -0.000000
      4          1           0       -0.512316   -1.104714    0.894108
      5          1           0       -0.512316   -1.104714   -0.894108
      6          1           0        0.067393    1.360228   -0.934135
      7          1           0        0.067393    1.360228    0.934135
 ---------------------------------------------------------------------
                    Distance matrix (angstroms):
                    1          2          3          4          5
     1  C    0.000000
     2  C    1.488869   0.000000
     3  H    1.114022   2.171846   0.000000
     4  H    1.105007   2.160743   1.773288   0.000000
     5  H    1.105007   2.160743   1.773288   1.788217   0.000000
     6  H    2.255536   1.093349   2.810715   3.123215   2.532509
     7  H    2.255536   1.093349   2.810715   2.532509   3.123215
                    6          7
     6  H    0.000000
     7  H    1.868269   0.000000
 Stoichiometry    C2H5(2)
 Framework group  CS[SG(C2H),X(H4)]
 Deg. of freedom     9
 Full point group                 CS      NOp   2
 RotChk:  IX=0 Diff= 2.30D-16
 Largest Abelian subgroup         CS      NOp   2
 Largest concise Abelian subgroup CS      NOp   2
                         Standard orientation:                         
 ---------------------------------------------------------------------
 Center     Atomic      Atomic             Coordinates (Angstroms)
 Number     Number       Type             X           Y           Z
 ---------------------------------------------------------------------
      1          6           0       -0.011041   -0.693323   -0.000000
      2          6           0       -0.011041    0.795546    0.000000
      3          1           0        1.019610   -1.116174   -0.000000
      4          1           0       -0.511740   -1.106737    0.894108
      5          1           0       -0.511740   -1.106737   -0.894108
      6          1           0        0.068183    1.358154   -0.934135
      7          1           0        0.068183    1.358154    0.934135
 ---------------------------------------------------------------------
 Rotational constants (GHZ):         101.9727212          22.5815766          20.9140157
 Leave Link  202 at Wed Oct  7 16:08:21 2020, MaxMem=  2684354560 cpu:               1.2 elap:               0.5
 (Enter /udrive/faculty/rpeverati/g16/g16/l601.exe)
 Copying SCF densities to generalized density rwf, IOpCl= 1 IROHF=0.

 **********************************************************************

            Population analysis using the SCF density.

 **********************************************************************

 Orbital symmetries:
 Alpha Orbitals:
       Occupied  (A') (A') (A') (A') (A") (A') (A') (A") (A')
       Virtual   (A') (A') (A") (A') (A") (A') (A') (A") (A') (A')
                 (A') (A") (A') (A') (A") (A') (A") (A') (A') (A')
                 (A") (A") (A') (A') (A') (A") (A') (A") (A')
 Beta  Orbitals:
       Occupied  (A') (A') (A') (A') (A") (A') (A') (A")
       Virtual   (A') (A') (A") (A') (A') (A") (A') (A') (A") (A')
                 (A') (A') (A") (A') (A') (A") (A") (A') (A') (A')
                 (A') (A") (A") (A') (A') (A") (A') (A') (A") (A')
 The electronic state is 2-A'.
 Alpha  occ. eigenvalues --   -9.89119  -9.88344  -0.67605  -0.53804  -0.39382
 Alpha  occ. eigenvalues --   -0.35826  -0.33988  -0.30578  -0.15480
 Alpha virt. eigenvalues --    0.09111   0.11284   0.11852   0.14749   0.19305
 Alpha virt. eigenvalues --    0.22640   0.47902   0.50769   0.51415   0.57448
 Alpha virt. eigenvalues --    0.58240   0.70448   0.74605   0.81348   0.82397
 Alpha virt. eigenvalues --    0.88719   0.88988   0.91781   1.23111   1.39941
 Alpha virt. eigenvalues --    1.58153   1.68534   1.84958   1.90982   2.07583
 Alpha virt. eigenvalues --    2.09194   2.24093   2.37100   2.51395
  Beta  occ. eigenvalues --   -9.88424  -9.87777  -0.66162  -0.51767  -0.38749
  Beta  occ. eigenvalues --   -0.34698  -0.33192  -0.30153
  Beta virt. eigenvalues --   -0.06512   0.09608   0.12106   0.12738   0.15533
  Beta virt. eigenvalues --    0.19803   0.23619   0.48618   0.51105   0.56205
  Beta virt. eigenvalues --    0.59162   0.61342   0.71244   0.76516   0.82045
  Beta virt. eigenvalues --    0.82919   0.89323   0.89590   0.94223   1.24293
  Beta virt. eigenvalues --    1.42694   1.64702   1.69181   1.88346   1.94497
  Beta virt. eigenvalues --    2.09725   2.13072   2.26058   2.37811   2.52997
          Condensed to atoms (all electrons):
               1          2          3          4          5          6
     1  C    5.061728   0.396616   0.365575   0.376178   0.376178  -0.036932
     2  C    0.396616   5.273569  -0.045751  -0.034028  -0.034028   0.377885
     3  H    0.365575  -0.045751   0.578072  -0.035317  -0.035317   0.000626
     4  H    0.376178  -0.034028  -0.035317   0.553707  -0.028339   0.003938
     5  H    0.376178  -0.034028  -0.035317  -0.028339   0.553707  -0.005616
     6  H   -0.036932   0.377885   0.000626   0.003938  -0.005616   0.545777
     7  H   -0.036932   0.377885   0.000626  -0.005616   0.003938  -0.037735
               7
     1  C   -0.036932
     2  C    0.377885
     3  H    0.000626
     4  H   -0.005616
     5  H    0.003938
     6  H   -0.037735
     7  H    0.545777
          Atomic-Atomic Spin Densities.
               1          2          3          4          5          6
     1  C   -0.066993  -0.036857   0.014966   0.006566   0.006566  -0.000134
     2  C   -0.036857   1.180125  -0.033669  -0.008762  -0.008762  -0.006294
     3  H    0.014966  -0.033669   0.112508  -0.012603  -0.012603  -0.000476
     4  H    0.006566  -0.008762  -0.012603   0.024731   0.004794   0.000013
     5  H    0.006566  -0.008762  -0.012603   0.004794   0.024731   0.000735
     6  H   -0.000134  -0.006294  -0.000476   0.000013   0.000735  -0.047179
     7  H   -0.000134  -0.006294  -0.000476   0.000735   0.000013   0.002305
               7
     1  C   -0.000134
     2  C   -0.006294
     3  H   -0.000476
     4  H    0.000735
     5  H    0.000013
     6  H    0.002305
     7  H   -0.047179
 Mulliken charges and spin densities:
               1          2
     1  C   -0.502409  -0.076020
     2  C   -0.312148   1.079487
     3  H    0.171488   0.067647
     4  H    0.169477   0.015472
     5  H    0.169477   0.015472
     6  H    0.152057  -0.051030
     7  H    0.152057  -0.051030
 Sum of Mulliken charges =  -0.00000   1.00000
 Mulliken charges and spin densities with hydrogens summed into heavy atoms:
               1          2
     1  C    0.008033   0.022573
     2  C   -0.008033   0.977427
 Electronic spatial extent (au):  <R**2>=             99.1903
 Charge=             -0.0000 electrons
 Dipole moment (field-independent basis, Debye):
    X=              0.1330    Y=             -0.2531    Z=              0.0000  Tot=              0.2859
 Quadrupole moment (field-independent basis, Debye-Ang):
   XX=            -14.9486   YY=            -13.8984   ZZ=            -13.3810
   XY=              0.1705   XZ=              0.0000   YZ=              0.0000
 Traceless Quadrupole moment (field-independent basis, Debye-Ang):
   XX=             -0.8726   YY=              0.1776   ZZ=              0.6950
   XY=              0.1705   XZ=              0.0000   YZ=              0.0000
 Octapole moment (field-independent basis, Debye-Ang**2):
  XXX=              0.6507  YYY=              0.2274  ZZZ=              0.0000  XYY=              0.2675
  XXY=             -1.4252  XXZ=             -0.0000  XZZ=             -0.4466  YZZ=              0.4955
  YYZ=              0.0000  XYZ=             -0.0000
 Hexadecapole moment (field-independent basis, Debye-Ang**3):
 XXXX=            -22.3348 YYYY=            -84.1818 ZZZZ=            -27.5859 XXXY=             -0.8902
 XXXZ=              0.0000 YYYX=              0.0549 YYYZ=              0.0000 ZZZX=              0.0000
 ZZZY=              0.0000 XXYY=            -18.1497 XXZZ=             -8.6119 YYZZ=            -16.4983
 XXYZ=              0.0000 YYXZ=              0.0000 ZZXY=              0.7433
 N-N= 3.672539288322D+01 E-N=-2.562091103077D+02  KE= 7.852914548737D+01
                          Isotropic Fermi Contact Couplings
        Atom                 a.u.       MegaHertz       Gauss      10(-4) cm-1
     1  C(13)             -0.02985     -33.56070     -11.97529     -11.19465
     2  C(13)              0.14320     160.98139      57.44216      53.69761
     3  H(1)               0.03376     150.89144      53.84182      50.33197
     4  H(1)               0.00815      36.43313      13.00025      12.15279
     5  H(1)               0.00815      36.43313      13.00025      12.15279
     6  H(1)              -0.01502     -67.12130     -23.95055     -22.38925
     7  H(1)              -0.01502     -67.12130     -23.95055     -22.38925
 --------------------------------------------------------
       Center         ----  Spin Dipole Couplings  ----
                      3XX-RR        3YY-RR        3ZZ-RR
 --------------------------------------------------------
     1   Atom        0.003873      0.015301     -0.019174
     2   Atom        1.056132     -0.528460     -0.527672
     3   Atom       -0.001293      0.012068     -0.010775
     4   Atom       -0.007946      0.011947     -0.004000
     5   Atom       -0.007946      0.011947     -0.004000
     6   Atom       -0.004373     -0.031619      0.035992
     7   Atom       -0.004373     -0.031619      0.035992
 --------------------------------------------------------
                        XY            XZ            YZ
 --------------------------------------------------------
     1   Atom       -0.004166     -0.000000     -0.000000
     2   Atom       -0.078012     -0.000000     -0.000000
     3   Atom       -0.009617     -0.000000     -0.000000
     4   Atom        0.003600     -0.001567     -0.010122
     5   Atom        0.003600      0.001567      0.010122
     6   Atom        0.001384     -0.007943     -0.061542
     7   Atom        0.001384      0.007943      0.061542
 --------------------------------------------------------


 ---------------------------------------------------------------------------------
              Anisotropic Spin Dipole Couplings in Principal Axis System
 ---------------------------------------------------------------------------------

       Atom             a.u.   MegaHertz   Gauss  10(-4) cm-1        Axes

              Baa    -0.0192    -2.573    -0.918    -0.858  0.0000  0.0000  1.0000
     1 C(13)  Bbb     0.0025     0.338     0.120     0.113  0.9508  0.3098 -0.0000
              Bcc     0.0167     2.235     0.798     0.746 -0.3098  0.9508 -0.0000
 
              Baa    -0.5323   -71.428   -25.487   -23.826  0.0491  0.9988  0.0000
     2 C(13)  Bbb    -0.5277   -70.808   -25.266   -23.619 -0.0000 -0.0000  1.0000
              Bcc     1.0600   142.237    50.754    47.445  0.9988 -0.0491 -0.0000
 
              Baa    -0.0108    -5.749    -2.051    -1.918  0.0000  0.0000  1.0000
     3 H(1)   Bbb    -0.0063    -3.373    -1.204    -1.125  0.8861  0.4634 -0.0000
              Bcc     0.0171     9.122     3.255     3.043 -0.4634  0.8861  0.0000
 
              Baa    -0.0090    -4.787    -1.708    -1.597 -0.3513  0.4561  0.8177
     4 H(1)   Bbb    -0.0085    -4.530    -1.617    -1.511  0.9237  0.0265  0.3821
              Bcc     0.0175     9.318     3.325     3.108  0.1526  0.8895 -0.4306
 
              Baa    -0.0090    -4.787    -1.708    -1.597  0.3513 -0.4561  0.8177
     5 H(1)   Bbb    -0.0085    -4.530    -1.617    -1.511  0.9237  0.0265 -0.3821
              Bcc     0.0175     9.318     3.325     3.108  0.1526  0.8895  0.4306
 
              Baa    -0.0682   -36.366   -12.976   -12.130  0.0450  0.8586  0.5107
     6 H(1)   Bbb    -0.0050    -2.657    -0.948    -0.886  0.9943 -0.0881  0.0605
              Bcc     0.0731    39.022    13.924    13.016 -0.0969 -0.5051  0.8576
 
              Baa    -0.0682   -36.366   -12.976   -12.130  0.0450  0.8586 -0.5107
     7 H(1)   Bbb    -0.0050    -2.657    -0.948    -0.886  0.9943 -0.0881 -0.0605
              Bcc     0.0731    39.022    13.924    13.016  0.0969  0.5051  0.8576
 

 ---------------------------------------------------------------------------------

 No NMR shielding tensors so no spin-rotation constants.
 Leave Link  601 at Wed Oct  7 16:08:22 2020, MaxMem=  2684354560 cpu:               5.3 elap:               0.8
 (Enter /udrive/faculty/rpeverati/g16/g16/l9999.exe)

 Test job not archived.
 1\1\GINC-NODE23\FOpt\UPBEPBE\6-31G(d)\C2H5(2)\RPEVERATI\07-Oct-2020\0\
 \#P Opt(MaxCyc=100) PBEPBE/6-31G* 5D 7F Integral=UltraFineGrid SCF=(No
 Symm,XQC,MaxCyc=120) IOp(1/33=1)\\TS search on BH76.\\0,2\C,-0.0116537
 949,-0.691255825,0.\C,-0.0117833408,0.7976127355,0.\H,1.0190339324,-1.
 1140174088,0.\H,-0.5123160255,-1.1047141104,0.8941083386\H,-0.51231602
 55,-1.1047141104,-0.8941083386\H,0.0673925377,1.3602279533,-0.93413452
 9\H,0.0673925377,1.3602279533,0.934134529\\Version=ES64L-G16RevA.03\St
 ate=2-A'\HF=-79.0291425\S2=0.753591\S2-1=0.\S2A=0.750008\RMSD=6.470e-0
 9\RMSF=1.380e-05\Dipole=0.0523199,-0.0995675,0.\Quadrupole=-0.6487959,
 0.1320857,0.5167102,0.1266846,0.,0.\PG=CS [SG(C2H1),X(H4)]\\@


 WHEN IT COMES TO CASH FLOW, IT SEEMS LIKE THE TIDE IS ALWAYS GOING OUT.
 Job cpu time:       0 days  0 hours  3 minutes 35.9 seconds.
 Elapsed time:       0 days  0 hours  0 minutes 38.0 seconds.
 File lengths (MBytes):  RWF=      5 Int=      0 D2E=      0 Chk=      1 Scr=      1
 Normal termination of Gaussian 16 at Wed Oct  7 16:08:23 2020.
