 Entering Gaussian System, Link 0=g16
 Input=MN_14_C2H5_upper_BH76_PBE_631Gs.in
 Output=MN_14_C2H5_upper_BH76_PBE_631Gs.log
 Initial command:
 /udrive/faculty/rpeverati/g16/g16/l1.exe "/udrive/scratch-directories/gaussian09/rpeverati/Gau-33251.inp" -scrdir="/udrive/scratch-directories/gaussian09/rpeverati/"
 Entering Link 1 = /udrive/faculty/rpeverati/g16/g16/l1.exe PID=     33252.
  
 Copyright (c) 1988,1990,1992,1993,1995,1998,2003,2009,2016,
            Gaussian, Inc.  All Rights Reserved.
  
 This is part of the Gaussian(R) 16 program.  It is based on
 the Gaussian(R) 09 system (copyright 2009, Gaussian, Inc.),
 the Gaussian(R) 03 system (copyright 2003, Gaussian, Inc.),
 the Gaussian(R) 98 system (copyright 1998, Gaussian, Inc.),
 the Gaussian(R) 94 system (copyright 1995, Gaussian, Inc.),
 the Gaussian 92(TM) system (copyright 1992, Gaussian, Inc.),
 the Gaussian 90(TM) system (copyright 1990, Gaussian, Inc.),
 the Gaussian 88(TM) system (copyright 1988, Gaussian, Inc.),
 the Gaussian 86(TM) system (copyright 1986, Carnegie Mellon
 University), and the Gaussian 82(TM) system (copyright 1983,
 Carnegie Mellon University). Gaussian is a federally registered
 trademark of Gaussian, Inc.
  
 This software contains proprietary and confidential information,
 including trade secrets, belonging to Gaussian, Inc.
  
 This software is provided under written license and may be
 used, copied, transmitted, or stored only in accord with that
 written license.
  
 The following legend is applicable only to US Government
 contracts under FAR:
  
                    RESTRICTED RIGHTS LEGEND
  
 Use, reproduction and disclosure by the US Government is
 subject to restrictions as set forth in subparagraphs (a)
 and (c) of the Commercial Computer Software - Restricted
 Rights clause in FAR 52.227-19.
  
 Gaussian, Inc.
 340 Quinnipiac St., Bldg. 40, Wallingford CT 06492
  
  
 ---------------------------------------------------------------
 Warning -- This program may not be used in any manner that
 competes with the business of Gaussian, Inc. or will provide
 assistance to any competitor of Gaussian, Inc.  The licensee
 of this program is prohibited from giving any competitor of
 Gaussian, Inc. access to this program.  By using this program,
 the user acknowledges that Gaussian, Inc. is engaged in the
 business of creating and licensing software in the field of
 computational chemistry and represents and warrants to the
 licensee that it is not a competitor of Gaussian, Inc. and that
 it will not use this program in any manner prohibited above.
 ---------------------------------------------------------------
  

 Cite this work as:
 Gaussian 16, Revision A.03,
 M. J. Frisch, G. W. Trucks, H. B. Schlegel, G. E. Scuseria, 
 M. A. Robb, J. R. Cheeseman, G. Scalmani, V. Barone, 
 G. A. Petersson, H. Nakatsuji, X. Li, M. Caricato, A. V. Marenich, 
 J. Bloino, B. G. Janesko, R. Gomperts, B. Mennucci, H. P. Hratchian, 
 J. V. Ortiz, A. F. Izmaylov, J. L. Sonnenberg, D. Williams-Young, 
 F. Ding, F. Lipparini, F. Egidi, J. Goings, B. Peng, A. Petrone, 
 T. Henderson, D. Ranasinghe, V. G. Zakrzewski, J. Gao, N. Rega, 
 G. Zheng, W. Liang, M. Hada, M. Ehara, K. Toyota, R. Fukuda, 
 J. Hasegawa, M. Ishida, T. Nakajima, Y. Honda, O. Kitao, H. Nakai, 
 T. Vreven, K. Throssell, J. A. Montgomery, Jr., J. E. Peralta, 
 F. Ogliaro, M. J. Bearpark, J. J. Heyd, E. N. Brothers, K. N. Kudin, 
 V. N. Staroverov, T. A. Keith, R. Kobayashi, J. Normand, 
 K. Raghavachari, A. P. Rendell, J. C. Burant, S. S. Iyengar, 
 J. Tomasi, M. Cossi, J. M. Millam, M. Klene, C. Adamo, R. Cammi, 
 J. W. Ochterski, R. L. Martin, K. Morokuma, O. Farkas, 
 J. B. Foresman, and D. J. Fox, Gaussian, Inc., Wallingford CT, 2016.
 
 ******************************************
 Gaussian 16:  ES64L-G16RevA.03 25-Dec-2016
                 7-Oct-2020 
 ******************************************
 %NoSave
 %nproc=12
 Will use up to   12 processors via shared memory.
 %mem=20GB
 %chk=MN_14_C2H5_upper_BH76_PBE_631Gs
 ----------------------------------------------------------------------
 #P Opt(MaxCyc=100) PBEPBE/6-31G* 5D 7F Integral=UltraFineGrid SCF=(NoS
 ymm,XQC,MaxCyc=120) IOp(1/33=1)
 ----------------------------------------------------------------------
 1/6=100,18=20,19=15,26=4,33=1,38=1/1,3;
 2/9=110,12=2,17=6,18=5,40=1/2;
 3/5=1,6=6,7=1,8=11,11=2,25=1,30=1,71=1,74=1009,75=-5/1,2,3;
 4/9=2/1;
 5/5=2,7=120,8=3,13=1,38=5/2,8;
 6/7=2,8=2,9=2,10=2,28=1/1;
 7//1,2,3,16;
 1/6=100,18=20,19=15,26=4,33=1/3(2);
 2/9=110/2;
 99//99;
 2/9=110/2;
 3/5=1,6=6,7=1,8=11,11=2,25=1,30=1,71=1,74=1009,75=-5/1,2,3;
 4/5=5,9=2,16=3,69=1/1;
 5/5=2,7=120,8=3,13=1,38=5/2,8;
 7//1,2,3,16;
 1/6=100,18=20,19=15,26=4,33=1/3(-5);
 2/9=110/2;
 6/7=2,8=2,9=2,10=2,19=2,28=1/1;
 99/9=1/99;
 Leave Link    1 at Wed Oct  7 16:07:55 2020, MaxMem=  2684354560 cpu:               7.2 elap:               0.8
 (Enter /udrive/faculty/rpeverati/g16/g16/l101.exe)
 ONIOM data not found on unit 2.
 ------------------
 TS search on BH76.
 ------------------
 TstMul:  ICh=     0
 TstMul:  Mul=     2
 TstMul:  ICh=     0
 TstMul:  Mul=     2
 Symbolic Z-matrix:
 Charge =  0 Multiplicity = 2
 C                     0.79461   0.00001  -0.02239 
 C                    -0.69537   0.00017  -0.00046 
 H                    -1.1034    0.88959  -0.48106 
 H                     1.34848  -0.92405   0.04849 
 H                    -1.08604  -0.01333   1.02465 
 H                    -1.10383  -0.87672  -0.50357 
 H                     1.34939   0.92345   0.04863 
 
 RdStrC is calling ZToCFu for IStruc=1 NZ=     7.
 PrtBox:  NBox=     1 Levels=  1 BoxLen=    8.00 SMaxX=        4.64
          Shift=            2.085930            1.746200            0.951617
 Box      1 Number                   0 centers from      1 to      7:
 After GenITR:
 ITRead=  0  0  0  0  0  0  0
 MicOpt= -1 -1 -1 -1 -1 -1 -1
 ITRead=  0  0  0  0  0  0  0
 MicOpt= -1 -1 -1 -1 -1 -1 -1
 NAtoms=      7 NQM=        7 NQMF=       0 NMMI=      0 NMMIF=      0
                NMic=       0 NMicF=      0.
                    Isotopes and Nuclear Properties:
 (Nuclear quadrupole moments (NQMom) in fm**2, nuclear magnetic moments (NMagM)
  in nuclear magnetons)

  Atom         1           2           3           4           5           6           7
 IAtWgt=          12          12           1           1           1           1           1
 AtmWgt=  12.0000000  12.0000000   1.0078250   1.0078250   1.0078250   1.0078250   1.0078250
 NucSpn=           0           0           1           1           1           1           1
 AtZEff=   0.0000000   0.0000000   0.0000000   0.0000000   0.0000000   0.0000000   0.0000000
 NQMom=    0.0000000   0.0000000   0.0000000   0.0000000   0.0000000   0.0000000   0.0000000
 NMagM=    0.0000000   0.0000000   2.7928460   2.7928460   2.7928460   2.7928460   2.7928460
 AtZNuc=   6.0000000   6.0000000   1.0000000   1.0000000   1.0000000   1.0000000   1.0000000
 No MM parameters found.
 Leave Link  101 at Wed Oct  7 16:07:56 2020, MaxMem=  2684354560 cpu:              13.4 elap:               1.3
 (Enter /udrive/faculty/rpeverati/g16/g16/l103.exe)

 GradGradGradGradGradGradGradGradGradGradGradGradGradGradGradGradGradGrad
 Berny optimization.
 Optmz: redundant internal coordinate code flag= 1
 Initialization pass.
                           ----------------------------
                           !    Initial Parameters    !
                           ! (Angstroms and Degrees)  !
 --------------------------                            --------------------------
 ! Name  Definition              Value          Derivative Info.                !
 --------------------------------------------------------------------------------
 ! R1    R(1,2)                  1.4901         estimate D2E/DX2                !
 ! R2    R(1,4)                  1.0797         estimate D2E/DX2                !
 ! R3    R(1,7)                  1.0796         estimate D2E/DX2                !
 ! R4    R(2,3)                  1.0902         estimate D2E/DX2                !
 ! R5    R(2,5)                  1.0971         estimate D2E/DX2                !
 ! R6    R(2,6)                  1.0904         estimate D2E/DX2                !
 ! A1    A(2,1,4)              120.802          estimate D2E/DX2                !
 ! A2    A(2,1,7)              120.8472         estimate D2E/DX2                !
 ! A3    A(4,1,7)              117.654          estimate D2E/DX2                !
 ! A4    A(1,2,3)              111.5818         estimate D2E/DX2                !
 ! A5    A(1,2,5)              111.7036         estimate D2E/DX2                !
 ! A6    A(1,2,6)              111.5728         estimate D2E/DX2                !
 ! A7    A(3,2,5)              106.778          estimate D2E/DX2                !
 ! A8    A(3,2,6)              108.2098         estimate D2E/DX2                !
 ! A9    A(5,2,6)              106.7292         estimate D2E/DX2                !
 ! D1    D(4,1,2,3)           -156.2068         estimate D2E/DX2                !
 ! D2    D(4,1,2,5)             84.3504         estimate D2E/DX2                !
 ! D3    D(4,1,2,6)            -35.0241         estimate D2E/DX2                !
 ! D4    D(7,1,2,3)             33.5825         estimate D2E/DX2                !
 ! D5    D(7,1,2,5)            -85.8603         estimate D2E/DX2                !
 ! D6    D(7,1,2,6)            154.7652         estimate D2E/DX2                !
 --------------------------------------------------------------------------------
 Maximum allowed force set to 1.00D+20.
 Trust Radius=3.00D-01 FncErr=1.00D-07 GrdErr=1.00D-06 EigMax=2.50D+02 EigMin=1.00D-04
 Number of steps in this run=    100 maximum allowed number of steps=    100.
 GradGradGradGradGradGradGradGradGradGradGradGradGradGradGradGradGradGrad

 Leave Link  103 at Wed Oct  7 16:07:57 2020, MaxMem=  2684354560 cpu:               1.4 elap:               0.6
 (Enter /udrive/faculty/rpeverati/g16/g16/l202.exe)
                          Input orientation:                          
 ---------------------------------------------------------------------
 Center     Atomic      Atomic             Coordinates (Angstroms)
 Number     Number       Type             X           Y           Z
 ---------------------------------------------------------------------
      1          6           0        0.794607    0.000006   -0.022395
      2          6           0       -0.695371    0.000170   -0.000460
      3          1           0       -1.103398    0.889595   -0.481056
      4          1           0        1.348476   -0.924049    0.048485
      5          1           0       -1.086041   -0.013327    1.024646
      6          1           0       -1.103827   -0.876720   -0.503574
      7          1           0        1.349386    0.923446    0.048633
 ---------------------------------------------------------------------
                    Distance matrix (angstroms):
                    1          2          3          4          5
     1  C    0.000000
     2  C    1.490139   0.000000
     3  H    2.145731   1.090199   0.000000
     4  H    1.079663   2.243632   3.095384   0.000000
     5  H    2.152512   1.097109   1.755764   2.776540   0.000000
     6  H    2.145747   1.090365   1.766458   2.514119   1.755340
     7  H    1.079614   2.244076   2.509555   1.847495   2.785938
                    6          7
     6  H    0.000000
     7  H    3.092536   0.000000
 Stoichiometry    C2H5(2)
 Framework group  C1[X(C2H5)]
 Deg. of freedom    15
 Full point group                 C1      NOp   1
 Largest Abelian subgroup         C1      NOp   1
 Largest concise Abelian subgroup C1      NOp   1
                         Standard orientation:                         
 ---------------------------------------------------------------------
 Center     Atomic      Atomic             Coordinates (Angstroms)
 Number     Number       Type             X           Y           Z
 ---------------------------------------------------------------------
      1          6           0        0.794606    0.000007   -0.022395
      2          6           0       -0.695372    0.000169   -0.000460
      3          1           0       -1.103400    0.889593   -0.481056
      4          1           0        1.348476   -0.924048    0.048485
      5          1           0       -1.086042   -0.013328    1.024646
      6          1           0       -1.103827   -0.876721   -0.503574
      7          1           0        1.349384    0.923447    0.048633
 ---------------------------------------------------------------------
 Rotational constants (GHZ):         104.2257635          22.7282478          21.0824177
 Leave Link  202 at Wed Oct  7 16:07:58 2020, MaxMem=  2684354560 cpu:               1.4 elap:               0.7
 (Enter /udrive/faculty/rpeverati/g16/g16/l301.exe)
 Standard basis: 6-31G(d) (5D, 7F)
 Ernie: Thresh=  0.10000D-02 Tol=  0.10000D-05 Strict=F.
 There are    40 symmetry adapted cartesian basis functions of A   symmetry.
 There are    38 symmetry adapted basis functions of A   symmetry.
    38 basis functions,    76 primitive gaussians,    40 cartesian basis functions
     9 alpha electrons        8 beta electrons
       nuclear repulsion energy        36.9816189775 Hartrees.
 IExCor= 1009 DFT=T Ex=PBE Corr=PBE ExCW=0 ScaHFX=  0.000000
 ScaDFX=  1.000000  1.000000  1.000000  1.000000 ScalE2=  1.000000  1.000000
 IRadAn=      5 IRanWt=     -1 IRanGd=            0 ICorTp=0 IEmpDi=  4
 NAtoms=    7 NActive=    7 NUniq=    7 SFac= 1.00D+00 NAtFMM=   60 NAOKFM=F Big=F
 Integral buffers will be    131072 words long.
 Raffenetti 2 integral format.
 Two-electron integral symmetry is turned on.
 Leave Link  301 at Wed Oct  7 16:07:59 2020, MaxMem=  2684354560 cpu:               3.5 elap:               0.9
 (Enter /udrive/faculty/rpeverati/g16/g16/l302.exe)
 NPDir=0 NMtPBC=     1 NCelOv=     1 NCel=       1 NClECP=     1 NCelD=      1
         NCelK=      1 NCelE2=     1 NClLst=     1 CellRange=     0.0.
 One-electron integrals computed using PRISM.
 One-electron integral symmetry used in STVInt
 NBasis=    38 RedAO= T EigKep=  1.05D-02  NBF=    38
 NBsUse=    38 1.00D-06 EigRej= -1.00D+00 NBFU=    38
 Precomputing XC quadrature grid using
 IXCGrd= 4 IRadAn=           5 IRanWt=          -1 IRanGd=           0 AccXCQ= 0.00D+00.
 Generated NRdTot=       0 NPtTot=           0 NUsed=           0 NTot=          32
 NSgBfM=    40    40    40    40    40 MxSgAt=     7 MxSgA2=     7.
 Leave Link  302 at Wed Oct  7 16:08:01 2020, MaxMem=  2684354560 cpu:               3.7 elap:               0.8
 (Enter /udrive/faculty/rpeverati/g16/g16/l303.exe)
 DipDrv:  MaxL=1.
 Leave Link  303 at Wed Oct  7 16:08:02 2020, MaxMem=  2684354560 cpu:               4.2 elap:               0.7
 (Enter /udrive/faculty/rpeverati/g16/g16/l401.exe)
 SCF N**3 symmetry information disabled.
 ExpMin= 1.61D-01 ExpMax= 3.05D+03 ExpMxC= 4.57D+02 IAcc=3 IRadAn=         5 AccDes= 0.00D+00
 Harris functional with IExCor= 1009 and IRadAn=       5 diagonalized for initial guess.
 HarFok:  IExCor= 1009 AccDes= 0.00D+00 IRadAn=         5 IDoV= 1 UseB2=F ITyADJ=14
 ICtDFT=  3500011 ScaDFX=  1.000000  1.000000  1.000000  1.000000
 FoFCou: FMM=F IPFlag=           0 FMFlag=      100000 FMFlg1=           0
         NFxFlg=           0 DoJE=T BraDBF=F KetDBF=T FulRan=T
         wScrn=  0.000000 ICntrl=       500 IOpCl=  0 I1Cent=   200000004 NGrid=           0
         NMat0=    1 NMatS0=      1 NMatT0=    0 NMatD0=    1 NMtDS0=    0 NMtDT0=    0
 Petite list used in FoFCou.
 Harris En= -79.0853672489043    
 JPrj=0 DoOrth=F DoCkMO=F.
 Initial guess <Sx>= 0.0000 <Sy>= 0.0000 <Sz>= 0.5000 <S**2>= 0.7500 S= 0.5000
 Leave Link  401 at Wed Oct  7 16:08:03 2020, MaxMem=  2684354560 cpu:               5.9 elap:               0.9
 (Enter /udrive/faculty/rpeverati/g16/g16/l502.exe)
 Keep J ints in memory in canonical form, NReq=10631630.
 FoFCou: FMM=F IPFlag=           0 FMFlag=           0 FMFlg1=           0
         NFxFlg=           0 DoJE=F BraDBF=F KetDBF=F FulRan=T
         wScrn=  0.000000 ICntrl=       600 IOpCl=  0 I1Cent=           0 NGrid=           0
         NMat0=    1 NMatS0=    741 NMatT0=    0 NMatD0=    1 NMtDS0=    0 NMtDT0=    0
 Symmetry not used in FoFCou.
 Two-electron integral symmetry not used.
 UHF open shell SCF:
 Using DIIS extrapolation, IDIIS=  1040.
 NGot=  2684354560 LenX=  2684075284 LenY=  2684073243
 Requested convergence on RMS density matrix=1.00D-08 within 120 cycles.
 Requested convergence on MAX density matrix=1.00D-06.
 Requested convergence on             energy=1.00D-06.
 No special actions if energy rises.
 Integral accuracy reduced to 1.0D-05 until final iterations.

 Cycle   1  Pass 0  IDiag  1:
 E= -78.9439908445926    
 DIIS: error= 5.75D-02 at cycle   1 NSaved=   1.
 NSaved= 1 IEnMin= 1 EnMin= -78.9439908445926     IErMin= 1 ErrMin= 5.75D-02
 ErrMax= 5.75D-02  0.00D+00 EMaxC= 1.00D-01 BMatC= 2.88D-01 BMatP= 2.88D-01
 IDIUse=3 WtCom= 4.25D-01 WtEn= 5.75D-01
 Coeff-Com:  0.100D+01
 Coeff-En:   0.100D+01
 Coeff:      0.100D+01
 Gap=     0.190 Goal=   None    Shift=    0.000
 Gap=     0.248 Goal=   None    Shift=    0.000
 GapD=    0.190 DampG=1.000 DampE=0.500 DampFc=0.5000 IDamp=-1.
 Damping current iteration by 5.00D-01
 RMSDP=1.72D-02 MaxDP=1.55D-01              OVMax= 1.96D-01

 Cycle   2  Pass 0  IDiag  1:
 E= -78.9751512388505     Delta-E=       -0.031160394258 Rises=F Damp=T
 DIIS: error= 8.95D-03 at cycle   2 NSaved=   2.
 NSaved= 2 IEnMin= 2 EnMin= -78.9751512388505     IErMin= 2 ErrMin= 8.95D-03
 ErrMax= 8.95D-03  0.00D+00 EMaxC= 1.00D-01 BMatC= 1.58D-02 BMatP= 2.88D-01
 IDIUse=3 WtCom= 9.10D-01 WtEn= 8.95D-02
 Coeff-Com:  0.163D+00 0.837D+00
 Coeff-En:   0.264D+00 0.736D+00
 Coeff:      0.172D+00 0.828D+00
 Gap=     0.243 Goal=   None    Shift=    0.000
 Gap=     0.267 Goal=   None    Shift=    0.000
 RMSDP=2.27D-03 MaxDP=2.58D-02 DE=-3.12D-02 OVMax= 1.15D-01

 Cycle   3  Pass 0  IDiag  1:
 E= -79.0283080913131     Delta-E=       -0.053156852463 Rises=F Damp=F
 DIIS: error= 2.01D-03 at cycle   3 NSaved=   3.
 NSaved= 3 IEnMin= 3 EnMin= -79.0283080913131     IErMin= 3 ErrMin= 2.01D-03
 ErrMax= 2.01D-03  0.00D+00 EMaxC= 1.00D-01 BMatC= 5.21D-04 BMatP= 1.58D-02
 IDIUse=3 WtCom= 9.80D-01 WtEn= 2.01D-02
 Coeff-Com:  0.285D-01 0.144D+00 0.827D+00
 Coeff-En:   0.000D+00 0.000D+00 0.100D+01
 Coeff:      0.280D-01 0.141D+00 0.831D+00
 Gap=     0.249 Goal=   None    Shift=    0.000
 Gap=     0.237 Goal=   None    Shift=    0.000
 RMSDP=4.69D-04 MaxDP=6.62D-03 DE=-5.32D-02 OVMax= 6.00D-03

 Cycle   4  Pass 0  IDiag  1:
 E= -79.0284285669528     Delta-E=       -0.000120475640 Rises=F Damp=F
 DIIS: error= 9.92D-04 at cycle   4 NSaved=   4.
 NSaved= 4 IEnMin= 4 EnMin= -79.0284285669528     IErMin= 4 ErrMin= 9.92D-04
 ErrMax= 9.92D-04  0.00D+00 EMaxC= 1.00D-01 BMatC= 1.41D-04 BMatP= 5.21D-04
 IDIUse=3 WtCom= 9.90D-01 WtEn= 9.92D-03
 Coeff-Com:  0.249D-02 0.913D-02 0.322D+00 0.666D+00
 Coeff-En:   0.000D+00 0.000D+00 0.000D+00 0.100D+01
 Coeff:      0.246D-02 0.904D-02 0.319D+00 0.670D+00
 Gap=     0.248 Goal=   None    Shift=    0.000
 Gap=     0.240 Goal=   None    Shift=    0.000
 RMSDP=1.95D-04 MaxDP=2.48D-03 DE=-1.20D-04 OVMax= 3.14D-03

 Cycle   5  Pass 0  IDiag  1:
 E= -79.0284592131433     Delta-E=       -0.000030646191 Rises=F Damp=F
 DIIS: error= 4.76D-04 at cycle   5 NSaved=   5.
 NSaved= 5 IEnMin= 5 EnMin= -79.0284592131433     IErMin= 5 ErrMin= 4.76D-04
 ErrMax= 4.76D-04  0.00D+00 EMaxC= 1.00D-01 BMatC= 3.36D-05 BMatP= 1.41D-04
 IDIUse=3 WtCom= 9.95D-01 WtEn= 4.76D-03
 Coeff-Com: -0.286D-02-0.158D-01 0.586D-01 0.356D+00 0.604D+00
 Coeff-En:   0.000D+00 0.000D+00 0.000D+00 0.120D+00 0.880D+00
 Coeff:     -0.284D-02-0.158D-01 0.583D-01 0.355D+00 0.605D+00
 Gap=     0.249 Goal=   None    Shift=    0.000
 Gap=     0.239 Goal=   None    Shift=    0.000
 RMSDP=7.32D-05 MaxDP=1.11D-03 DE=-3.06D-05 OVMax= 1.18D-03

 Cycle   6  Pass 0  IDiag  1:
 E= -79.0284682802626     Delta-E=       -0.000009067119 Rises=F Damp=F
 DIIS: error= 6.19D-05 at cycle   6 NSaved=   6.
 NSaved= 6 IEnMin= 6 EnMin= -79.0284682802626     IErMin= 6 ErrMin= 6.19D-05
 ErrMax= 6.19D-05  0.00D+00 EMaxC= 1.00D-01 BMatC= 5.05D-07 BMatP= 3.36D-05
 IDIUse=1 WtCom= 1.00D+00 WtEn= 0.00D+00
 Coeff-Com: -0.345D-03-0.158D-02-0.272D-01-0.436D-01 0.453D-01 0.103D+01
 Coeff:     -0.345D-03-0.158D-02-0.272D-01-0.436D-01 0.453D-01 0.103D+01
 Gap=     0.249 Goal=   None    Shift=    0.000
 Gap=     0.240 Goal=   None    Shift=    0.000
 RMSDP=1.52D-05 MaxDP=1.97D-04 DE=-9.07D-06 OVMax= 2.34D-04

 Cycle   7  Pass 0  IDiag  1:
 E= -79.0284685120161     Delta-E=       -0.000000231753 Rises=F Damp=F
 DIIS: error= 7.48D-06 at cycle   7 NSaved=   7.
 NSaved= 7 IEnMin= 7 EnMin= -79.0284685120161     IErMin= 7 ErrMin= 7.48D-06
 ErrMax= 7.48D-06  0.00D+00 EMaxC= 1.00D-01 BMatC= 1.03D-08 BMatP= 5.05D-07
 IDIUse=1 WtCom= 1.00D+00 WtEn= 0.00D+00
 Coeff-Com:  0.106D-03 0.700D-03-0.354D-02-0.160D-01-0.203D-01 0.394D-01
 Coeff-Com:  0.100D+01
 Coeff:      0.106D-03 0.700D-03-0.354D-02-0.160D-01-0.203D-01 0.394D-01
 Coeff:      0.100D+01
 Gap=     0.249 Goal=   None    Shift=    0.000
 Gap=     0.240 Goal=   None    Shift=    0.000
 RMSDP=2.85D-06 MaxDP=3.04D-05 DE=-2.32D-07 OVMax= 3.83D-05

 Initial convergence to 1.0D-05 achieved.  Increase integral accuracy.
 Cycle   8  Pass 1  IDiag  1:
 E= -79.0284677925009     Delta-E=        0.000000719515 Rises=F Damp=F
 DIIS: error= 3.09D-06 at cycle   1 NSaved=   1.
 NSaved= 1 IEnMin= 1 EnMin= -79.0284677925009     IErMin= 1 ErrMin= 3.09D-06
 ErrMax= 3.09D-06  0.00D+00 EMaxC= 1.00D-01 BMatC= 1.36D-09 BMatP= 1.36D-09
 IDIUse=1 WtCom= 1.00D+00 WtEn= 0.00D+00
 Coeff-Com:  0.100D+01
 Coeff:      0.100D+01
 Gap=     0.249 Goal=   None    Shift=    0.000
 Gap=     0.240 Goal=   None    Shift=    0.000
 RMSDP=2.85D-06 MaxDP=3.04D-05 DE= 7.20D-07 OVMax= 1.78D-05

 Cycle   9  Pass 1  IDiag  1:
 E= -79.0284677928242     Delta-E=       -0.000000000323 Rises=F Damp=F
 DIIS: error= 2.28D-06 at cycle   2 NSaved=   2.
 NSaved= 2 IEnMin= 2 EnMin= -79.0284677928242     IErMin= 2 ErrMin= 2.28D-06
 ErrMax= 2.28D-06  0.00D+00 EMaxC= 1.00D-01 BMatC= 6.19D-10 BMatP= 1.36D-09
 IDIUse=1 WtCom= 1.00D+00 WtEn= 0.00D+00
 Coeff-Com:  0.393D+00 0.607D+00
 Coeff:      0.393D+00 0.607D+00
 Gap=     0.249 Goal=   None    Shift=    0.000
 Gap=     0.240 Goal=   None    Shift=    0.000
 RMSDP=5.74D-07 MaxDP=8.51D-06 DE=-3.23D-10 OVMax= 7.84D-06

 Cycle  10  Pass 1  IDiag  1:
 E= -79.0284677930154     Delta-E=       -0.000000000191 Rises=F Damp=F
 DIIS: error= 4.10D-07 at cycle   3 NSaved=   3.
 NSaved= 3 IEnMin= 3 EnMin= -79.0284677930154     IErMin= 3 ErrMin= 4.10D-07
 ErrMax= 4.10D-07  0.00D+00 EMaxC= 1.00D-01 BMatC= 2.28D-11 BMatP= 6.19D-10
 IDIUse=1 WtCom= 1.00D+00 WtEn= 0.00D+00
 Coeff-Com:  0.566D-01 0.163D+00 0.781D+00
 Coeff:      0.566D-01 0.163D+00 0.781D+00
 Gap=     0.249 Goal=   None    Shift=    0.000
 Gap=     0.240 Goal=   None    Shift=    0.000
 RMSDP=9.53D-08 MaxDP=1.29D-06 DE=-1.91D-10 OVMax= 1.27D-06

 Cycle  11  Pass 1  IDiag  1:
 E= -79.0284677930200     Delta-E=       -0.000000000005 Rises=F Damp=F
 DIIS: error= 2.62D-07 at cycle   4 NSaved=   4.
 NSaved= 4 IEnMin= 4 EnMin= -79.0284677930200     IErMin= 4 ErrMin= 2.62D-07
 ErrMax= 2.62D-07  0.00D+00 EMaxC= 1.00D-01 BMatC= 9.98D-12 BMatP= 2.28D-11
 IDIUse=1 WtCom= 1.00D+00 WtEn= 0.00D+00
 Coeff-Com: -0.343D-01-0.851D-02 0.423D+00 0.620D+00
 Coeff:     -0.343D-01-0.851D-02 0.423D+00 0.620D+00
 Gap=     0.249 Goal=   None    Shift=    0.000
 Gap=     0.240 Goal=   None    Shift=    0.000
 RMSDP=4.53D-08 MaxDP=6.37D-07 DE=-4.63D-12 OVMax= 6.08D-07

 Cycle  12  Pass 1  IDiag  1:
 E= -79.0284677930226     Delta-E=       -0.000000000003 Rises=F Damp=F
 DIIS: error= 3.95D-08 at cycle   5 NSaved=   5.
 NSaved= 5 IEnMin= 5 EnMin= -79.0284677930226     IErMin= 5 ErrMin= 3.95D-08
 ErrMax= 3.95D-08  0.00D+00 EMaxC= 1.00D-01 BMatC= 2.07D-13 BMatP= 9.98D-12
 IDIUse=1 WtCom= 1.00D+00 WtEn= 0.00D+00
 Coeff-Com: -0.853D-02-0.144D-01-0.292D-01 0.762D-01 0.976D+00
 Coeff:     -0.853D-02-0.144D-01-0.292D-01 0.762D-01 0.976D+00
 Gap=     0.249 Goal=   None    Shift=    0.000
 Gap=     0.240 Goal=   None    Shift=    0.000
 RMSDP=1.37D-08 MaxDP=1.10D-07 DE=-2.56D-12 OVMax= 1.68D-07

 Cycle  13  Pass 1  IDiag  1:
 E= -79.0284677930229     Delta-E=       -0.000000000000 Rises=F Damp=F
 DIIS: error= 1.91D-08 at cycle   6 NSaved=   6.
 NSaved= 6 IEnMin= 6 EnMin= -79.0284677930229     IErMin= 6 ErrMin= 1.91D-08
 ErrMax= 1.91D-08  0.00D+00 EMaxC= 1.00D-01 BMatC= 3.43D-14 BMatP= 2.07D-13
 IDIUse=1 WtCom= 1.00D+00 WtEn= 0.00D+00
 Coeff-Com: -0.514D-03-0.479D-02-0.433D-01-0.241D-01 0.361D+00 0.711D+00
 Coeff:     -0.514D-03-0.479D-02-0.433D-01-0.241D-01 0.361D+00 0.711D+00
 Gap=     0.249 Goal=   None    Shift=    0.000
 Gap=     0.240 Goal=   None    Shift=    0.000
 RMSDP=4.06D-09 MaxDP=4.26D-08 DE=-2.84D-13 OVMax= 5.38D-08

 SCF Done:  E(UPBE-PBE) =  -79.0284677930     A.U. after   13 cycles
            NFock= 13  Conv=0.41D-08     -V/T= 2.0051
 <Sx>= 0.0000 <Sy>= 0.0000 <Sz>= 0.5000 <S**2>= 0.7535 S= 0.5017
 <L.S>= 0.000000000000E+00
 KE= 7.862522357462D+01 PE=-2.567926464677D+02 EE= 6.215733612253D+01
 Annihilation of the first spin contaminant:
 S**2 before annihilation     0.7535,   after     0.7500
 Leave Link  502 at Wed Oct  7 16:08:06 2020, MaxMem=  2684354560 cpu:              26.5 elap:               2.7
 (Enter /udrive/faculty/rpeverati/g16/g16/l508.exe)
 QCSCF skips out because SCF is already converged.
 Leave Link  508 at Wed Oct  7 16:08:07 2020, MaxMem=  2684354560 cpu:               0.4 elap:               0.4
 (Enter /udrive/faculty/rpeverati/g16/g16/l601.exe)
 Copying SCF densities to generalized density rwf, IOpCl= 1 IROHF=0.

 **********************************************************************

            Population analysis using the SCF density.

 **********************************************************************

 Orbital symmetries:
 Alpha Orbitals:
       Occupied  (A) (A) (A) (A) (A) (A) (A) (A) (A)
       Virtual   (A) (A) (A) (A) (A) (A) (A) (A) (A) (A) (A) (A)
                 (A) (A) (A) (A) (A) (A) (A) (A) (A) (A) (A) (A)
                 (A) (A) (A) (A) (A)
 Beta  Orbitals:
       Occupied  (A) (A) (A) (A) (A) (A) (A) (A)
       Virtual   (A) (A) (A) (A) (A) (A) (A) (A) (A) (A) (A) (A)
                 (A) (A) (A) (A) (A) (A) (A) (A) (A) (A) (A) (A)
                 (A) (A) (A) (A) (A) (A)
 The electronic state is 2-A.
 Alpha  occ. eigenvalues --   -9.88769  -9.87829  -0.67809  -0.54103  -0.39629
 Alpha  occ. eigenvalues --   -0.36139  -0.33884  -0.30795  -0.15434
 Alpha virt. eigenvalues --    0.09418   0.11784   0.12424   0.15247   0.19620
 Alpha virt. eigenvalues --    0.22610   0.47867   0.50434   0.51491   0.57364
 Alpha virt. eigenvalues --    0.57822   0.70109   0.75123   0.82538   0.83327
 Alpha virt. eigenvalues --    0.89780   0.90253   0.92758   1.23285   1.39770
 Alpha virt. eigenvalues --    1.58087   1.69107   1.85441   1.92291   2.08471
 Alpha virt. eigenvalues --    2.11244   2.25279   2.38157   2.51436
  Beta  occ. eigenvalues --   -9.87904  -9.87426  -0.66383  -0.52044  -0.38991
  Beta  occ. eigenvalues --   -0.35044  -0.33075  -0.30363
  Beta virt. eigenvalues --   -0.06411   0.09907   0.12668   0.13225   0.15995
  Beta virt. eigenvalues --    0.20109   0.23575   0.48576   0.50769   0.55986
  Beta virt. eigenvalues --    0.59132   0.61246   0.70934   0.77124   0.83204
  Beta virt. eigenvalues --    0.83831   0.90123   0.91162   0.95164   1.24463
  Beta virt. eigenvalues --    1.42517   1.64646   1.69761   1.88668   1.96054
  Beta virt. eigenvalues --    2.11748   2.14092   2.27074   2.38871   2.53025
          Condensed to atoms (all electrons):
               1          2          3          4          5          6
     1  C    5.275724   0.396407  -0.034015   0.380062  -0.046321  -0.034386
     2  C    0.396407   5.057351   0.378985  -0.037247   0.369585   0.378839
     3  H   -0.034015   0.378985   0.549293   0.004107  -0.034956  -0.028931
     4  H    0.380062  -0.037247   0.004107   0.543444   0.000575  -0.005721
     5  H   -0.046321   0.369585  -0.034956   0.000575   0.570807  -0.035171
     6  H   -0.034386   0.378839  -0.028931  -0.005721  -0.035171   0.549698
     7  H    0.380147  -0.037164  -0.005890  -0.038456   0.000719   0.004088
               7
     1  C    0.380147
     2  C   -0.037164
     3  H   -0.005890
     4  H   -0.038456
     5  H    0.000719
     6  H    0.004088
     7  H    0.543171
          Atomic-Atomic Spin Densities.
               1          2          3          4          5          6
     1  C    1.184857  -0.038161  -0.008390  -0.006335  -0.033647  -0.009040
     2  C   -0.038161  -0.063735   0.006342  -0.000156   0.015782   0.006663
     3  H   -0.008390   0.006342   0.022442   0.000002  -0.011933   0.004707
     4  H   -0.006335  -0.000156   0.000002  -0.046989  -0.000468   0.000749
     5  H   -0.033647   0.015782  -0.011933  -0.000468   0.106341  -0.012475
     6  H   -0.009040   0.006663   0.004707   0.000749  -0.012475   0.024567
     7  H   -0.006334  -0.000168   0.000748   0.002341  -0.000468   0.000011
               7
     1  C   -0.006334
     2  C   -0.000168
     3  H    0.000748
     4  H    0.002341
     5  H   -0.000468
     6  H    0.000011
     7  H   -0.047024
 Mulliken charges and spin densities:
               1          2
     1  C   -0.317618   1.082949
     2  C   -0.506755  -0.073433
     3  H    0.171407   0.013918
     4  H    0.153235  -0.050855
     5  H    0.174762   0.063132
     6  H    0.171583   0.015182
     7  H    0.153386  -0.050893
 Sum of Mulliken charges =   0.00000   1.00000
 Mulliken charges and spin densities with hydrogens summed into heavy atoms:
               1          2
     1  C   -0.010996   0.981200
     2  C    0.010996   0.018800
 Electronic spatial extent (au):  <R**2>=             98.2691
 Charge=              0.0000 electrons
 Dipole moment (field-independent basis, Debye):
    X=             -0.2571    Y=             -0.0007    Z=              0.1400  Tot=              0.2927
 Quadrupole moment (field-independent basis, Debye-Ang):
   XX=            -13.8908   YY=            -13.3385   ZZ=            -14.8680
   XY=              0.0014   XZ=              0.1577   YZ=              0.0002
 Traceless Quadrupole moment (field-independent basis, Debye-Ang):
   XX=              0.1416   YY=              0.6939   ZZ=             -0.8356
   XY=              0.0014   XZ=              0.1577   YZ=              0.0002
 Octapole moment (field-independent basis, Debye-Ang**2):
  XXX=              0.1996  YYY=              0.0212  ZZZ=              0.7153  XYY=              0.4568
  XXY=              0.0020  XXZ=              0.2187  XZZ=             -1.4262  YZZ=             -0.0210
  YYZ=             -0.4345  XYZ=             -0.0002
 Hexadecapole moment (field-independent basis, Debye-Ang**3):
 XXXX=            -83.2530 YYYY=            -27.0387 ZZZZ=            -21.9324 XXXY=              0.0048
 XXXZ=              0.4703 YYYX=             -0.0252 YYYZ=              0.0008 ZZZX=             -0.4181
 ZZZY=             -0.0005 XXYY=            -16.3313 XXZZ=            -17.9573 YYZZ=             -8.4674
 XXYZ=              0.0013 YYXZ=              0.8163 ZZXY=              0.0249
 N-N= 3.698161897751D+01 E-N=-2.567926456702D+02  KE= 7.862522357462D+01
                          Isotropic Fermi Contact Couplings
        Atom                 a.u.       MegaHertz       Gauss      10(-4) cm-1
     1  C(13)              0.14175     159.35448      56.86164      53.15493
     2  C(13)             -0.02876     -32.32920     -11.53586     -10.78386
     3  H(1)               0.00756      33.78781      12.05633      11.27040
     4  H(1)              -0.01496     -66.87917     -23.86415     -22.30849
     5  H(1)               0.03257     145.56481      51.94114      48.55519
     6  H(1)               0.00824      36.82829      13.14125      12.28459
     7  H(1)              -0.01498     -66.95036     -23.88955     -22.33224
 --------------------------------------------------------
       Center         ----  Spin Dipole Couplings  ----
                      3XX-RR        3YY-RR        3ZZ-RR
 --------------------------------------------------------
     1   Atom       -0.531013     -0.529492      1.060505
     2   Atom        0.013037     -0.020160      0.007124
     3   Atom        0.012247     -0.003944     -0.008302
     4   Atom       -0.033246      0.036599     -0.003353
     5   Atom        0.012033     -0.011303     -0.000730
     6   Atom        0.012317     -0.003993     -0.008324
     7   Atom       -0.033124      0.036448     -0.003324
 --------------------------------------------------------
                        XY            XZ            YZ
 --------------------------------------------------------
     1   Atom       -0.000010     -0.056303     -0.000145
     2   Atom        0.000046     -0.004818      0.000031
     3   Atom       -0.010439      0.003270     -0.001356
     4   Atom       -0.062608      0.001672     -0.007181
     5   Atom        0.000164     -0.010100     -0.000174
     6   Atom        0.010362      0.003501      0.001507
     7   Atom        0.062704      0.001690      0.007186
 --------------------------------------------------------


 ---------------------------------------------------------------------------------
              Anisotropic Spin Dipole Couplings in Principal Axis System
 ---------------------------------------------------------------------------------

       Atom             a.u.   MegaHertz   Gauss  10(-4) cm-1        Axes

              Baa    -0.5330   -71.524   -25.521   -23.858  0.9994  0.0042  0.0353
     1 C(13)  Bbb    -0.5295   -71.053   -25.353   -23.701 -0.0042  1.0000 -0.0001
              Bcc     1.0625   142.577    50.875    47.558 -0.0353 -0.0001  0.9994
 
              Baa    -0.0202    -2.705    -0.965    -0.902 -0.0016  1.0000 -0.0014
     2 C(13)  Bbb     0.0044     0.594     0.212     0.198  0.4884  0.0020  0.8726
              Bcc     0.0157     2.111     0.753     0.704  0.8726  0.0007 -0.4884
 
              Baa    -0.0092    -4.898    -1.748    -1.634  0.4428  0.7596 -0.4763
     3 H(1)   Bbb    -0.0087    -4.621    -1.649    -1.541  0.1055  0.4834  0.8690
              Bcc     0.0178     9.518     3.396     3.175  0.8904 -0.4350  0.1339
 
              Baa    -0.0701   -37.394   -13.343   -12.473  0.8610  0.5075  0.0330
     4 H(1)   Bbb    -0.0039    -2.092    -0.747    -0.698 -0.0744  0.0614  0.9953
              Bcc     0.0740    39.486    14.090    13.171 -0.5031  0.8595 -0.0907
 
              Baa    -0.0113    -6.032    -2.152    -2.012  0.0002  0.9999  0.0167
     5 H(1)   Bbb    -0.0063    -3.358    -1.198    -1.120  0.4827 -0.0147  0.8757
              Bcc     0.0176     9.391     3.351     3.132  0.8758  0.0079 -0.4826
 
              Baa    -0.0091    -4.875    -1.740    -1.626 -0.4352  0.7174  0.5440
     6 H(1)   Bbb    -0.0088    -4.676    -1.668    -1.560  0.1316 -0.5470  0.8267
              Bcc     0.0179     9.551     3.408     3.186  0.8906  0.4314  0.1437
 
              Baa    -0.0701   -37.411   -13.349   -12.479  0.8604 -0.5085  0.0329
     7 H(1)   Bbb    -0.0039    -2.078    -0.742    -0.693 -0.0745 -0.0615  0.9953
              Bcc     0.0740    39.489    14.091    13.172  0.5041  0.8589  0.0908
 

 ---------------------------------------------------------------------------------

 No NMR shielding tensors so no spin-rotation constants.
 Leave Link  601 at Wed Oct  7 16:08:08 2020, MaxMem=  2684354560 cpu:               4.9 elap:               0.8
 (Enter /udrive/faculty/rpeverati/g16/g16/l701.exe)
 ... and contract with generalized density number  0.
 Compute integral first derivatives.
 Leave Link  701 at Wed Oct  7 16:08:08 2020, MaxMem=  2684354560 cpu:               3.2 elap:               0.5
 (Enter /udrive/faculty/rpeverati/g16/g16/l702.exe)
 L702 exits ... SP integral derivatives will be done elsewhere.
 Leave Link  702 at Wed Oct  7 16:08:09 2020, MaxMem=  2684354560 cpu:               1.4 elap:               0.4
 (Enter /udrive/faculty/rpeverati/g16/g16/l703.exe)
 Integral derivatives from FoFJK, PRISM(SPDF).
 Compute integral first derivatives, UseDBF=F ICtDFT=           0.
 Calling FoFJK, ICntrl=      2527 FMM=F ISym2X=0 I1Cent= 0 IOpClX= 0 NMat=1 NMatS=1 NMatT=0.
 FoFJK:  IHMeth= 1 ICntrl=    2527 DoSepK=F KAlg= 0 I1Cent=           0 FoldK=F
 IRaf=         0 NMat=       1 IRICut=       1 DoRegI=T DoRafI=F ISym2E= 0 IDoP0=0 IntGTp=1.
 FoFCou: FMM=F IPFlag=           0 FMFlag=      100000 FMFlg1=         800
         NFxFlg=           0 DoJE=F BraDBF=F KetDBF=F FulRan=T
         wScrn=  0.000000 ICntrl=      2527 IOpCl=  0 I1Cent=           0 NGrid=           0
         NMat0=    1 NMatS0=      1 NMatT0=    0 NMatD0=    1 NMtDS0=    0 NMtDT0=    0
 Symmetry not used in FoFCou.
 Leave Link  703 at Wed Oct  7 16:08:10 2020, MaxMem=  2684354560 cpu:               8.3 elap:               1.1
 (Enter /udrive/faculty/rpeverati/g16/g16/l716.exe)
 Dipole        =-1.01159852D-01-2.90124711D-04 5.50646311D-02
 ***** Axes restored to original set *****
 -------------------------------------------------------------------
 Center     Atomic                   Forces (Hartrees/Bohr)
 Number     Number              X              Y              Z
 -------------------------------------------------------------------
      1        6          -0.008699446    0.000006662   -0.001187149
      2        6           0.011213771    0.000045430   -0.001274640
      3        1          -0.004068683    0.007587485   -0.003681583
      4        1           0.005044503   -0.008013741    0.000550327
      5        1          -0.004460164   -0.000122255    0.008889727
      6        1          -0.004083876   -0.007512552   -0.003863992
      7        1           0.005053895    0.008008972    0.000567311
 -------------------------------------------------------------------
 Cartesian Forces:  Max     0.011213771 RMS     0.005602307
 Leave Link  716 at Wed Oct  7 16:08:11 2020, MaxMem=  2684354560 cpu:               1.4 elap:               0.4
 (Enter /udrive/faculty/rpeverati/g16/g16/l103.exe)

 GradGradGradGradGradGradGradGradGradGradGradGradGradGradGradGradGradGrad
 Berny optimization.
 Optmz: redundant internal coordinate code flag= 1
 FormGI is forming the generalized inverse of G from B-inverse, IUseBI=4.
 Internal  Forces:  Max     0.009896009 RMS     0.004672051
 Search for a local minimum.
 Step number   1 out of a maximum of  100
 All quantities printed in internal units (Hartrees-Bohrs-Radians)
 RMS Force = .46721D-02 SwitMx=.10000D-02 MixMth= 1
 Mixed Optimization -- RFO/linear search
 Second derivative matrix not updated -- first step.
 The second derivative matrix:
                          R1        R2        R3        R4        R5
           R1           0.33434
           R2           0.00000   0.36035
           R3           0.00000   0.00000   0.36041
           R4           0.00000   0.00000   0.00000   0.34790
           R5           0.00000   0.00000   0.00000   0.00000   0.34004
           R6           0.00000   0.00000   0.00000   0.00000   0.00000
           A1           0.00000   0.00000   0.00000   0.00000   0.00000
           A2           0.00000   0.00000   0.00000   0.00000   0.00000
           A3           0.00000   0.00000   0.00000   0.00000   0.00000
           A4           0.00000   0.00000   0.00000   0.00000   0.00000
           A5           0.00000   0.00000   0.00000   0.00000   0.00000
           A6           0.00000   0.00000   0.00000   0.00000   0.00000
           A7           0.00000   0.00000   0.00000   0.00000   0.00000
           A8           0.00000   0.00000   0.00000   0.00000   0.00000
           A9           0.00000   0.00000   0.00000   0.00000   0.00000
           D1           0.00000   0.00000   0.00000   0.00000   0.00000
           D2           0.00000   0.00000   0.00000   0.00000   0.00000
           D3           0.00000   0.00000   0.00000   0.00000   0.00000
           D4           0.00000   0.00000   0.00000   0.00000   0.00000
           D5           0.00000   0.00000   0.00000   0.00000   0.00000
           D6           0.00000   0.00000   0.00000   0.00000   0.00000
                          R6        A1        A2        A3        A4
           R6           0.34771
           A1           0.00000   0.16000
           A2           0.00000   0.00000   0.16000
           A3           0.00000   0.00000   0.00000   0.16000
           A4           0.00000   0.00000   0.00000   0.00000   0.16000
           A5           0.00000   0.00000   0.00000   0.00000   0.00000
           A6           0.00000   0.00000   0.00000   0.00000   0.00000
           A7           0.00000   0.00000   0.00000   0.00000   0.00000
           A8           0.00000   0.00000   0.00000   0.00000   0.00000
           A9           0.00000   0.00000   0.00000   0.00000   0.00000
           D1           0.00000   0.00000   0.00000   0.00000   0.00000
           D2           0.00000   0.00000   0.00000   0.00000   0.00000
           D3           0.00000   0.00000   0.00000   0.00000   0.00000
           D4           0.00000   0.00000   0.00000   0.00000   0.00000
           D5           0.00000   0.00000   0.00000   0.00000   0.00000
           D6           0.00000   0.00000   0.00000   0.00000   0.00000
                          A5        A6        A7        A8        A9
           A5           0.16000
           A6           0.00000   0.16000
           A7           0.00000   0.00000   0.16000
           A8           0.00000   0.00000   0.00000   0.16000
           A9           0.00000   0.00000   0.00000   0.00000   0.16000
           D1           0.00000   0.00000   0.00000   0.00000   0.00000
           D2           0.00000   0.00000   0.00000   0.00000   0.00000
           D3           0.00000   0.00000   0.00000   0.00000   0.00000
           D4           0.00000   0.00000   0.00000   0.00000   0.00000
           D5           0.00000   0.00000   0.00000   0.00000   0.00000
           D6           0.00000   0.00000   0.00000   0.00000   0.00000
                          D1        D2        D3        D4        D5
           D1           0.00896
           D2           0.00000   0.00896
           D3           0.00000   0.00000   0.00896
           D4           0.00000   0.00000   0.00000   0.00896
           D5           0.00000   0.00000   0.00000   0.00000   0.00896
           D6           0.00000   0.00000   0.00000   0.00000   0.00000
                          D6
           D6           0.00896
 ITU=  0
 Eigenvectors of the second derivative matrix:
                           1         2         3         4         5
     Eigenvalues --     0.00896   0.00965   0.07156   0.07224   0.16000
   1         R1        -0.00000  -0.00000   0.00000  -0.00000   0.00000
   2         R2         0.00000   0.00000   0.00000  -0.00000   0.00000
   3         R3         0.00000   0.00000   0.00000   0.00000   0.00000
   4         R4        -0.00000   0.00000   0.00000   0.00000  -0.00000
   5         R5        -0.00000  -0.00000   0.00000  -0.00000  -0.00000
   6         R6        -0.00000   0.00000  -0.00000  -0.00000  -0.00000
   7         A1        -0.00000  -0.03861  -0.00000  -0.00000   0.18703
   8         A2         0.00000  -0.03861  -0.00000  -0.00000   0.38680
   9         A3         0.00000  -0.03915   0.00000   0.00000  -0.56598
  10         A4         0.00000  -0.00000   0.12005  -0.21872  -0.25061
  11         A5         0.00000   0.00000  -0.24994   0.00611   0.54992
  12         A6         0.00000  -0.00000   0.13077   0.21253  -0.10215
  13         A7         0.00000  -0.00000  -0.24426  -0.39756  -0.15940
  14         A8        -0.00000  -0.00000   0.45872  -0.01129   0.19275
  15         A9        -0.00000   0.00000  -0.22451   0.40950  -0.23847
  16         D1        -0.40825  -0.40733  -0.38794  -0.21058  -0.00000
  17         D2        -0.40825  -0.40733   0.01091   0.43997   0.00000
  18         D3        -0.40825  -0.40733   0.37703  -0.22940  -0.00000
  19         D4        -0.40825   0.40733  -0.38794  -0.21058  -0.00000
  20         D5        -0.40825   0.40733   0.01091   0.43997   0.00000
  21         D6        -0.40825   0.40733   0.37703  -0.22940  -0.00000
                           6         7         8         9        10
     Eigenvalues --     0.16000   0.16000   0.16000   0.16000   0.33434
   1         R1         0.00000  -0.00000  -0.00000  -0.00000  -1.00000
   2         R2         0.00000  -0.00000   0.00000  -0.00000  -0.00000
   3         R3         0.00000  -0.00000   0.00000  -0.00000   0.00000
   4         R4         0.00000  -0.00000   0.00000   0.00000   0.00000
   5         R5        -0.00000   0.00000  -0.00000   0.00000  -0.00000
   6         R6         0.00000  -0.00000  -0.00000   0.00000  -0.00000
   7         A1        -0.42123  -0.57138   0.03284  -0.36023   0.00000
   8         A2         0.44537   0.06524   0.23017   0.51433  -0.00000
   9         A3        -0.02381   0.49923  -0.25941  -0.15199  -0.00000
  10         A4         0.48189  -0.46534  -0.39784   0.00824   0.00000
  11         A5        -0.02197   0.30669  -0.47929  -0.21895   0.00000
  12         A6        -0.50203  -0.05626  -0.19414   0.60556  -0.00000
  13         A7        -0.24591   0.08517   0.46840   0.11240  -0.00000
  14         A8         0.01105   0.28500   0.32346  -0.33542  -0.00000
  15         A9         0.27983  -0.13337   0.35908  -0.20674  -0.00000
  16         D1         0.00000   0.00000  -0.00000   0.00000   0.00000
  17         D2        -0.00000   0.00000  -0.00000   0.00000  -0.00000
  18         D3         0.00000   0.00000  -0.00000  -0.00000   0.00000
  19         D4         0.00000  -0.00000   0.00000   0.00000  -0.00000
  20         D5        -0.00000  -0.00000   0.00000   0.00000  -0.00000
  21         D6         0.00000  -0.00000   0.00000   0.00000   0.00000
                          11        12        13        14        15
     Eigenvalues --     0.34004   0.34771   0.34790   0.36035   0.36041
   1         R1         0.00000  -0.00000  -0.00000   0.00000   0.00000
   2         R2        -0.00000   0.00000   0.00000  -1.00000   0.00000
   3         R3        -0.00000   0.00000  -0.00000   0.00000   1.00000
   4         R4         0.00000  -0.00000  -1.00000  -0.00000  -0.00000
   5         R5        -1.00000   0.00000  -0.00000   0.00000  -0.00000
   6         R6         0.00000   1.00000  -0.00000   0.00000  -0.00000
   7         A1        -0.00000  -0.00000  -0.00000   0.00000  -0.00000
   8         A2        -0.00000  -0.00000  -0.00000   0.00000   0.00000
   9         A3         0.00000  -0.00000   0.00000  -0.00000   0.00000
  10         A4        -0.00000  -0.00000   0.00000  -0.00000   0.00000
  11         A5         0.00000   0.00000  -0.00000  -0.00000   0.00000
  12         A6         0.00000  -0.00000   0.00000  -0.00000   0.00000
  13         A7         0.00000   0.00000   0.00000   0.00000  -0.00000
  14         A8         0.00000   0.00000  -0.00000   0.00000  -0.00000
  15         A9        -0.00000   0.00000   0.00000  -0.00000  -0.00000
  16         D1         0.00000  -0.00000   0.00000   0.00000   0.00000
  17         D2         0.00000   0.00000   0.00000  -0.00000   0.00000
  18         D3         0.00000   0.00000   0.00000   0.00000   0.00000
  19         D4         0.00000  -0.00000   0.00000   0.00000  -0.00000
  20         D5         0.00000   0.00000   0.00000  -0.00000  -0.00000
  21         D6         0.00000  -0.00000   0.00000   0.00000  -0.00000
 Iter=   1 RLamda= 0.00000000D+00 Sum=-1.32198157D-03.
 Iter=   2 RLamda=-1.32198157D-03 Sum=-1.31674251D-03.
 Iter=   3 RLamda=-1.31674251D-03 Sum=-1.31676312D-03.
 Iter=   4 RLamda=-1.31676312D-03 Sum=-1.31676304D-03.
 RFO step:  Lambda=-1.31676312D-03 EMin= 8.96386027D-03
 Linear search not attempted -- first point.
 Iteration  1 RMS(Cart)=  0.01431971 RMS(Int)=  0.00004193
 Iteration  2 RMS(Cart)=  0.00004672 RMS(Int)=  0.00000634
 Iteration  3 RMS(Cart)=  0.00000000 RMS(Int)=  0.00000634
 ITry= 1 IFail=0 DXMaxC= 2.21D-02 DCOld= 1.00D+10 DXMaxT= 3.00D-01 DXLimC= 3.00D+00 Rises=F
 Variable       Old X    -DE/DX   Delta X   Delta X   Delta X     New X
                                 (Linear)    (Quad)   (Total)
    R1        2.81596   0.00140   0.00000   0.00417   0.00417   2.82013
    R2        2.04027   0.00948   0.00000   0.02622   0.02622   2.06649
    R3        2.04017   0.00948   0.00000   0.02622   0.02622   2.06640
    R4        2.06018   0.00934   0.00000   0.02673   0.02673   2.08691
    R5        2.07323   0.00990   0.00000   0.02899   0.02899   2.10223
    R6        2.06049   0.00935   0.00000   0.02680   0.02680   2.08729
    A1        2.10839   0.00015   0.00000   0.00129   0.00128   2.10967
    A2        2.10918   0.00015   0.00000   0.00129   0.00128   2.11046
    A3        2.05345  -0.00028   0.00000  -0.00140  -0.00141   2.05204
    A4        1.94747   0.00056   0.00000   0.00378   0.00377   1.95124
    A5        1.94960   0.00105   0.00000   0.00586   0.00586   1.95545
    A6        1.94731   0.00056   0.00000   0.00379   0.00378   1.95109
    A7        1.86363  -0.00096   0.00000  -0.00651  -0.00651   1.85711
    A8        1.88862  -0.00040   0.00000  -0.00131  -0.00132   1.88730
    A9        1.86278  -0.00097   0.00000  -0.00665  -0.00665   1.85612
    D1       -2.72632  -0.00008   0.00000   0.00268   0.00268  -2.72364
    D2        1.47219   0.00004   0.00000   0.00441   0.00441   1.47660
    D3       -0.61129   0.00018   0.00000   0.00631   0.00632  -0.60497
    D4        0.58613  -0.00017   0.00000  -0.00538  -0.00538   0.58075
    D5       -1.49854  -0.00004   0.00000  -0.00365  -0.00365  -1.50220
    D6        2.70116   0.00009   0.00000  -0.00175  -0.00174   2.69942
         Item               Value     Threshold  Converged?
 Maximum Force            0.009896     0.000450     NO 
 RMS     Force            0.004672     0.000300     NO 
 Maximum Displacement     0.022090     0.001800     NO 
 RMS     Displacement     0.014324     0.001200     NO 
 Predicted change in Energy=-6.609759D-04
 Lowest energy point so far.  Saving SCF results.
 Largest change from initial coordinates is atom    4       0.016 Angstoms.
 GradGradGradGradGradGradGradGradGradGradGradGradGradGradGradGradGradGrad

 Leave Link  103 at Wed Oct  7 16:08:12 2020, MaxMem=  2684354560 cpu:               3.5 elap:               0.7
 (Enter /udrive/faculty/rpeverati/g16/g16/l202.exe)
                          Input orientation:                          
 ---------------------------------------------------------------------
 Center     Atomic      Atomic             Coordinates (Angstroms)
 Number     Number       Type             X           Y           Z
 ---------------------------------------------------------------------
      1          6           0        0.797809    0.000033   -0.021224
      2          6           0       -0.694398    0.000204   -0.000863
      3          1           0       -1.111033    0.900623   -0.485881
      4          1           0        1.359856   -0.935523    0.047061
      5          1           0       -1.097730   -0.013348    1.035806
      6          1           0       -1.111463   -0.887787   -0.508361
      7          1           0        1.360793    0.934919    0.047741
 ---------------------------------------------------------------------
                    Distance matrix (angstroms):
                    1          2          3          4          5
     1  C    0.000000
     2  C    1.492346   0.000000
     3  H    2.161168   1.104347   0.000000
     4  H    1.093538   2.257840   3.124220   0.000000
     5  H    2.170383   1.112450   1.775121   2.804952   0.000000
     6  H    2.161214   1.104548   1.788552   2.533415   1.774623
     7  H    1.093489   2.258288   2.529003   1.870442   2.814218
                    6          7
     6  H    0.000000
     7  H    3.121467   0.000000
 Stoichiometry    C2H5(2)
 Framework group  C1[X(C2H5)]
 Deg. of freedom    15
 Full point group                 C1      NOp   1
 RotChk:  IX=0 Diff= 4.19D-04
 Largest Abelian subgroup         C1      NOp   1
 Largest concise Abelian subgroup C1      NOp   1
                         Standard orientation:                         
 ---------------------------------------------------------------------
 Center     Atomic      Atomic             Coordinates (Angstroms)
 Number     Number       Type             X           Y           Z
 ---------------------------------------------------------------------
      1          6           0        0.796582   -0.000001   -0.021372
      2          6           0       -0.695627    0.000195   -0.001157
      3          1           0       -1.112203    0.900483   -0.486468
      4          1           0        1.358611   -0.935545    0.047229
      5          1           0       -1.099060   -0.013063    1.035477
      6          1           0       -1.112653   -0.887933   -0.508448
      7          1           0        1.359572    0.934897    0.047386
 ---------------------------------------------------------------------
 Rotational constants (GHZ):         101.8185408          22.5285834          20.8669093
 Leave Link  202 at Wed Oct  7 16:08:13 2020, MaxMem=  2684354560 cpu:               1.1 elap:               0.4
 (Enter /udrive/faculty/rpeverati/g16/g16/l301.exe)
 Standard basis: 6-31G(d) (5D, 7F)
 Ernie: Thresh=  0.10000D-02 Tol=  0.10000D-05 Strict=F.
 There are    40 symmetry adapted cartesian basis functions of A   symmetry.
 There are    38 symmetry adapted basis functions of A   symmetry.
    38 basis functions,    76 primitive gaussians,    40 cartesian basis functions
     9 alpha electrons        8 beta electrons
       nuclear repulsion energy        36.6983565886 Hartrees.
 IExCor= 1009 DFT=T Ex=PBE Corr=PBE ExCW=0 ScaHFX=  0.000000
 ScaDFX=  1.000000  1.000000  1.000000  1.000000 ScalE2=  1.000000  1.000000
 IRadAn=      5 IRanWt=     -1 IRanGd=            0 ICorTp=0 IEmpDi=  4
 NAtoms=    7 NActive=    7 NUniq=    7 SFac= 1.00D+00 NAtFMM=   60 NAOKFM=F Big=F
 Integral buffers will be    131072 words long.
 Raffenetti 2 integral format.
 Two-electron integral symmetry is turned on.
 Leave Link  301 at Wed Oct  7 16:08:13 2020, MaxMem=  2684354560 cpu:               2.5 elap:               0.5
 (Enter /udrive/faculty/rpeverati/g16/g16/l302.exe)
 NPDir=0 NMtPBC=     1 NCelOv=     1 NCel=       1 NClECP=     1 NCelD=      1
         NCelK=      1 NCelE2=     1 NClLst=     1 CellRange=     0.0.
 One-electron integrals computed using PRISM.
 One-electron integral symmetry used in STVInt
 NBasis=    38 RedAO= T EigKep=  1.08D-02  NBF=    38
 NBsUse=    38 1.00D-06 EigRej= -1.00D+00 NBFU=    38
 Precomputing XC quadrature grid using
 IXCGrd= 4 IRadAn=           5 IRanWt=          -1 IRanGd=           0 AccXCQ= 0.00D+00.
 Generated NRdTot=       0 NPtTot=           0 NUsed=           0 NTot=          32
 NSgBfM=    40    40    40    40    40 MxSgAt=     7 MxSgA2=     7.
 Leave Link  302 at Wed Oct  7 16:08:14 2020, MaxMem=  2684354560 cpu:               4.1 elap:               0.6
 (Enter /udrive/faculty/rpeverati/g16/g16/l303.exe)
 DipDrv:  MaxL=1.
 Leave Link  303 at Wed Oct  7 16:08:16 2020, MaxMem=  2684354560 cpu:               2.2 elap:               0.8
 (Enter /udrive/faculty/rpeverati/g16/g16/l401.exe)
 Initial guess from the checkpoint file:  "MN_14_C2H5_upper_BH76_PBE_631Gs.chk"
 SCF N**3 symmetry information disabled.
 B after Tr=     0.000000   -0.000000    0.000000
         Rot=    1.000000    0.000139    0.000255    0.000007 Ang=   0.03 deg.
 Guess basis will be translated and rotated to current coordinates.
 JPrj=2 DoOrth=T DoCkMO=T.
 Initial guess <Sx>= 0.0000 <Sy>= 0.0000 <Sz>= 0.5000 <S**2>= 0.7536 S= 0.5018
 Generating alternative initial guess.
 ExpMin= 1.61D-01 ExpMax= 3.05D+03 ExpMxC= 4.57D+02 IAcc=2 IRadAn=         4 AccDes= 0.00D+00
 Harris functional with IExCor= 1009 and IRadAn=       4 diagonalized for initial guess.
 HarFok:  IExCor= 1009 AccDes= 0.00D+00 IRadAn=         4 IDoV= 1 UseB2=F ITyADJ=14
 ICtDFT=  3500011 ScaDFX=  1.000000  1.000000  1.000000  1.000000
 FoFCou: FMM=F IPFlag=           0 FMFlag=      100000 FMFlg1=           0
         NFxFlg=           0 DoJE=T BraDBF=F KetDBF=T FulRan=T
         wScrn=  0.000000 ICntrl=       500 IOpCl=  0 I1Cent=   200000004 NGrid=           0
         NMat0=    1 NMatS0=      1 NMatT0=    0 NMatD0=    1 NMtDS0=    0 NMtDT0=    0
 Petite list used in FoFCou.
 Harris En= -79.0805078608661    
 Leave Link  401 at Wed Oct  7 16:08:17 2020, MaxMem=  2684354560 cpu:               8.7 elap:               1.4
 (Enter /udrive/faculty/rpeverati/g16/g16/l502.exe)
 Keep J ints in memory in canonical form, NReq=10631630.
 FoFCou: FMM=F IPFlag=           0 FMFlag=           0 FMFlg1=           0
         NFxFlg=           0 DoJE=F BraDBF=F KetDBF=F FulRan=T
         wScrn=  0.000000 ICntrl=       600 IOpCl=  0 I1Cent=           0 NGrid=           0
         NMat0=    1 NMatS0=    741 NMatT0=    0 NMatD0=    1 NMtDS0=    0 NMtDT0=    0
 Symmetry not used in FoFCou.
 Two-electron integral symmetry not used.
 UHF open shell SCF:
 Using DIIS extrapolation, IDIIS=  1040.
 NGot=  2684354560 LenX=  2684075284 LenY=  2684073243
 Requested convergence on RMS density matrix=1.00D-08 within 120 cycles.
 Requested convergence on MAX density matrix=1.00D-06.
 Requested convergence on             energy=1.00D-06.
 No special actions if energy rises.
 Integral accuracy reduced to 1.0D-05 until final iterations.

 Cycle   1  Pass 0  IDiag  1:
 E= -79.0289871355270    
 DIIS: error= 1.88D-03 at cycle   1 NSaved=   1.
 NSaved= 1 IEnMin= 1 EnMin= -79.0289871355270     IErMin= 1 ErrMin= 1.88D-03
 ErrMax= 1.88D-03  0.00D+00 EMaxC= 1.00D-01 BMatC= 4.09D-04 BMatP= 4.09D-04
 IDIUse=3 WtCom= 9.81D-01 WtEn= 1.88D-02
 Coeff-Com:  0.100D+01
 Coeff-En:   0.100D+01
 Coeff:      0.100D+01
 Gap=     0.455 Goal=   None    Shift=    0.000
 Gap=     0.597 Goal=   None    Shift=    0.000
 GapD=    0.455 DampG=2.000 DampE=1.000 DampFc=2.0000 IDamp=-1.
 RMSDP=5.15D-04 MaxDP=5.47D-03              OVMax= 5.92D-03

 Cycle   2  Pass 0  IDiag  1:
 E= -79.0290203504393     Delta-E=       -0.000033214912 Rises=F Damp=F
 DIIS: error= 2.21D-03 at cycle   2 NSaved=   2.
 NSaved= 2 IEnMin= 2 EnMin= -79.0290203504393     IErMin= 1 ErrMin= 1.88D-03
 ErrMax= 2.21D-03  0.00D+00 EMaxC= 1.00D-01 BMatC= 3.97D-04 BMatP= 4.09D-04
 IDIUse=3 WtCom= 9.78D-01 WtEn= 2.21D-02
 Coeff-Com:  0.496D+00 0.504D+00
 Coeff-En:   0.416D+00 0.584D+00
 Coeff:      0.494D+00 0.506D+00
 Gap=     0.246 Goal=   None    Shift=    0.000
 Gap=     0.237 Goal=   None    Shift=    0.000
 RMSDP=3.08D-04 MaxDP=3.06D-03 DE=-3.32D-05 OVMax= 3.77D-03

 Cycle   3  Pass 0  IDiag  1:
 E= -79.0291239408477     Delta-E=       -0.000103590408 Rises=F Damp=F
 DIIS: error= 4.78D-04 at cycle   3 NSaved=   3.
 NSaved= 3 IEnMin= 3 EnMin= -79.0291239408477     IErMin= 3 ErrMin= 4.78D-04
 ErrMax= 4.78D-04  0.00D+00 EMaxC= 1.00D-01 BMatC= 2.69D-05 BMatP= 3.97D-04
 IDIUse=3 WtCom= 9.95D-01 WtEn= 4.78D-03
 Coeff-Com:  0.769D-01 0.221D+00 0.702D+00
 Coeff-En:   0.000D+00 0.000D+00 0.100D+01
 Coeff:      0.765D-01 0.220D+00 0.703D+00
 Gap=     0.246 Goal=   None    Shift=    0.000
 Gap=     0.237 Goal=   None    Shift=    0.000
 RMSDP=5.90D-05 MaxDP=6.78D-04 DE=-1.04D-04 OVMax= 8.55D-04

 Cycle   4  Pass 0  IDiag  1:
 E= -79.0291307408356     Delta-E=       -0.000006799988 Rises=F Damp=F
 DIIS: error= 5.89D-05 at cycle   4 NSaved=   4.
 NSaved= 4 IEnMin= 4 EnMin= -79.0291307408356     IErMin= 4 ErrMin= 5.89D-05
 ErrMax= 5.89D-05  0.00D+00 EMaxC= 1.00D-01 BMatC= 5.21D-07 BMatP= 2.69D-05
 IDIUse=1 WtCom= 1.00D+00 WtEn= 0.00D+00
 Coeff-Com:  0.928D-02 0.531D-01 0.218D+00 0.720D+00
 Coeff:      0.928D-02 0.531D-01 0.218D+00 0.720D+00
 Gap=     0.246 Goal=   None    Shift=    0.000
 Gap=     0.237 Goal=   None    Shift=    0.000
 RMSDP=1.22D-05 MaxDP=1.17D-04 DE=-6.80D-06 OVMax= 1.54D-04

 Cycle   5  Pass 0  IDiag  1:
 E= -79.0291308500989     Delta-E=       -0.000000109263 Rises=F Damp=F
 DIIS: error= 2.48D-05 at cycle   5 NSaved=   5.
 NSaved= 5 IEnMin= 5 EnMin= -79.0291308500989     IErMin= 5 ErrMin= 2.48D-05
 ErrMax= 2.48D-05  0.00D+00 EMaxC= 1.00D-01 BMatC= 1.01D-07 BMatP= 5.21D-07
 IDIUse=1 WtCom= 1.00D+00 WtEn= 0.00D+00
 Coeff-Com:  0.171D-02 0.186D-01 0.830D-01 0.375D+00 0.522D+00
 Coeff:      0.171D-02 0.186D-01 0.830D-01 0.375D+00 0.522D+00
 Gap=     0.246 Goal=   None    Shift=    0.000
 Gap=     0.237 Goal=   None    Shift=    0.000
 RMSDP=4.18D-06 MaxDP=6.43D-05 DE=-1.09D-07 OVMax= 6.45D-05

 Initial convergence to 1.0D-05 achieved.  Increase integral accuracy.
 Cycle   6  Pass 1  IDiag  1:
 E= -79.0291308120460     Delta-E=        0.000000038053 Rises=F Damp=F
 DIIS: error= 4.74D-06 at cycle   1 NSaved=   1.
 NSaved= 1 IEnMin= 1 EnMin= -79.0291308120460     IErMin= 1 ErrMin= 4.74D-06
 ErrMax= 4.74D-06  0.00D+00 EMaxC= 1.00D-01 BMatC= 3.84D-09 BMatP= 3.84D-09
 IDIUse=1 WtCom= 1.00D+00 WtEn= 0.00D+00
 Coeff-Com:  0.100D+01
 Coeff:      0.100D+01
 Gap=     0.246 Goal=   None    Shift=    0.000
 Gap=     0.237 Goal=   None    Shift=    0.000
 RMSDP=4.18D-06 MaxDP=6.43D-05 DE= 3.81D-08 OVMax= 2.58D-05

 Cycle   7  Pass 1  IDiag  1:
 E= -79.0291308119289     Delta-E=        0.000000000117 Rises=F Damp=F
 DIIS: error= 5.45D-06 at cycle   2 NSaved=   2.
 NSaved= 2 IEnMin= 1 EnMin= -79.0291308120460     IErMin= 1 ErrMin= 4.74D-06
 ErrMax= 5.45D-06  0.00D+00 EMaxC= 1.00D-01 BMatC= 5.24D-09 BMatP= 3.84D-09
 IDIUse=1 WtCom= 1.00D+00 WtEn= 0.00D+00
 Coeff-Com:  0.542D+00 0.458D+00
 Coeff:      0.542D+00 0.458D+00
 Gap=     0.246 Goal=   None    Shift=    0.000
 Gap=     0.237 Goal=   None    Shift=    0.000
 RMSDP=9.39D-07 MaxDP=1.41D-05 DE= 1.17D-10 OVMax= 1.50D-05

 Cycle   8  Pass 1  IDiag  1:
 E= -79.0291308133323     Delta-E=       -0.000000001403 Rises=F Damp=F
 DIIS: error= 8.12D-07 at cycle   3 NSaved=   3.
 NSaved= 3 IEnMin= 3 EnMin= -79.0291308133323     IErMin= 3 ErrMin= 8.12D-07
 ErrMax= 8.12D-07  0.00D+00 EMaxC= 1.00D-01 BMatC= 8.83D-11 BMatP= 3.84D-09
 IDIUse=1 WtCom= 1.00D+00 WtEn= 0.00D+00
 Coeff-Com:  0.291D-01 0.104D+00 0.867D+00
 Coeff:      0.291D-01 0.104D+00 0.867D+00
 Gap=     0.246 Goal=   None    Shift=    0.000
 Gap=     0.237 Goal=   None    Shift=    0.000
 RMSDP=1.71D-07 MaxDP=1.74D-06 DE=-1.40D-09 OVMax= 2.65D-06

 Cycle   9  Pass 1  IDiag  1:
 E= -79.0291308133620     Delta-E=       -0.000000000030 Rises=F Damp=F
 DIIS: error= 2.79D-07 at cycle   4 NSaved=   4.
 NSaved= 4 IEnMin= 4 EnMin= -79.0291308133620     IErMin= 4 ErrMin= 2.79D-07
 ErrMax= 2.79D-07  0.00D+00 EMaxC= 1.00D-01 BMatC= 1.00D-11 BMatP= 8.83D-11
 IDIUse=1 WtCom= 1.00D+00 WtEn= 0.00D+00
 Coeff-Com: -0.563D-01-0.260D-01 0.222D+00 0.860D+00
 Coeff:     -0.563D-01-0.260D-01 0.222D+00 0.860D+00
 Gap=     0.246 Goal=   None    Shift=    0.000
 Gap=     0.237 Goal=   None    Shift=    0.000
 RMSDP=7.76D-08 MaxDP=9.72D-07 DE=-2.96D-11 OVMax= 1.39D-06

 Cycle  10  Pass 1  IDiag  1:
 E= -79.0291308133653     Delta-E=       -0.000000000003 Rises=F Damp=F
 DIIS: error= 1.97D-07 at cycle   5 NSaved=   5.
 NSaved= 5 IEnMin= 5 EnMin= -79.0291308133653     IErMin= 5 ErrMin= 1.97D-07
 ErrMax= 1.97D-07  0.00D+00 EMaxC= 1.00D-01 BMatC= 2.47D-12 BMatP= 1.00D-11
 IDIUse=1 WtCom= 1.00D+00 WtEn= 0.00D+00
 Coeff-Com: -0.293D-01-0.202D-01 0.428D-01 0.419D+00 0.588D+00
 Coeff:     -0.293D-01-0.202D-01 0.428D-01 0.419D+00 0.588D+00
 Gap=     0.246 Goal=   None    Shift=    0.000
 Gap=     0.237 Goal=   None    Shift=    0.000
 RMSDP=2.39D-08 MaxDP=3.36D-07 DE=-3.33D-12 OVMax= 4.48D-07

 Cycle  11  Pass 1  IDiag  1:
 E= -79.0291308133662     Delta-E=       -0.000000000001 Rises=F Damp=F
 DIIS: error= 5.87D-08 at cycle   6 NSaved=   6.
 NSaved= 6 IEnMin= 6 EnMin= -79.0291308133662     IErMin= 6 ErrMin= 5.87D-08
 ErrMax= 5.87D-08  0.00D+00 EMaxC= 1.00D-01 BMatC= 2.36D-13 BMatP= 2.47D-12
 IDIUse=1 WtCom= 1.00D+00 WtEn= 0.00D+00
 Coeff-Com: -0.273D-02-0.393D-02-0.197D-01 0.265D-01 0.250D+00 0.750D+00
 Coeff:     -0.273D-02-0.393D-02-0.197D-01 0.265D-01 0.250D+00 0.750D+00
 Gap=     0.246 Goal=   None    Shift=    0.000
 Gap=     0.237 Goal=   None    Shift=    0.000
 RMSDP=8.48D-09 MaxDP=1.05D-07 DE=-8.81D-13 OVMax= 1.13D-07

 SCF Done:  E(UPBE-PBE) =  -79.0291308134     A.U. after   11 cycles
            NFock= 11  Conv=0.85D-08     -V/T= 2.0064
 <Sx>= 0.0000 <Sy>= 0.0000 <Sz>= 0.5000 <S**2>= 0.7536 S= 0.5018
 <L.S>= 0.000000000000E+00
 KE= 7.852699956836D+01 PE=-2.561546840968D+02 EE= 6.190019712646D+01
 Annihilation of the first spin contaminant:
 S**2 before annihilation     0.7536,   after     0.7500
 Leave Link  502 at Wed Oct  7 16:08:20 2020, MaxMem=  2684354560 cpu:              23.7 elap:               2.4
 (Enter /udrive/faculty/rpeverati/g16/g16/l508.exe)
 QCSCF skips out because SCF is already converged.
 Leave Link  508 at Wed Oct  7 16:08:21 2020, MaxMem=  2684354560 cpu:               0.3 elap:               0.5
 (Enter /udrive/faculty/rpeverati/g16/g16/l701.exe)
 ... and contract with generalized density number  0.
 Compute integral first derivatives.
 Leave Link  701 at Wed Oct  7 16:08:22 2020, MaxMem=  2684354560 cpu:               2.9 elap:               0.8
 (Enter /udrive/faculty/rpeverati/g16/g16/l702.exe)
 L702 exits ... SP integral derivatives will be done elsewhere.
 Leave Link  702 at Wed Oct  7 16:08:23 2020, MaxMem=  2684354560 cpu:               1.8 elap:               0.6
 (Enter /udrive/faculty/rpeverati/g16/g16/l703.exe)
 Integral derivatives from FoFJK, PRISM(SPDF).
 Compute integral first derivatives, UseDBF=F ICtDFT=           0.
 Calling FoFJK, ICntrl=      2527 FMM=F ISym2X=0 I1Cent= 0 IOpClX= 0 NMat=1 NMatS=1 NMatT=0.
 FoFJK:  IHMeth= 1 ICntrl=    2527 DoSepK=F KAlg= 0 I1Cent=           0 FoldK=F
 IRaf=         0 NMat=       1 IRICut=       1 DoRegI=T DoRafI=F ISym2E= 0 IDoP0=0 IntGTp=1.
 FoFCou: FMM=F IPFlag=           0 FMFlag=      100000 FMFlg1=         800
         NFxFlg=           0 DoJE=F BraDBF=F KetDBF=F FulRan=T
         wScrn=  0.000000 ICntrl=      2527 IOpCl=  0 I1Cent=           0 NGrid=           0
         NMat0=    1 NMatS0=      1 NMatT0=    0 NMatD0=    1 NMtDS0=    0 NMtDT0=    0
 Symmetry not used in FoFCou.
 Leave Link  703 at Wed Oct  7 16:08:24 2020, MaxMem=  2684354560 cpu:               7.9 elap:               1.0
 (Enter /udrive/faculty/rpeverati/g16/g16/l716.exe)
 Dipole        =-9.84039057D-02-2.54004120D-04 5.22550624D-02
 ***** Axes restored to original set *****
 -------------------------------------------------------------------
 Center     Atomic                   Forces (Hartrees/Bohr)
 Number     Number              X              Y              Z
 -------------------------------------------------------------------
      1        6          -0.001679448    0.000001620   -0.000150899
      2        6           0.002907007    0.000013051   -0.000488179
      3        1          -0.000353985    0.000136946    0.000064650
      4        1           0.000075920    0.000246575    0.000031306
      5        1          -0.000666494   -0.000002673    0.000430827
      6        1          -0.000357112   -0.000147992    0.000066886
      7        1           0.000074111   -0.000247528    0.000045410
 -------------------------------------------------------------------
 Cartesian Forces:  Max     0.002907007 RMS     0.000774622
 Leave Link  716 at Wed Oct  7 16:08:25 2020, MaxMem=  2684354560 cpu:               1.7 elap:               0.5
 (Enter /udrive/faculty/rpeverati/g16/g16/l103.exe)

 GradGradGradGradGradGradGradGradGradGradGradGradGradGradGradGradGradGrad
 Berny optimization.
 Optmz: redundant internal coordinate code flag= 1
 Using GEDIIS/GDIIS optimizer.
 Red2BG:  D1=  2.79D-01 OD1=  3.05D-02 B2RMS=  0.00D+00 IAprox=0
 FormGI is forming the generalized inverse of G from B-inverse, IUseBI=4.
 Internal  Forces:  Max     0.001528258 RMS     0.000427604
 Search for a local minimum.
 Step number   2 out of a maximum of  100
 All quantities printed in internal units (Hartrees-Bohrs-Radians)
 RMS Force = .42760D-03 SwitMx=.10000D-02 MixMth= 2
 Mixed Optimization -- En-DIIS/RFO-DIIS
 Update second derivatives using D2CorX and points    1    2
 DE= -6.63D-04 DEPred=-6.61D-04 R= 1.00D+00
 TightC=F SS=  1.41D+00  RLast= 6.27D-02 DXNew= 5.0454D-01 1.8817D-01
 Trust test= 1.00D+00 RLast= 6.27D-02 DXMaxT set to 3.00D-01
 The second derivative matrix:
                          R1        R2        R3        R4        R5
           R1           0.33951
           R2           0.01186   0.36450
           R3           0.01187   0.00416   0.36457
           R4           0.01081   0.00122   0.00123   0.34639
           R5           0.01052  -0.00179  -0.00179  -0.00451   0.33230
           R6           0.01082   0.00118   0.00119  -0.00155  -0.00456
           A1          -0.00018  -0.00133  -0.00133  -0.00132  -0.00140
           A2          -0.00017  -0.00131  -0.00131  -0.00129  -0.00138
           A3           0.00019   0.00147   0.00147   0.00145   0.00155
           A4           0.00004  -0.00211  -0.00211  -0.00216  -0.00239
           A5           0.00024  -0.00268  -0.00268  -0.00280  -0.00314
           A6           0.00005  -0.00208  -0.00208  -0.00214  -0.00236
           A7          -0.00007   0.00363   0.00363   0.00372   0.00411
           A8          -0.00018   0.00020   0.00020   0.00025   0.00032
           A9          -0.00007   0.00370   0.00370   0.00380   0.00420
           D1          -0.00009  -0.00037  -0.00037  -0.00036  -0.00037
           D2           0.00010   0.00019   0.00019   0.00017   0.00016
           D3           0.00032   0.00084   0.00084   0.00077   0.00077
           D4          -0.00032  -0.00086  -0.00086  -0.00080  -0.00080
           D5          -0.00013  -0.00030  -0.00030  -0.00027  -0.00026
           D6           0.00009   0.00035   0.00035   0.00033   0.00034
                          R6        A1        A2        A3        A4
           R6           0.34611
           A1          -0.00132   0.15997
           A2          -0.00130  -0.00003   0.15997
           A3           0.00145   0.00003   0.00003   0.15996
           A4          -0.00217  -0.00009  -0.00009   0.00010   0.15979
           A5          -0.00281  -0.00014  -0.00014   0.00015  -0.00031
           A6          -0.00214  -0.00009  -0.00009   0.00010  -0.00021
           A7           0.00373   0.00015   0.00015  -0.00017   0.00036
           A8           0.00025   0.00003   0.00003  -0.00003   0.00006
           A9           0.00381   0.00016   0.00016  -0.00017   0.00037
           D1          -0.00036  -0.00000  -0.00000   0.00000  -0.00002
           D2           0.00017  -0.00001  -0.00001   0.00001  -0.00000
           D3           0.00077  -0.00001  -0.00001   0.00001   0.00001
           D4          -0.00080   0.00001   0.00000  -0.00001  -0.00002
           D5          -0.00027   0.00000   0.00000  -0.00000  -0.00000
           D6           0.00033   0.00000   0.00000  -0.00000   0.00001
                          A5        A6        A7        A8        A9
           A5           0.15956
           A6          -0.00030   0.15979
           A7           0.00053   0.00036   0.15938
           A8           0.00008   0.00006  -0.00010   0.15999
           A9           0.00054   0.00037  -0.00063  -0.00010   0.15935
           D1          -0.00003  -0.00002   0.00003   0.00001   0.00003
           D2          -0.00000  -0.00000   0.00001  -0.00000   0.00001
           D3           0.00003   0.00001  -0.00002  -0.00001  -0.00002
           D4          -0.00003  -0.00002   0.00003   0.00001   0.00003
           D5          -0.00001  -0.00000   0.00000   0.00000   0.00000
           D6           0.00002   0.00001  -0.00003  -0.00001  -0.00003
                          D1        D2        D3        D4        D5
           D1           0.00896
           D2          -0.00000   0.00897
           D3          -0.00000   0.00001   0.00898
           D4           0.00000  -0.00001  -0.00002   0.00898
           D5           0.00000  -0.00000  -0.00001   0.00001   0.00897
           D6          -0.00000   0.00000   0.00000  -0.00000  -0.00000
                          D6
           D6           0.00896
 ITU=  1  0
 Use linear search instead of GDIIS.
 Eigenvectors of the second derivative matrix:
                           1         2         3         4         5
     Eigenvalues --     0.00896   0.00959   0.07100   0.07175   0.15667
   1         R1        -0.00001   0.00058   0.00129  -0.00007  -0.01206
   2         R2         0.00018   0.00153  -0.00197   0.00007   0.03128
   3         R3         0.00018   0.00153  -0.00197   0.00007   0.03127
   4         R4         0.00019   0.00148  -0.00242   0.00009   0.03690
   5         R5         0.00022   0.00151  -0.00307   0.00012   0.04540
   6         R6         0.00019   0.00148  -0.00243   0.00009   0.03707
   7         A1         0.00002  -0.03673  -0.00054   0.00003   0.11281
   8         A2         0.00002  -0.03672  -0.00053   0.00003   0.11070
   9         A3        -0.00002  -0.03716   0.00102  -0.00005  -0.22068
  10         A4         0.00004   0.00010  -0.12163   0.21915   0.25465
  11         A5         0.00007   0.00011   0.24793  -0.00568   0.56520
  12         A6         0.00004   0.00010  -0.13184  -0.21317   0.25803
  13         A7        -0.00007  -0.00017   0.24466   0.39550  -0.43925
  14         A8        -0.00002   0.00001  -0.45433   0.01057  -0.28574
  15         A9        -0.00007  -0.00018   0.22606  -0.40703  -0.44039
  16         D1         0.40830  -0.40742   0.38873   0.21166   0.00199
  17         D2         0.40832  -0.40735  -0.01045  -0.44120   0.00019
  18         D3         0.40833  -0.40727  -0.37849   0.22955  -0.00175
  19         D4         0.40816   0.40740   0.38891   0.21165   0.00156
  20         D5         0.40818   0.40748  -0.01027  -0.44121  -0.00023
  21         D6         0.40820   0.40756  -0.37831   0.22954  -0.00218
                           6         7         8         9        10
     Eigenvalues --     0.16000   0.16000   0.16000   0.16002   0.31529
   1         R1         0.00000  -0.00000   0.00000  -0.00128  -0.66254
   2         R2         0.00000  -0.00000   0.00000  -0.00243   0.14465
   3         R3         0.00000  -0.00000   0.00000  -0.00243   0.14437
   4         R4         0.00000  -0.00000   0.00000  -0.00235   0.30289
   5         R5         0.00000  -0.00000   0.00000  -0.00236   0.57356
   6         R6         0.00000  -0.00000   0.00000  -0.00235   0.30690
   7         A1        -0.01588  -0.50001  -0.49085  -0.40669  -0.00847
   8         A2        -0.02337   0.51303   0.49566  -0.38426  -0.00828
   9         A3         0.03876  -0.01285  -0.00474   0.78116   0.01674
  10         A4         0.55721  -0.37282   0.38670   0.04131  -0.01733
  11         A5        -0.55404  -0.07321   0.06793   0.18734  -0.03569
  12         A6         0.34598   0.48206  -0.49324   0.06146  -0.01747
  13         A7        -0.00295   0.24026  -0.24490  -0.12285   0.02977
  14         A8        -0.49828  -0.06029   0.05881  -0.05664   0.01660
  15         A9         0.11073  -0.22029   0.22914  -0.13354   0.02989
  16         D1         0.00000  -0.00000   0.00000  -0.00000   0.00228
  17         D2        -0.00000  -0.00000  -0.00000   0.00003   0.00065
  18         D3         0.00000  -0.00000  -0.00000   0.00007  -0.00108
  19         D4         0.00000   0.00000   0.00000  -0.00007   0.00081
  20         D5        -0.00000   0.00000  -0.00000  -0.00004  -0.00082
  21         D6         0.00000   0.00000  -0.00000   0.00000  -0.00255
                          11        12        13        14        15
     Eigenvalues --     0.34116   0.34780   0.35077   0.36038   0.37925
   1         R1         0.44126  -0.01623   0.38457   0.00150   0.46692
   2         R2        -0.11843   0.00962  -0.33533   0.70765   0.59224
   3         R3        -0.11815   0.00958  -0.33357  -0.70656   0.59466
   4         R4        -0.23109   0.69134   0.58111   0.00093   0.19453
   5         R5         0.81720  -0.00216   0.01574   0.00012   0.02971
   6         R6        -0.23672  -0.72222   0.53867   0.00091   0.19137
   7         A1        -0.00112   0.00009  -0.00248  -0.00001  -0.00708
   8         A2        -0.00109   0.00008  -0.00241  -0.00001  -0.00688
   9         A3         0.00224  -0.00017   0.00492   0.00003   0.01407
  10         A4        -0.00182   0.00015  -0.00431  -0.00002  -0.01225
  11         A5        -0.00379   0.00030  -0.00891  -0.00005  -0.02528
  12         A6        -0.00183   0.00015  -0.00433  -0.00002  -0.01232
  13         A7         0.00311  -0.00025   0.00736   0.00004   0.02094
  14         A8         0.00183  -0.00015   0.00425   0.00002   0.01203
  15         A9         0.00311  -0.00025   0.00737   0.00004   0.02096
  16         D1         0.00028  -0.00002   0.00065   0.00000   0.00196
  17         D2         0.00016  -0.00001   0.00032   0.00000   0.00099
  18         D3         0.00004   0.00000  -0.00002  -0.00000  -0.00001
  19         D4        -0.00008   0.00000  -0.00006  -0.00000  -0.00023
  20         D5        -0.00019   0.00001  -0.00039  -0.00000  -0.00120
  21         D6        -0.00031   0.00002  -0.00073  -0.00000  -0.00219
 Iter=   1 RLamda= 0.00000000D+00 Sum=-1.49662137D-05.
 Iter=   2 RLamda=-1.49662137D-05 Sum=-1.49647063D-05.
 RFO step:  Lambda=-1.49662137D-05 EMin= 8.96372789D-03
 Quartic linear search produced a step of  0.02141.
 Iteration  1 RMS(Cart)=  0.00126370 RMS(Int)=  0.00000310
 Iteration  2 RMS(Cart)=  0.00000282 RMS(Int)=  0.00000166
 Iteration  3 RMS(Cart)=  0.00000000 RMS(Int)=  0.00000166
 ITry= 1 IFail=0 DXMaxC= 3.71D-03 DCOld= 1.00D+10 DXMaxT= 3.00D-01 DXLimC= 3.00D+00 Rises=F
 Variable       Old X    -DE/DX   Delta X   Delta X   Delta X     New X
                                 (Linear)    (Quad)   (Total)
    R1        2.82013  -0.00153   0.00009  -0.00471  -0.00462   2.81551
    R2        2.06649  -0.00017   0.00056  -0.00073  -0.00016   2.06632
    R3        2.06640  -0.00017   0.00056  -0.00073  -0.00017   2.06623
    R4        2.08691   0.00022   0.00057   0.00039   0.00096   2.08787
    R5        2.10223   0.00064   0.00062   0.00166   0.00228   2.10451
    R6        2.08729   0.00022   0.00057   0.00041   0.00098   2.08827
    A1        2.10967   0.00013   0.00003   0.00063   0.00065   2.11032
    A2        2.11046   0.00013   0.00003   0.00061   0.00063   2.11109
    A3        2.05204  -0.00026  -0.00003  -0.00187  -0.00190   2.05014
    A4        1.95124   0.00026   0.00008   0.00170   0.00177   1.95302
    A5        1.95545   0.00051   0.00013   0.00300   0.00312   1.95858
    A6        1.95109   0.00026   0.00008   0.00170   0.00178   1.95287
    A7        1.85711  -0.00044  -0.00014  -0.00291  -0.00305   1.85406
    A8        1.88730  -0.00023  -0.00003  -0.00110  -0.00113   1.88617
    A9        1.85612  -0.00044  -0.00014  -0.00293  -0.00307   1.85305
    D1       -2.72364  -0.00005   0.00006  -0.00242  -0.00236  -2.72601
    D2        1.47660  -0.00002   0.00009  -0.00193  -0.00184   1.47476
    D3       -0.60497   0.00002   0.00014  -0.00142  -0.00128  -0.60625
    D4        0.58075  -0.00001  -0.00012   0.00239   0.00227   0.58302
    D5       -1.50220   0.00003  -0.00008   0.00288   0.00280  -1.49940
    D6        2.69942   0.00006  -0.00004   0.00339   0.00336   2.70277
         Item               Value     Threshold  Converged?
 Maximum Force            0.001528     0.000450     NO 
 RMS     Force            0.000428     0.000300     NO 
 Maximum Displacement     0.003714     0.001800     NO 
 RMS     Displacement     0.001264     0.001200     NO 
 Predicted change in Energy=-7.745186D-06
 Lowest energy point so far.  Saving SCF results.
[...]
 NNeg= 0 NGDIIS= 2 SimSw=  2.50D-03 Rises=F DC= -1.02D-05 SmlDif=  1.00D-05
 NRisDI= 0 DoIntr=F SqrtH=F CThrHd= 10.0 CDAdj=  3.0
 RMS Error=  0.1163116316D-02 NUsed= 2 OKEnD=T EnDIS=F
 Energy Point     1  -0.7902914102D+02
 Energy Point     2  -0.7902913081D+02
 Total En-DIIS matrix:
                 1             2             3 
      1   0.000000D+00 -0.100000D+01 -0.100000D+01
      2  -0.100000D+01  0.000000D+00  0.106492D-04
      3  -0.100000D+01  0.106492D-04  0.000000D+00
 Total RFO-DIIS matrix:
                 1             2             3 
      1   0.000000D+00 -0.100000D+01 -0.100000D+01
      2  -0.100000D+01  0.284096D-04  0.789893D-04
      3  -0.100000D+01  0.789893D-04  0.233367D-03
 InvSVX:  RCond= 2.59D-05 Info=           0 Equed=N FErr=  2.33D-15 BErr=  5.77D-17
 DidBck=F Rises=F RFO-DIIS coefs:    1.48729   -0.48729
 Iteration  1 RMS(Cart)=  0.00085644 RMS(Int)=  0.00000154
 Iteration  2 RMS(Cart)=  0.00000102 RMS(Int)=  0.00000120
 Iteration  3 RMS(Cart)=  0.00000000 RMS(Int)=  0.00000120
 ITry= 1 IFail=0 DXMaxC= 1.73D-03 DCOld= 1.00D+10 DXMaxT= 3.00D-01 DXLimC= 3.00D+00 Rises=F
 Variable       Old X    -DE/DX   Delta X   Delta X   Delta X     New X
                                 (Linear)    (Quad)   (Total)
    R1        2.81551  -0.00042  -0.00225   0.00029  -0.00196   2.81355
    R2        2.06632  -0.00008  -0.00008  -0.00008  -0.00016   2.06616
    R3        2.06623  -0.00008  -0.00008  -0.00007  -0.00015   2.06607
    R4        2.08787  -0.00003   0.00047  -0.00039   0.00008   2.08795
    R5        2.10451   0.00010   0.00111  -0.00044   0.00067   2.10518
    R6        2.08827  -0.00003   0.00048  -0.00041   0.00007   2.08834
    A1        2.11032   0.00008   0.00032   0.00033   0.00065   2.11097
    A2        2.11109   0.00007   0.00031   0.00029   0.00060   2.11169
    A3        2.05014  -0.00015  -0.00093  -0.00053  -0.00146   2.04868
    A4        1.95302   0.00013   0.00086   0.00045   0.00131   1.95433
    A5        1.95858   0.00017   0.00152   0.00003   0.00155   1.96012
    A6        1.95287   0.00013   0.00087   0.00045   0.00131   1.95418
    A7        1.85406  -0.00018  -0.00149  -0.00041  -0.00189   1.85217
    A8        1.88617  -0.00011  -0.00055  -0.00023  -0.00078   1.88538
    A9        1.85305  -0.00018  -0.00150  -0.00037  -0.00187   1.85118
    D1       -2.72601  -0.00002  -0.00115   0.00059  -0.00057  -2.72657
    D2        1.47476  -0.00000  -0.00090   0.00078  -0.00012   1.47465
    D3       -0.60625   0.00002  -0.00062   0.00093   0.00030  -0.60595
    D4        0.58302  -0.00001   0.00111  -0.00004   0.00107   0.58409
    D5       -1.49940   0.00001   0.00136   0.00016   0.00152  -1.49788
    D6        2.70277   0.00003   0.00164   0.00030   0.00194   2.70471
         Item               Value     Threshold  Converged?
 Maximum Force            0.000425     0.000450     YES
 RMS     Force            0.000134     0.000300     YES
 Maximum Displacement     0.001732     0.001800     YES
 RMS     Displacement     0.000857     0.001200     YES
 Predicted change in Energy=-1.329966D-06
 Optimization completed.
    -- Stationary point found.
                           ----------------------------
                           !   Optimized Parameters   !
                           ! (Angstroms and Degrees)  !
 --------------------------                            --------------------------
 ! Name  Definition              Value          Derivative Info.                !
 --------------------------------------------------------------------------------
 ! R1    R(1,2)                  1.4899         -DE/DX =   -0.0004              !
 ! R2    R(1,4)                  1.0935         -DE/DX =   -0.0001              !
 ! R3    R(1,7)                  1.0934         -DE/DX =   -0.0001              !
 ! R4    R(2,3)                  1.1049         -DE/DX =    0.0                 !
 ! R5    R(2,5)                  1.1137         -DE/DX =    0.0001              !
 ! R6    R(2,6)                  1.1051         -DE/DX =    0.0                 !
 ! A1    A(2,1,4)              120.9127         -DE/DX =    0.0001              !
 ! A2    A(2,1,7)              120.9565         -DE/DX =    0.0001              !
 ! A3    A(4,1,7)              117.4644         -DE/DX =   -0.0001              !
 ! A4    A(1,2,3)              111.8996         -DE/DX =    0.0001              !
 ! A5    A(1,2,5)              112.2181         -DE/DX =    0.0002              !
 ! A6    A(1,2,6)              111.8911         -DE/DX =    0.0001              !
 ! A7    A(3,2,5)              106.2301         -DE/DX =   -0.0002              !
 ! A8    A(3,2,6)              108.0696         -DE/DX =   -0.0001              !
 ! A9    A(5,2,6)              106.172          -DE/DX =   -0.0002              !
 ! D1    D(4,1,2,3)           -156.1886         -DE/DX =    0.0                 !
 ! D2    D(4,1,2,5)             84.4977         -DE/DX =    0.0                 !
 ! D3    D(4,1,2,6)            -34.7356         -DE/DX =    0.0                 !
 ! D4    D(7,1,2,3)             33.4045         -DE/DX =    0.0                 !
 ! D5    D(7,1,2,5)            -85.9092         -DE/DX =    0.0                 !
 ! D6    D(7,1,2,6)            154.8575         -DE/DX =    0.0                 !
 --------------------------------------------------------------------------------
 Lowest energy point so far.  Saving SCF results.
 Largest change from initial coordinates is atom    5       0.015 Angstoms.
 GradGradGradGradGradGradGradGradGradGradGradGradGradGradGradGradGradGrad

 Leave Link  103 at Wed Oct  7 16:08:38 2020, MaxMem=  2684354560 cpu:               2.1 elap:               0.5
 (Enter /udrive/faculty/rpeverati/g16/g16/l202.exe)
                          Input orientation:                          
 ---------------------------------------------------------------------
 Center     Atomic      Atomic             Coordinates (Angstroms)
 Number     Number       Type             X           Y           Z
 ---------------------------------------------------------------------
      1          6           0        0.797317    0.000046   -0.022556
      2          6           0       -0.692433    0.000212   -0.001228
      3          1           0       -1.111399    0.900581   -0.485488
      4          1           0        1.360008   -0.934914    0.047179
      5          1           0       -1.098746   -0.013169    1.035577
      6          1           0       -1.111842   -0.887934   -0.507652
      7          1           0        1.360927    0.934298    0.048449
 ---------------------------------------------------------------------
                    Distance matrix (angstroms):
                    1          2          3          4          5
     1  C    0.000000
     2  C    1.489902   0.000000
     3  H    2.160663   1.104855   0.000000
     4  H    1.093451   2.255952   3.124200   0.000000
     5  H    2.171376   1.113658   1.774468   2.805711   0.000000
     6  H    2.160720   1.105066   1.788652   2.533789   1.773962
     7  H    1.093401   2.256385   2.529549   1.869213   2.814624
                    6          7
     6  H    0.000000
     7  H    3.121596   0.000000
 Stoichiometry    C2H5(2)
 Framework group  C1[X(C2H5)]
 Deg. of freedom    15
 Full point group                 C1      NOp   1
 RotChk:  IX=0 Diff= 2.39D-16
 Largest Abelian subgroup         C1      NOp   1
 Largest concise Abelian subgroup C1      NOp   1
                         Standard orientation:                         
 ---------------------------------------------------------------------
 Center     Atomic      Atomic             Coordinates (Angstroms)
 Number     Number       Type             X           Y           Z
 ---------------------------------------------------------------------
      1          6           0        0.795666   -0.000004   -0.021867
      2          6           0       -0.694094    0.000198   -0.001318
      3          1           0       -1.112793    0.900285   -0.486332
      4          1           0        1.358307   -0.934930    0.048717
      5          1           0       -1.100949   -0.012561    1.035282
      6          1           0       -1.113252   -0.888242   -0.507434
      7          1           0        1.359254    0.934282    0.048877
 ---------------------------------------------------------------------
 Rotational constants (GHZ):         101.8845413          22.5679437          20.9015875
 Leave Link  202 at Wed Oct  7 16:08:39 2020, MaxMem=  2684354560 cpu:               1.1 elap:               0.6
 (Enter /udrive/faculty/rpeverati/g16/g16/l601.exe)
 Copying SCF densities to generalized density rwf, IOpCl= 1 IROHF=0.

 **********************************************************************

            Population analysis using the SCF density.

 **********************************************************************

 Orbital symmetries:
 Alpha Orbitals:
       Occupied  (A) (A) (A) (A) (A) (A) (A) (A) (A)
       Virtual   (A) (A) (A) (A) (A) (A) (A) (A) (A) (A) (A) (A)
                 (A) (A) (A) (A) (A) (A) (A) (A) (A) (A) (A) (A)
                 (A) (A) (A) (A) (A)
 Beta  Orbitals:
       Occupied  (A) (A) (A) (A) (A) (A) (A) (A)
       Virtual   (A) (A) (A) (A) (A) (A) (A) (A) (A) (A) (A) (A)
                 (A) (A) (A) (A) (A) (A) (A) (A) (A) (A) (A) (A)
                 (A) (A) (A) (A) (A) (A)
 The electronic state is 2-A.
 Alpha  occ. eigenvalues --   -9.89123  -9.88344  -0.67590  -0.53797  -0.39383
 Alpha  occ. eigenvalues --   -0.35839  -0.33952  -0.30589  -0.15481
 Alpha virt. eigenvalues --    0.09103   0.11281   0.11862   0.14758   0.19300
 Alpha virt. eigenvalues --    0.22590   0.47924   0.50772   0.51419   0.57407
 Alpha virt. eigenvalues --    0.58230   0.70437   0.74571   0.81382   0.82409
 Alpha virt. eigenvalues --    0.88715   0.88987   0.91781   1.23090   1.39924
 Alpha virt. eigenvalues --    1.58157   1.68546   1.84903   1.91058   2.07547
 Alpha virt. eigenvalues --    2.09248   2.24007   2.36945   2.51356
  Beta  occ. eigenvalues --   -9.88423  -9.87781  -0.66148  -0.51758  -0.38750
  Beta  occ. eigenvalues --   -0.34716  -0.33155  -0.30164
  Beta virt. eigenvalues --   -0.06505   0.09602   0.12112   0.12737   0.15537
  Beta virt. eigenvalues --    0.19798   0.23569   0.48639   0.51107   0.56207
  Beta virt. eigenvalues --    0.59118   0.61336   0.71234   0.76482   0.82076
  Beta virt. eigenvalues --    0.82930   0.89320   0.89588   0.94224   1.24272
  Beta virt. eigenvalues --    1.42678   1.64721   1.69186   1.88265   1.94612
  Beta virt. eigenvalues --    2.09752   2.13063   2.25963   2.37656   2.52957
          Condensed to atoms (all electrons):
               1          2          3          4          5          6
     1  C    5.274382   0.396163  -0.033878   0.377818  -0.045784  -0.034220
     2  C    0.396163   5.061826   0.376284  -0.036973   0.365762   0.376128
     3  H   -0.033878   0.376284   0.553320   0.003942  -0.035067  -0.028308
     4  H    0.377818  -0.036973   0.003942   0.545830   0.000570  -0.005534
     5  H   -0.045784   0.365762  -0.035067   0.000570   0.577499  -0.035291
     6  H   -0.034220   0.376128  -0.028308  -0.005534  -0.035291   0.553768
     7  H    0.377898  -0.036896  -0.005687  -0.037649   0.000699   0.003925
               7
     1  C    0.377898
     2  C   -0.036896
     3  H   -0.005687
     4  H   -0.037649
     5  H    0.000699
     6  H    0.003925
     7  H    0.545569
          Atomic-Atomic Spin Densities.
               1          2          3          4          5          6
     1  C    1.180624  -0.036881  -0.008458  -0.006297  -0.033601  -0.009065
     2  C   -0.036881  -0.066811   0.006399  -0.000125   0.014981   0.006692
     3  H   -0.008458   0.006399   0.023596   0.000008  -0.012256   0.004765
     4  H   -0.006297  -0.000125   0.000008  -0.047193  -0.000471   0.000732
     5  H   -0.033601   0.014981  -0.012256  -0.000471   0.111769  -0.012774
     6  H   -0.009065   0.006692   0.004765   0.000732  -0.012774   0.025659
     7  H   -0.006296  -0.000137   0.000731   0.002298  -0.000470   0.000016
               7
     1  C   -0.006296
     2  C   -0.000137
     3  H    0.000731
     4  H    0.002298
     5  H   -0.000470
     6  H    0.000016
     7  H   -0.047226
 Mulliken charges and spin densities:
               1          2
     1  C   -0.312379   1.080026
     2  C   -0.502295  -0.075881
     3  H    0.169395   0.014786
     4  H    0.151994  -0.051049
     5  H    0.171612   0.067177
     6  H    0.169531   0.016026
     7  H    0.152142  -0.051085
 Sum of Mulliken charges =  -0.00000   1.00000
 Mulliken charges and spin densities with hydrogens summed into heavy atoms:
               1          2
     1  C   -0.008243   0.977892
     2  C    0.008243   0.022108
 Electronic spatial extent (au):  <R**2>=             99.2169
 Charge=             -0.0000 electrons
 Dipole moment (field-independent basis, Debye):
    X=             -0.2506    Y=             -0.0006    Z=              0.1354  Tot=              0.2848
 Quadrupole moment (field-independent basis, Debye-Ang):
   XX=            -13.9023   YY=            -13.3778   ZZ=            -14.9501
   XY=              0.0014   XZ=              0.1547   YZ=              0.0002
 Traceless Quadrupole moment (field-independent basis, Debye-Ang):
   XX=              0.1744   YY=              0.6989   ZZ=             -0.8734
   XY=              0.0014   XZ=              0.1547   YZ=              0.0002
 Octapole moment (field-independent basis, Debye-Ang**2):
  XXX=              0.2415  YYY=              0.0206  ZZZ=              0.7113  XYY=              0.4911
  XXY=              0.0020  XXZ=              0.2215  XZZ=             -1.4268  YZZ=             -0.0199
  YYZ=             -0.4558  XYZ=             -0.0002
 Hexadecapole moment (field-independent basis, Debye-Ang**3):
 XXXX=            -84.2217 YYYY=            -27.5876 ZZZZ=            -22.2948 XXXY=              0.0052
 XXXZ=              0.4623 YYYX=             -0.0248 YYYZ=              0.0008 ZZZX=             -0.4477
 ZZZY=             -0.0005 XXYY=            -16.4813 XXZZ=            -18.1804 YYZZ=             -8.6343
 XXYZ=              0.0012 YYXZ=              0.8512 ZZXY=              0.0242
 N-N= 3.671659597318D+01 E-N=-2.561911838571D+02  KE= 7.852807643400D+01
                          Isotropic Fermi Contact Couplings
        Atom                 a.u.       MegaHertz       Gauss      10(-4) cm-1
     1  C(13)              0.14323     161.01253      57.45327      53.70800
     2  C(13)             -0.02978     -33.47841     -11.94593     -11.16720
     3  H(1)               0.00780      34.85890      12.43852      11.62768
     4  H(1)              -0.01502     -67.14776     -23.95999     -22.39808
     5  H(1)               0.03359     150.12520      53.56840      50.07638
     6  H(1)               0.00845      37.75658      13.47249      12.59424
     7  H(1)              -0.01504     -67.21572     -23.98424     -22.42075
 --------------------------------------------------------
       Center         ----  Spin Dipole Couplings  ----
                      3XX-RR        3YY-RR        3ZZ-RR
 --------------------------------------------------------
     1   Atom       -0.530507     -0.527921      1.058428
     2   Atom        0.014947     -0.019157      0.004210
     3   Atom        0.012024     -0.003981     -0.008042
     4   Atom       -0.031731      0.036175     -0.004443
     5   Atom        0.011828     -0.010801     -0.001027
     6   Atom        0.012086     -0.004031     -0.008055
     7   Atom       -0.031608      0.036025     -0.004417
 --------------------------------------------------------
                        XY            XZ            YZ
 --------------------------------------------------------
     1   Atom       -0.000008     -0.055469     -0.000148
     2   Atom        0.000034     -0.004314      0.000033
     3   Atom       -0.010192      0.003232     -0.001364
     4   Atom       -0.061578      0.001729     -0.007024
     5   Atom        0.000148     -0.009810     -0.000149
     6   Atom        0.010119      0.003441      0.001493
     7   Atom        0.061673      0.001747      0.007029
 --------------------------------------------------------


 ---------------------------------------------------------------------------------
              Anisotropic Spin Dipole Couplings in Principal Axis System
 ---------------------------------------------------------------------------------

       Atom             a.u.   MegaHertz   Gauss  10(-4) cm-1        Axes

              Baa    -0.5324   -71.449   -25.495   -23.833  0.9994  0.0029  0.0348
     1 C(13)  Bbb    -0.5279   -70.842   -25.278   -23.630 -0.0029  1.0000 -0.0000
              Bcc     1.0604   142.290    50.773    47.463 -0.0348 -0.0001  0.9994
 
              Baa    -0.0192    -2.571    -0.917    -0.857 -0.0012  1.0000 -0.0016
     2 C(13)  Bbb     0.0027     0.361     0.129     0.120  0.3321  0.0019  0.9433
              Bcc     0.0165     2.210     0.788     0.737  0.9433  0.0006 -0.3321
 
              Baa    -0.0090    -4.806    -1.715    -1.603  0.4513  0.8191 -0.3542
     3 H(1)   Bbb    -0.0085    -4.510    -1.609    -1.504  0.0417  0.3771  0.9252
              Bcc     0.0175     9.316     3.324     3.108  0.8914 -0.4324  0.1361
 
              Baa    -0.0682   -36.370   -12.978   -12.132  0.8598  0.5096  0.0328
     4 H(1)   Bbb    -0.0050    -2.664    -0.951    -0.889 -0.0735  0.0599  0.9955
              Bcc     0.0732    39.034    13.928    13.020 -0.5054  0.8583 -0.0889
 
              Baa    -0.0108    -5.764    -2.057    -1.923  0.0002  0.9999  0.0155
     5 H(1)   Bbb    -0.0063    -3.376    -1.205    -1.126  0.4754 -0.0137  0.8796
              Bcc     0.0171     9.140     3.261     3.049  0.8797  0.0072 -0.4754
 
              Baa    -0.0090    -4.785    -1.707    -1.596 -0.4508  0.8113  0.3723
     6 H(1)   Bbb    -0.0085    -4.559    -1.627    -1.521  0.0420 -0.3973  0.9167
              Bcc     0.0175     9.344     3.334     3.117  0.8917  0.4289  0.1450
 
              Baa    -0.0682   -36.386   -12.983   -12.137  0.8592 -0.5106  0.0327
     7 H(1)   Bbb    -0.0050    -2.652    -0.946    -0.885 -0.0736 -0.0600  0.9955
              Bcc     0.0732    39.038    13.930    13.022  0.5064  0.8577  0.0891
 

 ---------------------------------------------------------------------------------

 No NMR shielding tensors so no spin-rotation constants.
 Leave Link  601 at Wed Oct  7 16:08:40 2020, MaxMem=  2684354560 cpu:               5.1 elap:               0.9
 (Enter /udrive/faculty/rpeverati/g16/g16/l9999.exe)

 Test job not archived.
 1\1\GINC-NODE56\FOpt\UPBEPBE\6-31G(d)\C2H5(2)\RPEVERATI\07-Oct-2020\0\
 \#P Opt(MaxCyc=100) PBEPBE/6-31G* 5D 7F Integral=UltraFineGrid SCF=(No
 Symm,XQC,MaxCyc=120) IOp(1/33=1)\\TS search on BH76.\\0,2\C,0.79731668
 76,0.0000460041,-0.0225562747\C,-0.6924330527,0.0002118337,-0.00122826
 39\H,-1.1113985809,0.9005806107,-0.4854882497\H,1.3600082575,-0.934913
 6219,0.047178509\H,-1.0987458843,-0.0131687972,1.0355769802\H,-1.11184
 15562,-0.8879338217,-0.5076524345\H,1.3609269926,0.9342984015,0.048448
 6353\\Version=ES64L-G16RevA.03\State=2-A\HF=-79.029141\S2=0.753594\S2-
 1=0.\S2A=0.750008\RMSD=4.028e-09\RMSF=2.352e-04\Dipole=-0.0985763,-0.0
 002772,0.0533077\Quadrupole=0.1298148,0.5196247,-0.6494395,0.000986,0.
 1145907,0.0008193\PG=C01 [X(C2H5)]\\@


 IT IS THE BEHAVIOR AND DISTRIBUTION OF THE ELECTRONS 
 AROUND THE NUCLEUS THAT GIVES THE FUNDAMENTAL 
 CHARACTER OF AN ATOM:  IT MUST BE THE SAME FOR MOLECULES.

                               -- C. A. COULSON, 1951
 Job cpu time:       0 days  0 hours  3 minutes 36.2 seconds.
 Elapsed time:       0 days  0 hours  0 minutes 34.9 seconds.
 File lengths (MBytes):  RWF=      5 Int=      0 D2E=      0 Chk=      1 Scr=      1
 Normal termination of Gaussian 16 at Wed Oct  7 16:08:41 2020.
