 Entering Gaussian System, Link 0=g16
 Input=MN_21_ch3fclts_BH76_PBE_631Gs.in
 Output=MN_21_ch3fclts_BH76_PBE_631Gs.log
 Initial command:
 /udrive/faculty/rpeverati/g16/g16/l1.exe "/udrive/scratch-directories/gaussian09/rpeverati/Gau-19323.inp" -scrdir="/udrive/scratch-directories/gaussian09/rpeverati/"
 Entering Link 1 = /udrive/faculty/rpeverati/g16/g16/l1.exe PID=     19343.
  
 Copyright (c) 1988,1990,1992,1993,1995,1998,2003,2009,2016,
            Gaussian, Inc.  All Rights Reserved.
  
 This is part of the Gaussian(R) 16 program.  It is based on
 the Gaussian(R) 09 system (copyright 2009, Gaussian, Inc.),
 the Gaussian(R) 03 system (copyright 2003, Gaussian, Inc.),
 the Gaussian(R) 98 system (copyright 1998, Gaussian, Inc.),
 the Gaussian(R) 94 system (copyright 1995, Gaussian, Inc.),
 the Gaussian 92(TM) system (copyright 1992, Gaussian, Inc.),
 the Gaussian 90(TM) system (copyright 1990, Gaussian, Inc.),
 the Gaussian 88(TM) system (copyright 1988, Gaussian, Inc.),
 the Gaussian 86(TM) system (copyright 1986, Carnegie Mellon
 University), and the Gaussian 82(TM) system (copyright 1983,
 Carnegie Mellon University). Gaussian is a federally registered
 trademark of Gaussian, Inc.
  
 This software contains proprietary and confidential information,
 including trade secrets, belonging to Gaussian, Inc.
  
 This software is provided under written license and may be
 used, copied, transmitted, or stored only in accord with that
 written license.
  
 The following legend is applicable only to US Government
 contracts under FAR:
  
                    RESTRICTED RIGHTS LEGEND
  
 Use, reproduction and disclosure by the US Government is
 subject to restrictions as set forth in subparagraphs (a)
 and (c) of the Commercial Computer Software - Restricted
 Rights clause in FAR 52.227-19.
  
 Gaussian, Inc.
 340 Quinnipiac St., Bldg. 40, Wallingford CT 06492
  
  
 ---------------------------------------------------------------
 Warning -- This program may not be used in any manner that
 competes with the business of Gaussian, Inc. or will provide
 assistance to any competitor of Gaussian, Inc.  The licensee
 of this program is prohibited from giving any competitor of
 Gaussian, Inc. access to this program.  By using this program,
 the user acknowledges that Gaussian, Inc. is engaged in the
 business of creating and licensing software in the field of
 computational chemistry and represents and warrants to the
 licensee that it is not a competitor of Gaussian, Inc. and that
 it will not use this program in any manner prohibited above.
 ---------------------------------------------------------------
  

 Cite this work as:
 Gaussian 16, Revision A.03,
 M. J. Frisch, G. W. Trucks, H. B. Schlegel, G. E. Scuseria, 
 M. A. Robb, J. R. Cheeseman, G. Scalmani, V. Barone, 
 G. A. Petersson, H. Nakatsuji, X. Li, M. Caricato, A. V. Marenich, 
 J. Bloino, B. G. Janesko, R. Gomperts, B. Mennucci, H. P. Hratchian, 
 J. V. Ortiz, A. F. Izmaylov, J. L. Sonnenberg, D. Williams-Young, 
 F. Ding, F. Lipparini, F. Egidi, J. Goings, B. Peng, A. Petrone, 
 T. Henderson, D. Ranasinghe, V. G. Zakrzewski, J. Gao, N. Rega, 
 G. Zheng, W. Liang, M. Hada, M. Ehara, K. Toyota, R. Fukuda, 
 J. Hasegawa, M. Ishida, T. Nakajima, Y. Honda, O. Kitao, H. Nakai, 
 T. Vreven, K. Throssell, J. A. Montgomery, Jr., J. E. Peralta, 
 F. Ogliaro, M. J. Bearpark, J. J. Heyd, E. N. Brothers, K. N. Kudin, 
 V. N. Staroverov, T. A. Keith, R. Kobayashi, J. Normand, 
 K. Raghavachari, A. P. Rendell, J. C. Burant, S. S. Iyengar, 
 J. Tomasi, M. Cossi, J. M. Millam, M. Klene, C. Adamo, R. Cammi, 
 J. W. Ochterski, R. L. Martin, K. Morokuma, O. Farkas, 
 J. B. Foresman, and D. J. Fox, Gaussian, Inc., Wallingford CT, 2016.
 
 ******************************************
 Gaussian 16:  ES64L-G16RevA.03 25-Dec-2016
                 7-Oct-2020 
 ******************************************
 %NoSave
 %nproc=12
 Will use up to   12 processors via shared memory.
 %mem=20GB
 %chk=MN_21_ch3fclts_BH76_PBE_631Gs
 ----------------------------------------------------------------------
 #P Opt(TS,MaxCyc=50,NoEigenTest,MaxStep=10,AddRedundant) PBEPBE/6-31G*
  5D 7F Integral=UltraFineGrid SCF=(NoSymm,XQC,MaxCyc=120) IOp(1/33=1)
 ----------------------------------------------------------------------
 1/5=1,6=50,8=10,11=1,18=120,26=4,33=1,38=1/1,3;
 2/9=110,12=2,17=6,18=5,40=1/2;
 3/5=1,6=6,7=1,8=11,11=2,25=1,30=1,71=1,74=1009,75=-5/1,2,3;
 4/9=2/1;
 5/5=2,7=120,8=3,13=1,38=5/2,8;
 6/7=2,8=2,9=2,10=2,28=1/1;
 7//1,2,3,16;
 1/5=1,6=50,8=10,11=1,18=20,26=4,33=1/3(2);
 2/9=110/2;
 99//99;
 2/9=110/2;
 3/5=1,6=6,7=1,8=11,11=2,25=1,30=1,71=1,74=1009,75=-5/1,2,3;
 4/5=5,9=2,16=3,69=1/1;
 5/5=2,7=120,8=3,13=1,38=5/2,8;
 7//1,2,3,16;
 1/5=1,6=50,8=10,11=1,18=20,26=4,33=1/3(-5);
 2/9=110/2;
 6/7=2,8=2,9=2,10=2,19=2,28=1/1;
 99/9=1/99;
 Leave Link    1 at Wed Oct  7 16:08:35 2020, MaxMem=  2684354560 cpu:               4.9 elap:               0.5
 (Enter /udrive/faculty/rpeverati/g16/g16/l101.exe)
 ONIOM data not found on unit 2.
 ------------------
 TS search on BH76.
 ------------------
 TstMul:  ICh=     0
 TstMul:  Mul=     2
 TstMul:  ICh=     0
 TstMul:  Mul=     2
 Symbolic Z-matrix:
 Charge =  0 Multiplicity = 2
 c
 f                    1    fc2
 cl                   2    clf3     1    clfc3
 h                    1    hc4      2    hcf4     3    dih4     0
 h                    1    hc5      2    hcf5     3    dih5     0
 h                    1    hc6      2    hcf6     3    dih6     0
       Variables:
  fc2                   2.06384                  
  clf3                  1.77835                  
  clfc3               179.623                    
  hc4                   1.07759                  
  hcf4                 95.887                    
  dih4                -35.651                    
  hc5                   1.07756                  
  hcf5                 95.872                    
  dih5                 84.335                    
  hc6                   1.07755                  
  hcf6                 95.908                    
  dih6               -155.666                    
 
 RdStrC is calling ZToCFu for IStruc=1 NZ=     6.
 PrtBox:  NBox=     1 Levels=  1 BoxLen=    8.00 SMaxX=        7.47
          Shift=            1.845508            2.015714            0.209596
 Box      1 Number                   0 centers from      1 to      6:
 After GenITR:
 ITRead=  0  0  0  0  0  0
 MicOpt= -1 -1 -1 -1 -1 -1
 Add virtual bond connecting atoms F2         and C1         Dist= 3.90D+00.
 The following ModRedundant input section has been read:
 B       1       2 D                                                           
 B       1       3 D                                                           
 B       2       3 D                                                           
 
 ITRead=  0  0  0  0  0  0
 MicOpt= -1 -1 -1 -1 -1 -1
 NAtoms=      6 NQM=        6 NQMF=       0 NMMI=      0 NMMIF=      0
                NMic=       0 NMicF=      0.
                    Isotopes and Nuclear Properties:
 (Nuclear quadrupole moments (NQMom) in fm**2, nuclear magnetic moments (NMagM)
  in nuclear magnetons)

  Atom         1           2           3           4           5           6
 IAtWgt=          12          19          35           1           1           1
 AtmWgt=  12.0000000  18.9984033  34.9688527   1.0078250   1.0078250   1.0078250
 NucSpn=           0           1           3           1           1           1
 AtZEff=   0.0000000   0.0000000   0.0000000   0.0000000   0.0000000   0.0000000
 NQMom=    0.0000000   0.0000000  -8.1650000   0.0000000   0.0000000   0.0000000
 NMagM=    0.0000000   2.6288670   0.8218740   2.7928460   2.7928460   2.7928460
 AtZNuc=   6.0000000   9.0000000  17.0000000   1.0000000   1.0000000   1.0000000
 No MM parameters found.
 Leave Link  101 at Wed Oct  7 16:08:37 2020, MaxMem=  2684354560 cpu:              15.4 elap:               1.4
 (Enter /udrive/faculty/rpeverati/g16/g16/l103.exe)

 GradGradGradGradGradGradGradGradGradGradGradGradGradGradGradGradGradGrad
 Berny optimization.
 Optmz: redundant internal coordinate code flag= 1
 Initialization pass.
                           ----------------------------
                           !    Initial Parameters    !
                           ! (Angstroms and Degrees)  !
 --------------------------                            --------------------------
 ! Name  Definition              Value          Derivative Info.                !
 --------------------------------------------------------------------------------
 ! R1    R(1,2)                  2.0638         calc D2E/DXDY, step=    0.0026  !
 ! R2    R(1,3)                  3.8422         calc D2E/DXDY, step=    0.0026  !
 ! R3    R(1,4)                  1.0776         estimate D2E/DX2                !
 ! R4    R(1,5)                  1.0776         estimate D2E/DX2                !
 ! R5    R(1,6)                  1.0775         estimate D2E/DX2                !
 ! R6    R(2,3)                  1.7783         calc D2E/DXDY, step=    0.0026  !
 ! A1    A(2,1,4)               95.887          estimate D2E/DX2                !
 ! A2    A(2,1,5)               95.872          estimate D2E/DX2                !
 ! A3    A(2,1,6)               95.908          estimate D2E/DX2                !
 ! A4    A(4,1,5)              118.9503         estimate D2E/DX2                !
 ! A5    A(4,1,6)              118.9724         estimate D2E/DX2                !
 ! A6    A(5,1,6)              118.9594         estimate D2E/DX2                !
 ! A7    L(1,2,3,5,-1)         179.9603         estimate D2E/DX2                !
 ! A8    L(1,2,3,5,-2)         179.1528         estimate D2E/DX2                !
 ! D1    D(2,1,5,4)           -100.0626         estimate D2E/DX2                !
 ! D2    D(2,1,6,4)            100.088          estimate D2E/DX2                !
 ! D3    D(2,1,6,5)           -100.0679         estimate D2E/DX2                !
 ! D4    D(4,1,6,5)            159.8441         estimate D2E/DX2                !
 --------------------------------------------------------------------------------
 Maximum allowed force set to 1.00D+20.
 Trust Radius=1.00D-01 FncErr=1.00D-07 GrdErr=1.00D-06 EigMax=2.50D+02 EigMin=1.00D-04
 Number of steps in this run=     50 maximum allowed number of steps=    100.
 Search for a saddle point of order  1.
 GradGradGradGradGradGradGradGradGradGradGradGradGradGradGradGradGradGrad

 Leave Link  103 at Wed Oct  7 16:08:37 2020, MaxMem=  2684354560 cpu:               0.9 elap:               0.3
 (Enter /udrive/faculty/rpeverati/g16/g16/l202.exe)
                          Input orientation:                          
 ---------------------------------------------------------------------
 Center     Atomic      Atomic             Coordinates (Angstroms)
 Number     Number       Type             X           Y           Z
 ---------------------------------------------------------------------
      1          6           0        0.000000    0.000000    0.000000
      2          9           0        0.000000    0.000000    2.063844
      3         17           0        0.011701    0.000000    3.842153
      4          1           0        0.871013    0.624757   -0.110525
      5          1           0        0.105810   -1.066670   -0.110241
      6          1           0       -0.976601    0.441650   -0.110913
 ---------------------------------------------------------------------
                    Distance matrix (angstroms):
                    1          2          3          4          5
     1  C    0.000000
     2  F    2.063844   0.000000
     3  Cl   3.842170   1.778347   0.000000
     4  H    1.077590   2.424225   4.092969   0.000000
     5  H    1.077559   2.423969   4.094882   1.856465   0.000000
     6  H    1.077546   2.424536   4.098600   1.856665   1.856513
                    6
     6  H    0.000000
 Stoichiometry    CH3ClF(2)
 Framework group  C1[X(CH3ClF)]
 Deg. of freedom    12
 Full point group                 C1      NOp   1
 Largest Abelian subgroup         C1      NOp   1
 Largest concise Abelian subgroup C1      NOp   1
                         Standard orientation:                         
 ---------------------------------------------------------------------
 Center     Atomic      Atomic             Coordinates (Angstroms)
 Number     Number       Type             X           Y           Z
 ---------------------------------------------------------------------
      1          6           0       -2.387420   -0.002147   -0.000036
      2          9           0       -0.323587    0.004627    0.000042
      3         17           0        1.454750   -0.001236   -0.000018
      4          1           0       -2.495084   -0.866694   -0.634202
      5          1           0       -2.497316   -0.119874    1.065420
      6          1           0       -2.501538    0.978815   -0.431078
 ---------------------------------------------------------------------
 Rotational constants (GHZ):         145.4642039           3.0826815           3.0826635
 Leave Link  202 at Wed Oct  7 16:08:38 2020, MaxMem=  2684354560 cpu:               0.9 elap:               0.3
 (Enter /udrive/faculty/rpeverati/g16/g16/l301.exe)
 Standard basis: 6-31G(d) (5D, 7F)
 Ernie: Thresh=  0.10000D-02 Tol=  0.10000D-05 Strict=F.
 There are    55 symmetry adapted cartesian basis functions of A   symmetry.
 There are    52 symmetry adapted basis functions of A   symmetry.
    52 basis functions,   120 primitive gaussians,    55 cartesian basis functions
    18 alpha electrons       17 beta electrons
       nuclear repulsion energy        95.5999325608 Hartrees.
 IExCor= 1009 DFT=T Ex=PBE Corr=PBE ExCW=0 ScaHFX=  0.000000
 ScaDFX=  1.000000  1.000000  1.000000  1.000000 ScalE2=  1.000000  1.000000
 IRadAn=      5 IRanWt=     -1 IRanGd=            0 ICorTp=0 IEmpDi=  4
 NAtoms=    6 NActive=    6 NUniq=    6 SFac= 1.00D+00 NAtFMM=   60 NAOKFM=F Big=F
 Integral buffers will be    131072 words long.
 Raffenetti 2 integral format.
 Two-electron integral symmetry is turned on.
 Leave Link  301 at Wed Oct  7 16:08:39 2020, MaxMem=  2684354560 cpu:               2.2 elap:               0.5
 (Enter /udrive/faculty/rpeverati/g16/g16/l302.exe)
 NPDir=0 NMtPBC=     1 NCelOv=     1 NCel=       1 NClECP=     1 NCelD=      1
         NCelK=      1 NCelE2=     1 NClLst=     1 CellRange=     0.0.
 One-electron integrals computed using PRISM.
 One-electron integral symmetry used in STVInt
 NBasis=    52 RedAO= T EigKep=  2.48D-02  NBF=    52
 NBsUse=    52 1.00D-06 EigRej= -1.00D+00 NBFU=    52
 Precomputing XC quadrature grid using
 IXCGrd= 4 IRadAn=           5 IRanWt=          -1 IRanGd=           0 AccXCQ= 0.00D+00.
 Generated NRdTot=       0 NPtTot=           0 NUsed=           0 NTot=          32
 NSgBfM=    55    55    55    55    55 MxSgAt=     6 MxSgA2=     6.
 Leave Link  302 at Wed Oct  7 16:08:39 2020, MaxMem=  2684354560 cpu:               4.2 elap:               0.6
 (Enter /udrive/faculty/rpeverati/g16/g16/l303.exe)
 DipDrv:  MaxL=1.
 Leave Link  303 at Wed Oct  7 16:08:40 2020, MaxMem=  2684354560 cpu:               1.6 elap:               0.4
 (Enter /udrive/faculty/rpeverati/g16/g16/l401.exe)
 SCF N**3 symmetry information disabled.
 ExpMin= 1.43D-01 ExpMax= 2.52D+04 ExpMxC= 3.78D+03 IAcc=3 IRadAn=         5 AccDes= 0.00D+00
 Harris functional with IExCor= 1009 and IRadAn=       5 diagonalized for initial guess.
 HarFok:  IExCor= 1009 AccDes= 0.00D+00 IRadAn=         5 IDoV= 1 UseB2=F ITyADJ=14
 ICtDFT=  3500011 ScaDFX=  1.000000  1.000000  1.000000  1.000000
 FoFCou: FMM=F IPFlag=           0 FMFlag=      100000 FMFlg1=           0
         NFxFlg=           0 DoJE=T BraDBF=F KetDBF=T FulRan=T
         wScrn=  0.000000 ICntrl=       500 IOpCl=  0 I1Cent=   200000004 NGrid=           0
         NMat0=    1 NMatS0=      1 NMatT0=    0 NMatD0=    1 NMtDS0=    0 NMtDT0=    0
 Petite list used in FoFCou.
 Harris En= -599.381925738719    
 JPrj=0 DoOrth=F DoCkMO=F.
 Initial guess <Sx>= 0.0000 <Sy>= 0.0000 <Sz>= 0.5000 <S**2>= 0.7500 S= 0.5000
 Leave Link  401 at Wed Oct  7 16:08:41 2020, MaxMem=  2684354560 cpu:               7.8 elap:               1.0
 (Enter /udrive/faculty/rpeverati/g16/g16/l502.exe)
 Keep J ints in memory in canonical form, NReq=11457752.
 FoFCou: FMM=F IPFlag=           0 FMFlag=           0 FMFlg1=           0
         NFxFlg=           0 DoJE=F BraDBF=F KetDBF=F FulRan=T
         wScrn=  0.000000 ICntrl=       600 IOpCl=  0 I1Cent=           0 NGrid=           0
         NMat0=    1 NMatS0=   1378 NMatT0=    0 NMatD0=    1 NMtDS0=    0 NMtDT0=    0
 Symmetry not used in FoFCou.
 Two-electron integral symmetry not used.
 UHF open shell SCF:
 Using DIIS extrapolation, IDIIS=  1040.
 NGot=  2684354560 LenX=  2683396960 LenY=  2683393494
 Requested convergence on RMS density matrix=1.00D-08 within 120 cycles.
 Requested convergence on MAX density matrix=1.00D-06.
 Requested convergence on             energy=1.00D-06.
 No special actions if energy rises.
 Integral accuracy reduced to 1.0D-05 until final iterations.

 Cycle   1  Pass 0  IDiag  1:
 E= -599.339725776871    
 DIIS: error= 4.62D-02 at cycle   1 NSaved=   1.
 NSaved= 1 IEnMin= 1 EnMin= -599.339725776871     IErMin= 1 ErrMin= 4.62D-02
 ErrMax= 4.62D-02  0.00D+00 EMaxC= 1.00D-01 BMatC= 2.90D-01 BMatP= 2.90D-01
 IDIUse=3 WtCom= 5.38D-01 WtEn= 4.62D-01
 Coeff-Com:  0.100D+01
 Coeff-En:   0.100D+01
 Coeff:      0.100D+01
 Gap=    -0.042 Goal=   None    Shift=    0.000
 Gap=     0.294 Goal=   None    Shift=    0.000
 GapD=   -0.042 DampG=0.250 DampE=0.500 DampFc=0.2500 IDamp=-1.
 Damping current iteration by 2.50D-01
 RMSDP=1.91D-02 MaxDP=4.76D-01              OVMax= 6.96D-01

 Cycle   2  Pass 0  IDiag  1:
 E= -599.375156527544     Delta-E=       -0.035430750673 Rises=F Damp=T
 DIIS: error= 1.17D-02 at cycle   2 NSaved=   2.
 NSaved= 2 IEnMin= 2 EnMin= -599.375156527544     IErMin= 2 ErrMin= 1.17D-02
 ErrMax= 1.17D-02  0.00D+00 EMaxC= 1.00D-01 BMatC= 1.93D-02 BMatP= 2.90D-01
 IDIUse=3 WtCom= 8.83D-01 WtEn= 1.17D-01
 Coeff-Com: -0.249D+00 0.125D+01
 Coeff-En:   0.807D-01 0.919D+00
 Coeff:     -0.210D+00 0.121D+01
 Gap=     0.059 Goal=   None    Shift=    0.000
 Gap=     0.106 Goal=   None    Shift=    0.000
 RMSDP=3.11D-03 MaxDP=5.03D-02 DE=-3.54D-02 OVMax= 6.28D-01

 Cycle   3  Pass 0  IDiag  1:
 E= -599.425000320240     Delta-E=       -0.049843792695 Rises=F Damp=F
 DIIS: error= 6.75D-03 at cycle   3 NSaved=   3.
 NSaved= 3 IEnMin= 3 EnMin= -599.425000320240     IErMin= 3 ErrMin= 6.75D-03
 ErrMax= 6.75D-03  0.00D+00 EMaxC= 1.00D-01 BMatC= 6.80D-03 BMatP= 1.93D-02
 IDIUse=3 WtCom= 9.33D-01 WtEn= 6.75D-02
 Coeff-Com: -0.120D+00 0.585D+00 0.535D+00
 Coeff-En:   0.000D+00 0.000D+00 0.100D+01
 Coeff:     -0.112D+00 0.546D+00 0.566D+00
 Gap=     0.091 Goal=   None    Shift=    0.000
 Gap=     0.070 Goal=   None    Shift=    0.000
 RMSDP=1.49D-03 MaxDP=3.19D-02 DE=-4.98D-02 OVMax= 6.95D-02

 Cycle   4  Pass 0  IDiag  1:
 E= -599.425601788065     Delta-E=       -0.000601467826 Rises=F Damp=F
 DIIS: error= 5.80D-03 at cycle   4 NSaved=   4.
 NSaved= 4 IEnMin= 4 EnMin= -599.425601788065     IErMin= 4 ErrMin= 5.80D-03
 ErrMax= 5.80D-03  0.00D+00 EMaxC= 1.00D-01 BMatC= 5.07D-03 BMatP= 6.80D-03
 IDIUse=3 WtCom= 9.42D-01 WtEn= 5.80D-02
 Coeff-Com: -0.253D-01 0.129D+00 0.426D+00 0.470D+00
 Coeff-En:   0.000D+00 0.000D+00 0.411D+00 0.589D+00
 Coeff:     -0.238D-01 0.121D+00 0.426D+00 0.477D+00
 Gap=     0.097 Goal=   None    Shift=    0.000
 Gap=     0.068 Goal=   None    Shift=    0.000
 RMSDP=7.72D-04 MaxDP=1.82D-02 DE=-6.01D-04 OVMax= 3.39D-02

 Cycle   5  Pass 0  IDiag  1:
 E= -599.426632416583     Delta-E=       -0.001030628518 Rises=F Damp=F
 DIIS: error= 1.66D-03 at cycle   5 NSaved=   5.
 NSaved= 5 IEnMin= 5 EnMin= -599.426632416583     IErMin= 5 ErrMin= 1.66D-03
 ErrMax= 1.66D-03  0.00D+00 EMaxC= 1.00D-01 BMatC= 6.41D-04 BMatP= 5.07D-03
 IDIUse=3 WtCom= 9.83D-01 WtEn= 1.66D-02
 Coeff-Com:  0.317D-02-0.347D-02 0.128D+00 0.302D+00 0.570D+00
 Coeff-En:   0.000D+00 0.000D+00 0.000D+00 0.125D+00 0.875D+00
 Coeff:      0.311D-02-0.341D-02 0.126D+00 0.299D+00 0.575D+00
 Gap=     0.097 Goal=   None    Shift=    0.000
 Gap=     0.068 Goal=   None    Shift=    0.000
 RMSDP=2.54D-04 MaxDP=6.74D-03 DE=-1.03D-03 OVMax= 1.10D-02

 Cycle   6  Pass 0  IDiag  1:
 E= -599.426795737839     Delta-E=       -0.000163321255 Rises=F Damp=F
 DIIS: error= 3.78D-04 at cycle   6 NSaved=   6.
 NSaved= 6 IEnMin= 6 EnMin= -599.426795737839     IErMin= 6 ErrMin= 3.78D-04
 ErrMax= 3.78D-04  0.00D+00 EMaxC= 1.00D-01 BMatC= 3.33D-05 BMatP= 6.41D-04
 IDIUse=3 WtCom= 9.96D-01 WtEn= 3.78D-03
 Coeff-Com: -0.745D-02 0.129D-02-0.746D-01-0.848D-01 0.718D-01 0.109D+01
 Coeff-En:   0.000D+00 0.000D+00 0.000D+00 0.000D+00 0.000D+00 0.100D+01
 Coeff:     -0.742D-02 0.129D-02-0.743D-01-0.845D-01 0.715D-01 0.109D+01
 Gap=     0.098 Goal=   None    Shift=    0.000
 Gap=     0.069 Goal=   None    Shift=    0.000
 RMSDP=1.31D-04 MaxDP=4.83D-03 DE=-1.63D-04 OVMax= 4.53D-03

 Cycle   7  Pass 0  IDiag  1:
 E= -599.426810412263     Delta-E=       -0.000014674424 Rises=F Damp=F
 DIIS: error= 1.14D-04 at cycle   7 NSaved=   7.
 NSaved= 7 IEnMin= 7 EnMin= -599.426810412263     IErMin= 7 ErrMin= 1.14D-04
 ErrMax= 1.14D-04  0.00D+00 EMaxC= 1.00D-01 BMatC= 3.46D-06 BMatP= 3.33D-05
 IDIUse=3 WtCom= 9.99D-01 WtEn= 1.14D-03
 Coeff-Com: -0.808D-03 0.200D-03-0.257D-01-0.473D-01-0.665D-02 0.342D+00
 Coeff-Com:  0.738D+00
 Coeff-En:   0.000D+00 0.000D+00 0.000D+00 0.000D+00 0.000D+00 0.000D+00
 Coeff-En:   0.100D+01
 Coeff:     -0.807D-03 0.200D-03-0.257D-01-0.472D-01-0.664D-02 0.342D+00
 Coeff:      0.739D+00
 Gap=     0.098 Goal=   None    Shift=    0.000
 Gap=     0.069 Goal=   None    Shift=    0.000
 RMSDP=3.19D-05 MaxDP=5.52D-04 DE=-1.47D-05 OVMax= 1.40D-03

 Cycle   8  Pass 0  IDiag  1:
 E= -599.426811874085     Delta-E=       -0.000001461822 Rises=F Damp=F
 DIIS: error= 2.19D-05 at cycle   8 NSaved=   8.
 NSaved= 8 IEnMin= 8 EnMin= -599.426811874085     IErMin= 8 ErrMin= 2.19D-05
 ErrMax= 2.19D-05  0.00D+00 EMaxC= 1.00D-01 BMatC= 9.85D-08 BMatP= 3.46D-06
 IDIUse=1 WtCom= 1.00D+00 WtEn= 0.00D+00
 Coeff-Com:  0.538D-03-0.358D-03-0.979D-03-0.541D-02-0.729D-02 0.472D-02
 Coeff-Com:  0.217D+00 0.792D+00
 Coeff:      0.538D-03-0.358D-03-0.979D-03-0.541D-02-0.729D-02 0.472D-02
 Coeff:      0.217D+00 0.792D+00
 Gap=     0.098 Goal=   None    Shift=    0.000
 Gap=     0.069 Goal=   None    Shift=    0.000
 RMSDP=4.32D-06 MaxDP=8.15D-05 DE=-1.46D-06 OVMax= 1.52D-04

 Initial convergence to 1.0D-05 achieved.  Increase integral accuracy.
 Cycle   9  Pass 1  IDiag  1:
 E= -599.426750631989     Delta-E=        0.000061242096 Rises=F Damp=F
 DIIS: error= 1.13D-05 at cycle   1 NSaved=   1.
 NSaved= 1 IEnMin= 1 EnMin= -599.426750631989     IErMin= 1 ErrMin= 1.13D-05
 ErrMax= 1.13D-05  0.00D+00 EMaxC= 1.00D-01 BMatC= 5.53D-08 BMatP= 5.53D-08
 IDIUse=1 WtCom= 1.00D+00 WtEn= 0.00D+00
 Coeff-Com:  0.100D+01
 Coeff:      0.100D+01
 Gap=     0.098 Goal=   None    Shift=    0.000
 Gap=     0.069 Goal=   None    Shift=    0.000
 RMSDP=4.32D-06 MaxDP=8.15D-05 DE= 6.12D-05 OVMax= 4.46D-04

 Cycle  10  Pass 1  IDiag  1:
 E= -599.426750589389     Delta-E=        0.000000042600 Rises=F Damp=F
 DIIS: error= 3.47D-05 at cycle   2 NSaved=   2.
 NSaved= 2 IEnMin= 1 EnMin= -599.426750631989     IErMin= 1 ErrMin= 1.13D-05
 ErrMax= 3.47D-05  0.00D+00 EMaxC= 1.00D-01 BMatC= 1.62D-07 BMatP= 5.53D-08
 IDIUse=1 WtCom= 1.00D+00 WtEn= 0.00D+00
 Coeff-Com:  0.663D+00 0.337D+00
 Coeff:      0.663D+00 0.337D+00
 Gap=     0.098 Goal=   None    Shift=    0.000
 Gap=     0.069 Goal=   None    Shift=    0.000
 RMSDP=8.66D-06 MaxDP=2.24D-04 DE= 4.26D-08 OVMax= 4.34D-04

 Cycle  11  Pass 1  IDiag  1:
 E= -599.426750640784     Delta-E=       -0.000000051396 Rises=F Damp=F
 DIIS: error= 1.25D-05 at cycle   3 NSaved=   3.
 NSaved= 3 IEnMin= 3 EnMin= -599.426750640784     IErMin= 1 ErrMin= 1.13D-05
 ErrMax= 1.25D-05  0.00D+00 EMaxC= 1.00D-01 BMatC= 3.69D-08 BMatP= 5.53D-08
 IDIUse=1 WtCom= 1.00D+00 WtEn= 0.00D+00
 Coeff-Com:  0.262D+00 0.274D+00 0.464D+00
 Coeff:      0.262D+00 0.274D+00 0.464D+00
 Gap=     0.098 Goal=   None    Shift=    0.000
 Gap=     0.069 Goal=   None    Shift=    0.000
 RMSDP=3.20D-06 MaxDP=8.57D-05 DE=-5.14D-08 OVMax= 1.49D-04

 Cycle  12  Pass 1  IDiag  1:
 E= -599.426750653185     Delta-E=       -0.000000012400 Rises=F Damp=F
 DIIS: error= 2.20D-06 at cycle   4 NSaved=   4.
 NSaved= 4 IEnMin= 4 EnMin= -599.426750653185     IErMin= 4 ErrMin= 2.20D-06
 ErrMax= 2.20D-06  0.00D+00 EMaxC= 1.00D-01 BMatC= 1.38D-09 BMatP= 3.69D-08
 IDIUse=1 WtCom= 1.00D+00 WtEn= 0.00D+00
 Coeff-Com:  0.285D-01 0.764D-01 0.221D+00 0.674D+00
 Coeff:      0.285D-01 0.764D-01 0.221D+00 0.674D+00
 Gap=     0.098 Goal=   None    Shift=    0.000
 Gap=     0.069 Goal=   None    Shift=    0.000
 RMSDP=6.30D-07 MaxDP=1.26D-05 DE=-1.24D-08 OVMax= 2.94D-05

 Cycle  13  Pass 1  IDiag  1:
 E= -599.426750653497     Delta-E=       -0.000000000312 Rises=F Damp=F
 DIIS: error= 1.81D-06 at cycle   5 NSaved=   5.
 NSaved= 5 IEnMin= 5 EnMin= -599.426750653497     IErMin= 5 ErrMin= 1.81D-06
 ErrMax= 1.81D-06  0.00D+00 EMaxC= 1.00D-01 BMatC= 4.71D-10 BMatP= 1.38D-09
 IDIUse=1 WtCom= 1.00D+00 WtEn= 0.00D+00
 Coeff-Com:  0.934D-02 0.450D-01 0.132D+00 0.478D+00 0.336D+00
 Coeff:      0.934D-02 0.450D-01 0.132D+00 0.478D+00 0.336D+00
 Gap=     0.098 Goal=   None    Shift=    0.000
 Gap=     0.069 Goal=   None    Shift=    0.000
 RMSDP=1.71D-07 MaxDP=3.55D-06 DE=-3.12D-10 OVMax= 6.50D-06

 Cycle  14  Pass 1  IDiag  1:
 E= -599.426750653593     Delta-E=       -0.000000000096 Rises=F Damp=F
 DIIS: error= 3.20D-07 at cycle   6 NSaved=   6.
 NSaved= 6 IEnMin= 6 EnMin= -599.426750653593     IErMin= 6 ErrMin= 3.20D-07
 ErrMax= 3.20D-07  0.00D+00 EMaxC= 1.00D-01 BMatC= 2.30D-11 BMatP= 4.71D-10
 IDIUse=1 WtCom= 1.00D+00 WtEn= 0.00D+00
 Coeff-Com:  0.245D-04 0.125D-01 0.231D-01 0.123D+00 0.175D+00 0.666D+00
 Coeff:      0.245D-04 0.125D-01 0.231D-01 0.123D+00 0.175D+00 0.666D+00
 Gap=     0.098 Goal=   None    Shift=    0.000
 Gap=     0.069 Goal=   None    Shift=    0.000
 RMSDP=8.16D-08 MaxDP=2.41D-06 DE=-9.57D-11 OVMax= 3.84D-06

 Cycle  15  Pass 1  IDiag  1:
 E= -599.426750653600     Delta-E=       -0.000000000007 Rises=F Damp=F
 DIIS: error= 5.25D-08 at cycle   7 NSaved=   7.
 NSaved= 7 IEnMin= 7 EnMin= -599.426750653600     IErMin= 7 ErrMin= 5.25D-08
 ErrMax= 5.25D-08  0.00D+00 EMaxC= 1.00D-01 BMatC= 5.87D-13 BMatP= 2.30D-11
 IDIUse=1 WtCom= 1.00D+00 WtEn= 0.00D+00
 Coeff-Com: -0.503D-03 0.625D-03 0.711D-03 0.693D-02 0.336D-01 0.171D+00
 Coeff-Com:  0.787D+00
 Coeff:     -0.503D-03 0.625D-03 0.711D-03 0.693D-02 0.336D-01 0.171D+00
 Coeff:      0.787D+00
 Gap=     0.098 Goal=   None    Shift=    0.000
 Gap=     0.069 Goal=   None    Shift=    0.000
 RMSDP=1.08D-08 MaxDP=1.83D-07 DE=-6.82D-12 OVMax= 3.20D-07

 Cycle  16  Pass 1  IDiag  1:
 E= -599.426750653599     Delta-E=        0.000000000001 Rises=F Damp=F
 DIIS: error= 3.41D-08 at cycle   8 NSaved=   8.
 NSaved= 8 IEnMin= 7 EnMin= -599.426750653600     IErMin= 8 ErrMin= 3.41D-08
 ErrMax= 3.41D-08  0.00D+00 EMaxC= 1.00D-01 BMatC= 1.04D-13 BMatP= 5.87D-13
 IDIUse=1 WtCom= 1.00D+00 WtEn= 0.00D+00
 Coeff-Com: -0.245D-03-0.183D-02-0.310D-02-0.167D-01-0.841D-02-0.315D-01
 Coeff-Com:  0.261D+00 0.801D+00
 Coeff:     -0.245D-03-0.183D-02-0.310D-02-0.167D-01-0.841D-02-0.315D-01
 Coeff:      0.261D+00 0.801D+00
 Gap=     0.098 Goal=   None    Shift=    0.000
 Gap=     0.069 Goal=   None    Shift=    0.000
 RMSDP=3.61D-09 MaxDP=5.43D-08 DE= 5.68D-13 OVMax= 9.65D-08

 SCF Done:  E(UPBE-PBE) =  -599.426750654     A.U. after   16 cycles
            NFock= 16  Conv=0.36D-08     -V/T= 2.0022
 <Sx>= 0.0000 <Sy>= 0.0000 <Sz>= 0.5000 <S**2>= 0.7557 S= 0.5029
 <L.S>= 0.000000000000E+00
 KE= 5.981310967453D+02 PE=-1.616447305014D+03 EE= 3.232895250541D+02
 Annihilation of the first spin contaminant:
 S**2 before annihilation     0.7557,   after     0.7500
 Leave Link  502 at Wed Oct  7 16:08:46 2020, MaxMem=  2684354560 cpu:              44.0 elap:               4.0
 (Enter /udrive/faculty/rpeverati/g16/g16/l508.exe)
 QCSCF skips out because SCF is already converged.
 Leave Link  508 at Wed Oct  7 16:08:46 2020, MaxMem=  2684354560 cpu:               0.3 elap:               0.5
 (Enter /udrive/faculty/rpeverati/g16/g16/l601.exe)
 Copying SCF densities to generalized density rwf, IOpCl= 1 IROHF=0.

 **********************************************************************

            Population analysis using the SCF density.

 **********************************************************************

 Orbital symmetries:
 Alpha Orbitals:
       Occupied  (A) (A) (A) (A) (A) (A) (A) (A) (A) (A) (A) (A)
                 (A) (A) (A) (A) (A) (A)
       Virtual   (A) (A) (A) (A) (A) (A) (A) (A) (A) (A) (A) (A)
                 (A) (A) (A) (A) (A) (A) (A) (A) (A) (A) (A) (A)
                 (A) (A) (A) (A) (A) (A) (A) (A) (A) (A)
 Beta  Orbitals:
       Occupied  (A) (A) (A) (A) (A) (A) (A) (A) (A) (A) (A) (A)
                 (A) (A) (A) (A) (A)
       Virtual   (A) (A) (A) (A) (A) (A) (A) (A) (A) (A) (A) (A)
                 (A) (A) (A) (A) (A) (A) (A) (A) (A) (A) (A) (A)
                 (A) (A) (A) (A) (A) (A) (A) (A) (A) (A) (A)
 The electronic state is 2-A.
 Alpha  occ. eigenvalues -- -100.66947 -24.26604  -9.95425  -9.18028  -7.01258
 Alpha  occ. eigenvalues --   -6.99205  -6.99205  -1.04929  -0.71948  -0.65480
 Alpha  occ. eigenvalues --   -0.43584  -0.41084  -0.41079  -0.34140  -0.34140
 Alpha  occ. eigenvalues --   -0.24102  -0.24102  -0.21808
 Alpha virt. eigenvalues --   -0.12000   0.06780   0.12804   0.12806   0.34170
 Alpha virt. eigenvalues --    0.38660   0.43012   0.43014   0.47952   0.48226
 Alpha virt. eigenvalues --    0.48232   0.67495   0.73624   0.73624   0.81477
 Alpha virt. eigenvalues --    0.81478   0.82597   0.82600   0.83701   0.93913
 Alpha virt. eigenvalues --    1.20912   1.20915   1.54499   1.54502   1.57034
 Alpha virt. eigenvalues --    1.69234   1.79732   1.79737   1.85488   1.85492
 Alpha virt. eigenvalues --    2.04793   2.10832   2.10848   2.31519
  Beta  occ. eigenvalues -- -100.66720 -24.26531  -9.94380  -9.17801  -7.00638
  Beta  occ. eigenvalues --   -6.99058  -6.99058  -1.04682  -0.70533  -0.63033
  Beta  occ. eigenvalues --   -0.42495  -0.40340  -0.40335  -0.33837  -0.33837
  Beta  occ. eigenvalues --   -0.23629  -0.23629
  Beta virt. eigenvalues --   -0.16718  -0.07938   0.07942   0.13302   0.13304
  Beta virt. eigenvalues --    0.34962   0.40065   0.43373   0.43374   0.48969
  Beta virt. eigenvalues --    0.48975   0.52714   0.69689   0.75536   0.75537
  Beta virt. eigenvalues --    0.81896   0.81896   0.83059   0.83063   0.85763
  Beta virt. eigenvalues --    0.96299   1.21529   1.21532   1.59120   1.59127
  Beta virt. eigenvalues --    1.59596   1.69402   1.79781   1.79786   1.85892
  Beta virt. eigenvalues --    1.85895   2.08752   2.11739   2.11754   2.33490
          Condensed to atoms (all electrons):
               1          2          3          4          5          6
     1  C    5.243793   0.034692   0.014677   0.372036   0.372038   0.372027
     2  F    0.034692   9.259765  -0.000087  -0.003650  -0.003636  -0.003614
     3  Cl   0.014677  -0.000087  16.931608  -0.000020  -0.000022  -0.000024
     4  H    0.372036  -0.003650  -0.000020   0.472378  -0.026853  -0.026850
     5  H    0.372038  -0.003636  -0.000022  -0.026853   0.472379  -0.026867
     6  H    0.372027  -0.003614  -0.000024  -0.026850  -0.026867   0.472381
          Atomic-Atomic Spin Densities.
               1          2          3          4          5          6
     1  C    0.787715  -0.024922   0.017103  -0.007836  -0.007845  -0.007855
     2  F   -0.024922   0.092695  -0.090434   0.000251   0.000250   0.000247
     3  Cl   0.017103  -0.090434   0.436983  -0.000190  -0.000192  -0.000193
     4  H   -0.007836   0.000251  -0.000190  -0.027074   0.001167   0.001168
     5  H   -0.007845   0.000250  -0.000192   0.001167  -0.027057   0.001169
     6  H   -0.007855   0.000247  -0.000193   0.001168   0.001169  -0.027037
 Mulliken charges and spin densities:
               1          2
     1  C   -0.409263   0.756360
     2  F   -0.283470  -0.021914
     3  Cl   0.053868   0.363077
     4  H    0.212957  -0.032515
     5  H    0.212961  -0.032507
     6  H    0.212948  -0.032501
 Sum of Mulliken charges =  -0.00000   1.00000
 Mulliken charges and spin densities with hydrogens summed into heavy atoms:
               1          2
     1  C    0.229603   0.658837
     2  F   -0.283470  -0.021914
     3  Cl   0.053868   0.363077
 Electronic spatial extent (au):  <R**2>=            381.9439
 Charge=              0.0000 electrons
 Dipole moment (field-independent basis, Debye):
    X=             -2.9650    Y=             -0.0061    Z=              0.0001  Tot=              2.9650
 Quadrupole moment (field-independent basis, Debye-Ang):
   XX=            -17.4359   YY=            -24.1124   ZZ=            -24.1132
   XY=              0.0002   XZ=              0.0001   YZ=             -0.0001
 Traceless Quadrupole moment (field-independent basis, Debye-Ang):
   XX=              4.4513   YY=             -2.2252   ZZ=             -2.2260
   XY=              0.0002   XZ=              0.0001   YZ=             -0.0001
 Octapole moment (field-independent basis, Debye-Ang**2):
  XXX=             -7.4252  YYY=              0.3378  ZZZ=              0.9168  XYY=             -2.2453
  XXY=              0.0030  XXZ=             -0.0012  XZZ=             -2.2408  YZZ=             -0.3044
  YYZ=             -0.9161  XYZ=              0.0034
 Hexadecapole moment (field-independent basis, Debye-Ang**3):
 XXXX=           -392.3587 YYYY=            -29.4035 ZZZZ=            -29.3992 XXXY=             -0.1241
 XXXZ=              0.0044 YYYX=             -0.7964 YYYZ=              0.0074 ZZZX=             -2.3193
 ZZZY=             -0.0027 XXYY=            -73.5109 XXZZ=            -73.5289 YYZZ=             -9.7984
 XXYZ=             -0.0166 YYXZ=              2.3190 ZZXY=              0.7899
 N-N= 9.559993256080D+01 E-N=-1.616447305638D+03  KE= 5.981310967453D+02
                          Isotropic Fermi Contact Couplings
        Atom                 a.u.       MegaHertz       Gauss      10(-4) cm-1
     1  C(13)              0.11624     130.67088      46.62662      43.58711
     2  F(19)              0.53098    2234.06496     797.16993     745.20386
     3  Cl(35)             0.12188      53.43841      19.06815      17.82514
     4  H(1)              -0.01061     -47.40459     -16.91514     -15.81247
     5  H(1)              -0.01060     -47.37582     -16.90487     -15.80287
     6  H(1)              -0.01059     -47.33947     -16.89190     -15.79075
 --------------------------------------------------------
       Center         ----  Spin Dipole Couplings  ----
                      3XX-RR        3YY-RR        3ZZ-RR
 --------------------------------------------------------
     1   Atom        0.770416     -0.385208     -0.385209
     2   Atom       -0.158153      0.079146      0.079007
     3   Atom        2.278008     -1.139023     -1.138985
     4   Atom       -0.003122      0.017135     -0.014013
     5   Atom       -0.003092     -0.049048      0.052140
     6   Atom       -0.003033      0.036566     -0.033533
 --------------------------------------------------------
                        XY            XZ            YZ
 --------------------------------------------------------
     1   Atom        0.003633     -0.000281      0.000005
     2   Atom       -0.010692     -0.000255      0.000002
     3   Atom        0.002870      0.000214     -0.000001
     4   Atom        0.006434      0.004593      0.049458
     5   Atom        0.001032     -0.007928     -0.011320
     6   Atom       -0.007466      0.003339     -0.038173
 --------------------------------------------------------


 ---------------------------------------------------------------------------------
              Anisotropic Spin Dipole Couplings in Principal Axis System
 ---------------------------------------------------------------------------------

       Atom             a.u.   MegaHertz   Gauss  10(-4) cm-1        Axes

              Baa    -0.3852   -51.693   -18.445   -17.243 -0.0029  0.9039 -0.4277
     1 C(13)  Bbb    -0.3852   -51.691   -18.445   -17.242 -0.0011  0.4277  0.9039
              Bcc     0.7704   103.384    36.890    34.485  1.0000  0.0031 -0.0002
 
              Baa    -0.1586   -79.670   -28.428   -26.575  0.9990  0.0449  0.0011
     2 F(19)  Bbb     0.0790    39.679    14.159    13.236 -0.0001 -0.0211  0.9998
              Bcc     0.0796    39.991    14.270    13.339 -0.0449  0.9988  0.0211
 
              Baa    -1.1390   -59.614   -21.272   -19.885 -0.0008  0.9997  0.0246
     3 Cl(35) Bbb    -1.1390   -59.612   -21.271   -19.884 -0.0000 -0.0246  0.9997
              Bcc     2.2780   119.226    42.543    39.769  1.0000  0.0008  0.0001
 
              Baa    -0.0503   -26.833    -9.575    -8.951  0.0022 -0.5916  0.8062
     4 H(1)   Bbb    -0.0042    -2.244    -0.801    -0.749  0.9907 -0.1083 -0.0822
              Bcc     0.0545    29.078    10.376     9.699  0.1359  0.7989  0.5859
 
              Baa    -0.0503   -26.838    -9.576    -8.952 -0.0033  0.9940  0.1096
     5 H(1)   Bbb    -0.0042    -2.241    -0.800    -0.748  0.9905 -0.0118  0.1370
              Bcc     0.0545    29.079    10.376     9.700 -0.1375 -0.1090  0.9845
 
              Baa    -0.0503   -26.841    -9.578    -8.953 -0.0011  0.4022  0.9155
     6 H(1)   Bbb    -0.0042    -2.238    -0.799    -0.747  0.9900  0.1293 -0.0556
              Bcc     0.0545    29.080    10.376     9.700 -0.1407  0.9064 -0.3984
 

 ---------------------------------------------------------------------------------

 No NMR shielding tensors so no spin-rotation constants.
 Leave Link  601 at Wed Oct  7 16:08:48 2020, MaxMem=  2684354560 cpu:               7.3 elap:               1.0
 (Enter /udrive/faculty/rpeverati/g16/g16/l701.exe)
 ... and contract with generalized density number  0.
 Compute integral first derivatives.
 Leave Link  701 at Wed Oct  7 16:08:49 2020, MaxMem=  2684354560 cpu:               4.8 elap:               0.8
 (Enter /udrive/faculty/rpeverati/g16/g16/l702.exe)
 L702 exits ... SP integral derivatives will be done elsewhere.
 Leave Link  702 at Wed Oct  7 16:08:50 2020, MaxMem=  2684354560 cpu:               2.1 elap:               0.6
 (Enter /udrive/faculty/rpeverati/g16/g16/l703.exe)
 Integral derivatives from FoFJK, PRISM(SPDF).
 Compute integral first derivatives, UseDBF=F ICtDFT=           0.
 Calling FoFJK, ICntrl=      2527 FMM=F ISym2X=0 I1Cent= 0 IOpClX= 0 NMat=1 NMatS=1 NMatT=0.
 FoFJK:  IHMeth= 1 ICntrl=    2527 DoSepK=F KAlg= 0 I1Cent=           0 FoldK=F
 IRaf=         0 NMat=       1 IRICut=       1 DoRegI=T DoRafI=F ISym2E= 0 IDoP0=0 IntGTp=1.
 FoFCou: FMM=F IPFlag=           0 FMFlag=      100000 FMFlg1=         800
         NFxFlg=           0 DoJE=F BraDBF=F KetDBF=F FulRan=T
         wScrn=  0.000000 ICntrl=      2527 IOpCl=  0 I1Cent=           0 NGrid=           0
         NMat0=    1 NMatS0=      1 NMatT0=    0 NMatD0=    1 NMtDS0=    0 NMtDT0=    0
 Symmetry not used in FoFCou.
 Leave Link  703 at Wed Oct  7 16:08:52 2020, MaxMem=  2684354560 cpu:              14.8 elap:               1.7
 (Enter /udrive/faculty/rpeverati/g16/g16/l716.exe)
 Dipole        =-1.16650458D+00-2.40425526D-03 2.47954812D-05
 ***** Axes restored to original set *****
 -------------------------------------------------------------------
 Center     Atomic                   Forces (Hartrees/Bohr)
 Number     Number              X              Y              Z
 -------------------------------------------------------------------
      1        6           0.000068164   -0.000013315    0.009613192
      2        9          -0.000201090    0.000003291   -0.032787329
      3       17           0.000177821    0.000000544    0.025499305
      4        1           0.007332835    0.005280587   -0.000784868
      5        1           0.000889942   -0.009023507   -0.000777679
      6        1          -0.008267672    0.003752400   -0.000762621
 -------------------------------------------------------------------
 Cartesian Forces:  Max     0.032787329 RMS     0.010712977
 Leave Link  716 at Wed Oct  7 16:08:52 2020, MaxMem=  2684354560 cpu:               2.7 elap:               0.6
 (Enter /udrive/faculty/rpeverati/g16/g16/l103.exe)

 GradGradGradGradGradGradGradGradGradGradGradGradGradGradGradGradGradGrad
 Berny optimization.
 Optmz: redundant internal coordinate code flag= 1
 FormGI is forming the generalized inverse of G from B-inverse, IUseBI=4.
 Internal  Forces:  Max     0.019429613 RMS     0.006834938
 Numerically estimating second derivatives.
 Iteration  1 RMS(Cart)=  0.00073493 RMS(Int)=  0.00068042
 Iteration  2 RMS(Cart)=  0.00000000 RMS(Int)=  0.00068042
 Largest change from initial coordinates is atom    2       0.000 Angstoms.
 GradGradGradGradGradGradGradGradGradGradGradGradGradGradGradGradGradGrad

 Leave Link  103 at Wed Oct  7 16:08:53 2020, MaxMem=  2684354560 cpu:               2.6 elap:               0.5
 (Enter /udrive/faculty/rpeverati/g16/g16/l202.exe)
                          Input orientation:                          
 ---------------------------------------------------------------------
 Center     Atomic      Atomic             Coordinates (Angstroms)
 Number     Number       Type             X           Y           Z
 ---------------------------------------------------------------------
      1          6           0        0.000000    0.000000    0.000441
      2          9           0       -0.000003   -0.000001    2.062521
      3         17           0        0.011702    0.000001    3.841712
      4          1           0        0.871013    0.624757   -0.110082
      5          1           0        0.105810   -1.066670   -0.109801
      6          1           0       -0.976600    0.441650   -0.110473
 ---------------------------------------------------------------------
                    Distance matrix (angstroms):
                    1          2          3          4          5
     1  C    0.000000
     2  F    2.062080   0.000000
     3  Cl   3.841288   1.779229   0.000000
     4  H    1.077590   2.422643   4.092116   0.000000
     5  H    1.077559   2.422387   4.094031   1.856465   0.000000
     6  H    1.077546   2.422954   4.097751   1.856665   1.856513
                    6
     6  H    0.000000
 Stoichiometry    CH3ClF(2)
 Framework group  C1[X(CH3ClF)]
 Deg. of freedom    12
 Full point group                 C1      NOp   1
 RotChk:  IX=0 Diff= 1.86D-04
 Largest Abelian subgroup         C1      NOp   1
 Largest concise Abelian subgroup C1      NOp   1
                         Standard orientation:                         
 ---------------------------------------------------------------------
 Center     Atomic      Atomic             Coordinates (Angstroms)
 Number     Number       Type             X           Y           Z
 ---------------------------------------------------------------------
      1          6           0       -2.386538   -0.002148   -0.000036
      2          9           0       -0.324469    0.004627    0.000043
      3         17           0        1.454750   -0.001235   -0.000018
      4          1           0       -2.494199   -0.866779   -0.634089
      5          1           0       -2.496435   -0.119736    1.065435
      6          1           0       -2.500658    0.978757   -0.431207
 ---------------------------------------------------------------------
 Rotational constants (GHZ):         145.4642151           3.0836619           3.0836438
 Leave Link  202 at Wed Oct  7 16:08:54 2020, MaxMem=  2684354560 cpu:               1.3 elap:               0.4
 (Enter /udrive/faculty/rpeverati/g16/g16/l301.exe)
 Standard basis: 6-31G(d) (5D, 7F)
 Ernie: Thresh=  0.10000D-02 Tol=  0.10000D-05 Strict=F.
 There are    55 symmetry adapted cartesian basis functions of A   symmetry.
 There are    52 symmetry adapted basis functions of A   symmetry.
    52 basis functions,   120 primitive gaussians,    55 cartesian basis functions
    18 alpha electrons       17 beta electrons
       nuclear repulsion energy        95.5976525759 Hartrees.
 IExCor= 1009 DFT=T Ex=PBE Corr=PBE ExCW=0 ScaHFX=  0.000000
 ScaDFX=  1.000000  1.000000  1.000000  1.000000 ScalE2=  1.000000  1.000000
 IRadAn=      5 IRanWt=     -1 IRanGd=            0 ICorTp=0 IEmpDi=  4
 NAtoms=    6 NActive=    6 NUniq=    6 SFac= 1.00D+00 NAtFMM=   60 NAOKFM=F Big=F
 Integral buffers will be    131072 words long.
 Raffenetti 2 integral format.
 Two-electron integral symmetry is turned on.
 Leave Link  301 at Wed Oct  7 16:08:54 2020, MaxMem=  2684354560 cpu:               2.2 elap:               0.4
 (Enter /udrive/faculty/rpeverati/g16/g16/l302.exe)
 NPDir=0 NMtPBC=     1 NCelOv=     1 NCel=       1 NClECP=     1 NCelD=      1
         NCelK=      1 NCelE2=     1 NClLst=     1 CellRange=     0.0.
 One-electron integrals computed using PRISM.
 One-electron integral symmetry used in STVInt
 NBasis=    52 RedAO= T EigKep=  2.47D-02  NBF=    52
 NBsUse=    52 1.00D-06 EigRej= -1.00D+00 NBFU=    52
 Precomputing XC quadrature grid using
 IXCGrd= 4 IRadAn=           5 IRanWt=          -1 IRanGd=           0 AccXCQ= 0.00D+00.
 Generated NRdTot=       0 NPtTot=           0 NUsed=           0 NTot=          32
 NSgBfM=    55    55    55    55    55 MxSgAt=     6 MxSgA2=     6.
 Leave Link  302 at Wed Oct  7 16:08:55 2020, MaxMem=  2684354560 cpu:               4.3 elap:               0.6
 (Enter /udrive/faculty/rpeverati/g16/g16/l303.exe)
 DipDrv:  MaxL=1.
 Leave Link  303 at Wed Oct  7 16:08:56 2020, MaxMem=  2684354560 cpu:               1.7 elap:               0.5
 (Enter /udrive/faculty/rpeverati/g16/g16/l401.exe)
 Initial guess from the checkpoint file:  "MN_21_ch3fclts_BH76_PBE_631Gs.chk"
 SCF N**3 symmetry information disabled.
 B after Tr=    -0.000000   -0.000000    0.000000
         Rot=    1.000000    0.000066    0.000000   -0.000001 Ang=   0.01 deg.
 Guess basis will be translated and rotated to current coordinates.
 JPrj=2 DoOrth=T DoCkMO=T.
 Initial guess <Sx>= 0.0000 <Sy>= 0.0000 <Sz>= 0.5000 <S**2>= 0.7557 S= 0.5029
 Generating alternative initial guess.
 ExpMin= 1.43D-01 ExpMax= 2.52D+04 ExpMxC= 3.78D+03 IAcc=2 IRadAn=         4 AccDes= 0.00D+00
 Harris functional with IExCor= 1009 and IRadAn=       4 diagonalized for initial guess.
 HarFok:  IExCor= 1009 AccDes= 0.00D+00 IRadAn=         4 IDoV= 1 UseB2=F ITyADJ=14
 ICtDFT=  3500011 ScaDFX=  1.000000  1.000000  1.000000  1.000000
 FoFCou: FMM=F IPFlag=           0 FMFlag=      100000 FMFlg1=           0
         NFxFlg=           0 DoJE=T BraDBF=F KetDBF=T FulRan=T
         wScrn=  0.000000 ICntrl=       500 IOpCl=  0 I1Cent=   200000004 NGrid=           0
         NMat0=    1 NMatS0=      1 NMatT0=    0 NMatD0=    1 NMtDS0=    0 NMtDT0=    0
 Petite list used in FoFCou.
 Harris En= -599.384998176017    
 Leave Link  401 at Wed Oct  7 16:08:57 2020, MaxMem=  2684354560 cpu:               7.7 elap:               1.0
 (Enter /udrive/faculty/rpeverati/g16/g16/l502.exe)
 Keep J ints in memory in canonical form, NReq=11457752.
 FoFCou: FMM=F IPFlag=           0 FMFlag=           0 FMFlg1=           0
         NFxFlg=           0 DoJE=F BraDBF=F KetDBF=F FulRan=T
         wScrn=  0.000000 ICntrl=       600 IOpCl=  0 I1Cent=           0 NGrid=           0
         NMat0=    1 NMatS0=   1378 NMatT0=    0 NMatD0=    1 NMtDS0=    0 NMtDT0=    0
 Symmetry not used in FoFCou.
 Two-electron integral symmetry not used.
 UHF open shell SCF:
 Using DIIS extrapolation, IDIIS=  1040.
 NGot=  2684354560 LenX=  2683396960 LenY=  2683393494
 Requested convergence on RMS density matrix=1.00D-08 within 120 cycles.
 Requested convergence on MAX density matrix=1.00D-06.
 Requested convergence on             energy=1.00D-06.
 No special actions if energy rises.
 Integral accuracy reduced to 1.0D-05 until final iterations.

 Cycle   1  Pass 0  IDiag  1:
 E= -599.426877632638    
 DIIS: error= 5.87D-05 at cycle   1 NSaved=   1.
 NSaved= 1 IEnMin= 1 EnMin= -599.426877632638     IErMin= 1 ErrMin= 5.87D-05
 ErrMax= 5.87D-05  0.00D+00 EMaxC= 1.00D-01 BMatC= 1.00D-06 BMatP= 1.00D-06
 IDIUse=1 WtCom= 1.00D+00 WtEn= 0.00D+00
 Coeff-Com:  0.100D+01
 Coeff:      0.100D+01
 Gap=     0.432 Goal=   None    Shift=    0.000
 Gap=     0.488 Goal=   None    Shift=    0.000
 RMSDP=4.81D-05 MaxDP=1.17D-03              OVMax= 2.41D-03

 Cycle   2  Pass 0  IDiag  1:
 E= -599.426877609625     Delta-E=        0.000000023013 Rises=F Damp=F
 DIIS: error= 9.96D-05 at cycle   2 NSaved=   2.
 NSaved= 2 IEnMin= 1 EnMin= -599.426877632638     IErMin= 1 ErrMin= 5.87D-05
 ErrMax= 9.96D-05  0.00D+00 EMaxC= 1.00D-01 BMatC= 1.88D-06 BMatP= 1.00D-06
 IDIUse=1 WtCom= 1.00D+00 WtEn= 0.00D+00
 Coeff-Com:  0.657D+00 0.343D+00
 Coeff:      0.657D+00 0.343D+00
 Gap=     0.098 Goal=   None    Shift=    0.000
 Gap=     0.069 Goal=   None    Shift=    0.000
 RMSDP=3.20D-05 MaxDP=8.14D-04 DE= 2.30D-08 OVMax= 1.61D-03

 Cycle   3  Pass 0  IDiag  1:
 E= -599.426878185142     Delta-E=       -0.000000575517 Rises=F Damp=F
 DIIS: error= 5.65D-05 at cycle   3 NSaved=   3.
 NSaved= 3 IEnMin= 3 EnMin= -599.426878185142     IErMin= 3 ErrMin= 5.65D-05
 ErrMax= 5.65D-05  0.00D+00 EMaxC= 1.00D-01 BMatC= 4.91D-07 BMatP= 1.00D-06
 IDIUse=1 WtCom= 1.00D+00 WtEn= 0.00D+00
 Coeff-Com:  0.192D-01 0.328D+00 0.653D+00
 Coeff:      0.192D-01 0.328D+00 0.653D+00
 Gap=     0.098 Goal=   None    Shift=    0.000
 Gap=     0.069 Goal=   None    Shift=    0.000
 RMSDP=1.06D-05 MaxDP=3.00D-04 DE=-5.76D-07 OVMax= 5.32D-04

 Cycle   4  Pass 0  IDiag  1:
 E= -599.426878367071     Delta-E=       -0.000000181929 Rises=F Damp=F
 DIIS: error= 5.36D-06 at cycle   4 NSaved=   4.
 NSaved= 4 IEnMin= 4 EnMin= -599.426878367071     IErMin= 4 ErrMin= 5.36D-06
 ErrMax= 5.36D-06  0.00D+00 EMaxC= 1.00D-01 BMatC= 6.38D-09 BMatP= 4.91D-07
 IDIUse=1 WtCom= 1.00D+00 WtEn= 0.00D+00
 Coeff-Com: -0.507D-02 0.106D+00 0.208D+00 0.691D+00
 Coeff:     -0.507D-02 0.106D+00 0.208D+00 0.691D+00
 Gap=     0.098 Goal=   None    Shift=    0.000
 Gap=     0.069 Goal=   None    Shift=    0.000
 RMSDP=1.56D-06 MaxDP=3.87D-05 DE=-1.82D-07 OVMax= 6.07D-05

 Initial convergence to 1.0D-05 achieved.  Increase integral accuracy.
 Cycle   5  Pass 1  IDiag  1:
 E= -599.426817582401     Delta-E=        0.000060784670 Rises=F Damp=F
 DIIS: error= 1.08D-05 at cycle   1 NSaved=   1.
 NSaved= 1 IEnMin= 1 EnMin= -599.426817582401     IErMin= 1 ErrMin= 1.08D-05
 ErrMax= 1.08D-05  0.00D+00 EMaxC= 1.00D-01 BMatC= 3.90D-08 BMatP= 3.90D-08
 IDIUse=1 WtCom= 1.00D+00 WtEn= 0.00D+00
 Coeff-Com:  0.100D+01
 Coeff:      0.100D+01
 Gap=     0.098 Goal=   None    Shift=    0.000
 Gap=     0.069 Goal=   None    Shift=    0.000
 RMSDP=1.56D-06 MaxDP=3.87D-05 DE= 6.08D-05 OVMax= 6.63D-05

 Cycle   6  Pass 1  IDiag  1:
 E= -599.426817585649     Delta-E=       -0.000000003248 Rises=F Damp=F
 DIIS: error= 1.09D-05 at cycle   2 NSaved=   2.
 NSaved= 2 IEnMin= 2 EnMin= -599.426817585649     IErMin= 1 ErrMin= 1.08D-05
 ErrMax= 1.09D-05  0.00D+00 EMaxC= 1.00D-01 BMatC= 3.57D-08 BMatP= 3.90D-08
 IDIUse=1 WtCom= 1.00D+00 WtEn= 0.00D+00
 Coeff-Com:  0.486D+00 0.514D+00
 Coeff:      0.486D+00 0.514D+00
 Gap=     0.098 Goal=   None    Shift=    0.000
 Gap=     0.069 Goal=   None    Shift=    0.000
 RMSDP=3.94D-06 MaxDP=8.43D-05 DE=-3.25D-09 OVMax= 1.82D-04

 Cycle   7  Pass 1  IDiag  1:
 E= -599.426817587808     Delta-E=       -0.000000002159 Rises=F Damp=F
 DIIS: error= 9.54D-06 at cycle   3 NSaved=   3.
 NSaved= 3 IEnMin= 3 EnMin= -599.426817587808     IErMin= 3 ErrMin= 9.54D-06
 ErrMax= 9.54D-06  0.00D+00 EMaxC= 1.00D-01 BMatC= 2.46D-08 BMatP= 3.57D-08
 IDIUse=1 WtCom= 1.00D+00 WtEn= 0.00D+00
 Coeff-Com:  0.177D+00 0.423D+00 0.400D+00
 Coeff:      0.177D+00 0.423D+00 0.400D+00
 Gap=     0.098 Goal=   None    Shift=    0.000
 Gap=     0.069 Goal=   None    Shift=    0.000
 RMSDP=2.55D-06 MaxDP=6.05D-05 DE=-2.16D-09 OVMax= 1.32D-04

 Cycle   8  Pass 1  IDiag  1:
 E= -599.426817594355     Delta-E=       -0.000000006546 Rises=F Damp=F
 DIIS: error= 4.61D-06 at cycle   4 NSaved=   4.
 NSaved= 4 IEnMin= 4 EnMin= -599.426817594355     IErMin= 4 ErrMin= 4.61D-06
 ErrMax= 4.61D-06  0.00D+00 EMaxC= 1.00D-01 BMatC= 2.20D-09 BMatP= 2.46D-08
 IDIUse=1 WtCom= 1.00D+00 WtEn= 0.00D+00
 Coeff-Com:  0.411D-01 0.199D+00 0.272D+00 0.488D+00
 Coeff:      0.411D-01 0.199D+00 0.272D+00 0.488D+00
 Gap=     0.098 Goal=   None    Shift=    0.000
 Gap=     0.069 Goal=   None    Shift=    0.000
 RMSDP=8.41D-07 MaxDP=2.14D-05 DE=-6.55D-09 OVMax= 4.02D-05

 Cycle   9  Pass 1  IDiag  1:
 E= -599.426817594946     Delta-E=       -0.000000000591 Rises=F Damp=F
 DIIS: error= 1.61D-06 at cycle   5 NSaved=   5.
 NSaved= 5 IEnMin= 5 EnMin= -599.426817594946     IErMin= 5 ErrMin= 1.61D-06
 ErrMax= 1.61D-06  0.00D+00 EMaxC= 1.00D-01 BMatC= 6.38D-10 BMatP= 2.20D-09
 IDIUse=1 WtCom= 1.00D+00 WtEn= 0.00D+00
 Coeff-Com:  0.857D-02 0.104D+00 0.165D+00 0.369D+00 0.353D+00
 Coeff:      0.857D-02 0.104D+00 0.165D+00 0.369D+00 0.353D+00
 Gap=     0.098 Goal=   None    Shift=    0.000
 Gap=     0.069 Goal=   None    Shift=    0.000
 RMSDP=3.31D-07 MaxDP=9.75D-06 DE=-5.91D-10 OVMax= 1.32D-05

 Cycle  10  Pass 1  IDiag  1:
 E= -599.426817595114     Delta-E=       -0.000000000168 Rises=F Damp=F
 DIIS: error= 3.00D-07 at cycle   6 NSaved=   6.
 NSaved= 6 IEnMin= 6 EnMin= -599.426817595114     IErMin= 6 ErrMin= 3.00D-07
 ErrMax= 3.00D-07  0.00D+00 EMaxC= 1.00D-01 BMatC= 1.92D-11 BMatP= 6.38D-10
 IDIUse=1 WtCom= 1.00D+00 WtEn= 0.00D+00
 Coeff-Com:  0.315D-03 0.242D-01 0.435D-01 0.964D-01 0.186D+00 0.649D+00
 Coeff:      0.315D-03 0.242D-01 0.435D-01 0.964D-01 0.186D+00 0.649D+00
 Gap=     0.098 Goal=   None    Shift=    0.000
 Gap=     0.069 Goal=   None    Shift=    0.000
 RMSDP=7.51D-08 MaxDP=2.24D-06 DE=-1.68D-10 OVMax= 3.57D-06

 Cycle  11  Pass 1  IDiag  1:
 E= -599.426817595122     Delta-E=       -0.000000000008 Rises=F Damp=F
 DIIS: error= 3.52D-08 at cycle   7 NSaved=   7.
 NSaved= 7 IEnMin= 7 EnMin= -599.426817595122     IErMin= 7 ErrMin= 3.52D-08
 ErrMax= 3.52D-08  0.00D+00 EMaxC= 1.00D-01 BMatC= 3.36D-13 BMatP= 1.92D-11
 IDIUse=1 WtCom= 1.00D+00 WtEn= 0.00D+00
 Coeff-Com: -0.544D-03-0.372D-02-0.798D-02-0.122D-01-0.995D-02 0.510D-01
 Coeff-Com:  0.983D+00
 Coeff:     -0.544D-03-0.372D-02-0.798D-02-0.122D-01-0.995D-02 0.510D-01
 Coeff:      0.983D+00
 Gap=     0.098 Goal=   None    Shift=    0.000
 Gap=     0.069 Goal=   None    Shift=    0.000
 RMSDP=7.07D-09 MaxDP=1.64D-07 DE=-7.96D-12 OVMax= 2.63D-07

 SCF Done:  E(UPBE-PBE) =  -599.426817595     A.U. after   11 cycles
            NFock= 11  Conv=0.71D-08     -V/T= 2.0022
 <Sx>= 0.0000 <Sy>= 0.0000 <Sz>= 0.5000 <S**2>= 0.7557 S= 0.5029
 <L.S>= 0.000000000000E+00
 KE= 5.981308288109D+02 PE=-1.616445298054D+03 EE= 3.232899990722D+02
 Annihilation of the first spin contaminant:
 S**2 before annihilation     0.7557,   after     0.7500
 Leave Link  502 at Wed Oct  7 16:09:01 2020, MaxMem=  2684354560 cpu:              35.9 elap:               3.5
 (Enter /udrive/faculty/rpeverati/g16/g16/l508.exe)
 QCSCF skips out because SCF is already converged.
 Leave Link  508 at Wed Oct  7 16:09:01 2020, MaxMem=  2684354560 cpu:               0.0 elap:               0.3
 (Enter /udrive/faculty/rpeverati/g16/g16/l701.exe)
 ... and contract with generalized density number  0.
 Compute integral first derivatives.
 Leave Link  701 at Wed Oct  7 16:09:02 2020, MaxMem=  2684354560 cpu:               4.9 elap:               0.8
 (Enter /udrive/faculty/rpeverati/g16/g16/l702.exe)
 L702 exits ... SP integral derivatives will be done elsewhere.
 Leave Link  702 at Wed Oct  7 16:09:03 2020, MaxMem=  2684354560 cpu:               1.7 elap:               0.6
 (Enter /udrive/faculty/rpeverati/g16/g16/l703.exe)
 Integral derivatives from FoFJK, PRISM(SPDF).
 Compute integral first derivatives, UseDBF=F ICtDFT=           0.
 Calling FoFJK, ICntrl=      2527 FMM=F ISym2X=0 I1Cent= 0 IOpClX= 0 NMat=1 NMatS=1 NMatT=0.
 FoFJK:  IHMeth= 1 ICntrl=    2527 DoSepK=F KAlg= 0 I1Cent=           0 FoldK=F
 IRaf=         0 NMat=       1 IRICut=       1 DoRegI=T DoRafI=F ISym2E= 0 IDoP0=0 IntGTp=1.
 FoFCou: FMM=F IPFlag=           0 FMFlag=      100000 FMFlg1=         800
         NFxFlg=           0 DoJE=F BraDBF=F KetDBF=F FulRan=T
         wScrn=  0.000000 ICntrl=      2527 IOpCl=  0 I1Cent=           0 NGrid=           0
         NMat0=    1 NMatS0=      1 NMatT0=    0 NMatD0=    1 NMtDS0=    0 NMtDT0=    0
 Symmetry not used in FoFCou.
 Leave Link  703 at Wed Oct  7 16:09:05 2020, MaxMem=  2684354560 cpu:              15.0 elap:               1.8
 (Enter /udrive/faculty/rpeverati/g16/g16/l716.exe)
 Dipole        =-1.17072890D+00-2.40827610D-03 2.42894140D-05
 ***** Axes restored to original set *****
 -------------------------------------------------------------------
 Center     Atomic                   Forces (Hartrees/Bohr)
 Number     Number              X              Y              Z
 -------------------------------------------------------------------
      1        6           0.000068713   -0.000013312    0.009782617
      2        9          -0.000201868    0.000003259   -0.032868451
      3       17           0.000178067    0.000000592    0.025482182
      4        1           0.007329736    0.005278354   -0.000808740
      5        1           0.000889582   -0.009019738   -0.000801456
      6        1          -0.008264231    0.003750845   -0.000786152
 -------------------------------------------------------------------
 Cartesian Forces:  Max     0.032868451 RMS     0.010732783
 Leave Link  716 at Wed Oct  7 16:09:06 2020, MaxMem=  2684354560 cpu:               1.4 elap:               0.7
 (Enter /udrive/faculty/rpeverati/g16/g16/l103.exe)

 GradGradGradGradGradGradGradGradGradGradGradGradGradGradGradGradGradGrad
 Berny optimization.
 Optmz: redundant internal coordinate code flag= 1
 Red2BG:  D1=  2.40D-01 OD1=  9.01D-04 B2RMS=  0.00D+00 IAprox=0
 FormGI is forming the generalized inverse of G from B-inverse, IUseBI=4.
 Internal  Forces:  Max     0.019450949 RMS     0.006842573
 Numerically estimating second derivatives.
 Iteration  1 RMS(Cart)=  0.00073494 RMS(Int)=  0.00068041
 Iteration  2 RMS(Cart)=  0.00000000 RMS(Int)=  0.00068041
 Largest change from initial coordinates is atom    3       0.000 Angstoms.
 GradGradGradGradGradGradGradGradGradGradGradGradGradGradGradGradGradGrad

 Leave Link  103 at Wed Oct  7 16:09:07 2020, MaxMem=  2684354560 cpu:               2.7 elap:               0.7
 (Enter /udrive/faculty/rpeverati/g16/g16/l202.exe)
                          Input orientation:                          
 ---------------------------------------------------------------------
 Center     Atomic      Atomic             Coordinates (Angstroms)
 Number     Number       Type             X           Y           Z
 ---------------------------------------------------------------------
      1          6           0       -0.000001    0.000000   -0.000441
      2          9           0        0.000003   -0.000001    2.064285
      3         17           0        0.011703    0.000001    3.843475
      4          1           0        0.871011    0.624757   -0.110967
      5          1           0        0.105809   -1.066670   -0.110683
      6          1           0       -0.976602    0.441650   -0.111352
 ---------------------------------------------------------------------
                    Distance matrix (angstroms):
                    1          2          3          4          5
     1  C    0.000000
     2  F    2.064726   0.000000
     3  Cl   3.843934   1.779229   0.000000
     4  H    1.077590   2.425016   4.094673   0.000000
     5  H    1.077559   2.424760   4.096585   1.856465   0.000000
     6  H    1.077546   2.425327   4.100300   1.856665   1.856513
                    6
     6  H    0.000000
 Stoichiometry    CH3ClF(2)
 Framework group  C1[X(CH3ClF)]
 Deg. of freedom    12
 Full point group                 C1      NOp   1
 RotChk:  IX=0 Diff= 5.73D-05
 Largest Abelian subgroup         C1      NOp   1
 Largest concise Abelian subgroup C1      NOp   1
                         Standard orientation:                         
 ---------------------------------------------------------------------
 Center     Atomic      Atomic             Coordinates (Angstroms)
 Number     Number       Type             X           Y           Z
 ---------------------------------------------------------------------
      1          6           0       -2.388504   -0.002146   -0.000036
      2          9           0       -0.323789    0.004625    0.000043
      3         17           0        1.455430   -0.001236   -0.000018
      4          1           0       -2.496170   -0.866750   -0.634124
      5          1           0       -2.498401   -0.119776    1.065431
      6          1           0       -2.502618    0.978777   -0.431167
 ---------------------------------------------------------------------
 Rotational constants (GHZ):         145.4642263           3.0798771           3.0798591
 Leave Link  202 at Wed Oct  7 16:09:08 2020, MaxMem=  2684354560 cpu:               1.5 elap:               0.4
 (Enter /udrive/faculty/rpeverati/g16/g16/l301.exe)
 Standard basis: 6-31G(d) (5D, 7F)
 Ernie: Thresh=  0.10000D-02 Tol=  0.10000D-05 Strict=F.
 There are    55 symmetry adapted cartesian basis functions of A   symmetry.
 There are    52 symmetry adapted basis functions of A   symmetry.
    52 basis functions,   120 primitive gaussians,    55 cartesian basis functions
    18 alpha electrons       17 beta electrons
       nuclear repulsion energy        95.5603432472 Hartrees.
 IExCor= 1009 DFT=T Ex=PBE Corr=PBE ExCW=0 ScaHFX=  0.000000
 ScaDFX=  1.000000  1.000000  1.000000  1.000000 ScalE2=  1.000000  1.000000
 IRadAn=      5 IRanWt=     -1 IRanGd=            0 ICorTp=0 IEmpDi=  4
 NAtoms=    6 NActive=    6 NUniq=    6 SFac= 1.00D+00 NAtFMM=   60 NAOKFM=F Big=F
 Integral buffers will be    131072 words long.
 Raffenetti 2 integral format.
 Two-electron integral symmetry is turned on.
 Leave Link  301 at Wed Oct  7 16:09:09 2020, MaxMem=  2684354560 cpu:               3.2 elap:               0.7
 (Enter /udrive/faculty/rpeverati/g16/g16/l302.exe)
 NPDir=0 NMtPBC=     1 NCelOv=     1 NCel=       1 NClECP=     1 NCelD=      1
         NCelK=      1 NCelE2=     1 NClLst=     1 CellRange=     0.0.
 One-electron integrals computed using PRISM.
 One-electron integral symmetry used in STVInt
 NBasis=    52 RedAO= T EigKep=  2.48D-02  NBF=    52
 NBsUse=    52 1.00D-06 EigRej= -1.00D+00 NBFU=    52
 Precomputing XC quadrature grid using
 IXCGrd= 4 IRadAn=           5 IRanWt=          -1 IRanGd=           0 AccXCQ= 0.00D+00.
 Generated NRdTot=       0 NPtTot=           0 NUsed=           0 NTot=          32
 NSgBfM=    55    55    55    55    55 MxSgAt=     6 MxSgA2=     6.
 Leave Link  302 at Wed Oct  7 16:09:10 2020, MaxMem=  2684354560 cpu:               4.2 elap:               0.7
 (Enter /udrive/faculty/rpeverati/g16/g16/l303.exe)
 DipDrv:  MaxL=1.
 Leave Link  303 at Wed Oct  7 16:09:10 2020, MaxMem=  2684354560 cpu:               2.3 elap:               0.7
 (Enter /udrive/faculty/rpeverati/g16/g16/l401.exe)
 Initial guess from the checkpoint file:  "MN_21_ch3fclts_BH76_PBE_631Gs.chk"
 SCF N**3 symmetry information disabled.
 B after Tr=    -0.000000    0.000000    0.000000
         Rot=    1.000000   -0.000020   -0.000000    0.000001 Ang=  -0.00 deg.
 Guess basis will be translated and rotated to current coordinates.
 JPrj=2 DoOrth=T DoCkMO=T.
 Initial guess <Sx>= 0.0000 <Sy>= 0.0000 <Sz>= 0.5000 <S**2>= 0.7557 S= 0.5029
 Generating alternative initial guess.
 ExpMin= 1.43D-01 ExpMax= 2.52D+04 ExpMxC= 3.78D+03 IAcc=2 IRadAn=         4 AccDes= 0.00D+00
 Harris functional with IExCor= 1009 and IRadAn=       4 diagonalized for initial guess.
 HarFok:  IExCor= 1009 AccDes= 0.00D+00 IRadAn=         4 IDoV= 1 UseB2=F ITyADJ=14
 ICtDFT=  3500011 ScaDFX=  1.000000  1.000000  1.000000  1.000000
 FoFCou: FMM=F IPFlag=           0 FMFlag=      100000 FMFlg1=           0
         NFxFlg=           0 DoJE=T BraDBF=F KetDBF=T FulRan=T
         wScrn=  0.000000 ICntrl=       500 IOpCl=  0 I1Cent=   200000004 NGrid=           0
         NMat0=    1 NMatS0=      1 NMatT0=    0 NMatD0=    1 NMtDS0=    0 NMtDT0=    0
 Petite list used in FoFCou.
 Harris En= -599.385024255850    
 Leave Link  401 at Wed Oct  7 16:09:12 2020, MaxMem=  2684354560 cpu:               7.6 elap:               1.0
 (Enter /udrive/faculty/rpeverati/g16/g16/l502.exe)
 Keep J ints in memory in canonical form, NReq=11457752.
 FoFCou: FMM=F IPFlag=           0 FMFlag=           0 FMFlg1=           0
         NFxFlg=           0 DoJE=F BraDBF=F KetDBF=F FulRan=T
         wScrn=  0.000000 ICntrl=       600 IOpCl=  0 I1Cent=           0 NGrid=           0
         NMat0=    1 NMatS0=   1378 NMatT0=    0 NMatD0=    1 NMtDS0=    0 NMtDT0=    0
 Symmetry not used in FoFCou.
 Two-electron integral symmetry not used.
 UHF open shell SCF:
 Using DIIS extrapolation, IDIIS=  1040.
 NGot=  2684354560 LenX=  2683396960 LenY=  2683393494
 Requested convergence on RMS density matrix=1.00D-08 within 120 cycles.
 Requested convergence on MAX density matrix=1.00D-06.
 Requested convergence on             energy=1.00D-06.
 No special actions if energy rises.
 Integral accuracy reduced to 1.0D-05 until final iterations.

 Cycle   1  Pass 0  IDiag  1:
 E= -599.426840871261    
 DIIS: error= 9.27D-05 at cycle   1 NSaved=   1.
 NSaved= 1 IEnMin= 1 EnMin= -599.426840871261     IErMin= 1 ErrMin= 9.27D-05
 ErrMax= 9.27D-05  0.00D+00 EMaxC= 1.00D-01 BMatC= 7.75D-07 BMatP= 7.75D-07
 IDIUse=1 WtCom= 1.00D+00 WtEn= 0.00D+00
 Coeff-Com:  0.100D+01
 Coeff:      0.100D+01
 Gap=     0.432 Goal=   None    Shift=    0.000
 Gap=     0.487 Goal=   None    Shift=    0.000
 RMSDP=3.86D-05 MaxDP=8.75D-04              OVMax= 1.89D-03

 Cycle   2  Pass 0  IDiag  1:
 E= -599.426841030038     Delta-E=       -0.000000158777 Rises=F Damp=F
 DIIS: error= 7.79D-05 at cycle   2 NSaved=   2.
 NSaved= 2 IEnMin= 2 EnMin= -599.426841030038     IErMin= 2 ErrMin= 7.79D-05
 ErrMax= 7.79D-05  0.00D+00 EMaxC= 1.00D-01 BMatC= 1.25D-06 BMatP= 7.75D-07
 IDIUse=1 WtCom= 1.00D+00 WtEn= 0.00D+00
 Coeff-Com:  0.612D+00 0.388D+00
 Coeff:      0.612D+00 0.388D+00
 Gap=     0.098 Goal=   None    Shift=    0.000
 Gap=     0.069 Goal=   None    Shift=    0.000
 RMSDP=2.48D-05 MaxDP=5.73D-04 DE=-1.59D-07 OVMax= 1.28D-03

 Cycle   3  Pass 0  IDiag  1:
 E= -599.426841269981     Delta-E=       -0.000000239943 Rises=F Damp=F
 DIIS: error= 5.23D-05 at cycle   3 NSaved=   3.
 NSaved= 3 IEnMin= 3 EnMin= -599.426841269981     IErMin= 3 ErrMin= 5.23D-05
 ErrMax= 5.23D-05  0.00D+00 EMaxC= 1.00D-01 BMatC= 4.89D-07 BMatP= 7.75D-07
 IDIUse=1 WtCom= 1.00D+00 WtEn= 0.00D+00
 Coeff-Com:  0.432D-01 0.366D+00 0.591D+00
 Coeff:      0.432D-01 0.366D+00 0.591D+00
 Gap=     0.098 Goal=   None    Shift=    0.000
 Gap=     0.069 Goal=   None    Shift=    0.000
 RMSDP=1.29D-05 MaxDP=3.57D-04 DE=-2.40D-07 OVMax= 6.47D-04

 Cycle   4  Pass 0  IDiag  1:
 E= -599.426841426820     Delta-E=       -0.000000156839 Rises=F Damp=F
 DIIS: error= 1.48D-05 at cycle   4 NSaved=   4.
 NSaved= 4 IEnMin= 4 EnMin= -599.426841426820     IErMin= 4 ErrMin= 1.48D-05
 ErrMax= 1.48D-05  0.00D+00 EMaxC= 1.00D-01 BMatC= 5.98D-08 BMatP= 4.89D-07
 IDIUse=1 WtCom= 1.00D+00 WtEn= 0.00D+00
 Coeff-Com: -0.817D-02 0.224D+00 0.403D+00 0.382D+00
 Coeff:     -0.817D-02 0.224D+00 0.403D+00 0.382D+00
 Gap=     0.098 Goal=   None    Shift=    0.000
 Gap=     0.069 Goal=   None    Shift=    0.000
 RMSDP=3.40D-06 MaxDP=9.35D-05 DE=-1.57D-07 OVMax= 1.34D-04

 Initial convergence to 1.0D-05 achieved.  Increase integral accuracy.
 Cycle   5  Pass 1  IDiag  1:
 E= -599.426780633052     Delta-E=        0.000060793769 Rises=F Damp=F
 DIIS: error= 1.12D-05 at cycle   1 NSaved=   1.
 NSaved= 1 IEnMin= 1 EnMin= -599.426780633052     IErMin= 1 ErrMin= 1.12D-05
 ErrMax= 1.12D-05  0.00D+00 EMaxC= 1.00D-01 BMatC= 3.92D-08 BMatP= 3.92D-08
 IDIUse=1 WtCom= 1.00D+00 WtEn= 0.00D+00
 Coeff-Com:  0.100D+01
 Coeff:      0.100D+01
 Gap=     0.098 Goal=   None    Shift=    0.000
 Gap=     0.069 Goal=   None    Shift=    0.000
 RMSDP=3.40D-06 MaxDP=9.35D-05 DE= 6.08D-05 OVMax= 1.85D-04

 Cycle   6  Pass 1  IDiag  1:
 E= -599.426780618362     Delta-E=        0.000000014689 Rises=F Damp=F
 DIIS: error= 1.55D-05 at cycle   2 NSaved=   2.
 NSaved= 2 IEnMin= 1 EnMin= -599.426780633052     IErMin= 1 ErrMin= 1.12D-05
 ErrMax= 1.55D-05  0.00D+00 EMaxC= 1.00D-01 BMatC= 8.97D-08 BMatP= 3.92D-08
 IDIUse=1 WtCom= 1.00D+00 WtEn= 0.00D+00
 Coeff-Com:  0.625D+00 0.375D+00
 Coeff:      0.625D+00 0.375D+00
 Gap=     0.098 Goal=   None    Shift=    0.000
 Gap=     0.069 Goal=   None    Shift=    0.000
 RMSDP=5.82D-06 MaxDP=1.69D-04 DE= 1.47D-08 OVMax= 2.58D-04

 Cycle   7  Pass 1  IDiag  1:
 E= -599.426780637180     Delta-E=       -0.000000018817 Rises=F Damp=F
 DIIS: error= 1.08D-05 at cycle   3 NSaved=   3.
 NSaved= 3 IEnMin= 3 EnMin= -599.426780637180     IErMin= 3 ErrMin= 1.08D-05
 ErrMax= 1.08D-05  0.00D+00 EMaxC= 1.00D-01 BMatC= 2.33D-08 BMatP= 3.92D-08
 IDIUse=1 WtCom= 1.00D+00 WtEn= 0.00D+00
 Coeff-Com:  0.153D+00 0.318D+00 0.529D+00
 Coeff:      0.153D+00 0.318D+00 0.529D+00
 Gap=     0.098 Goal=   None    Shift=    0.000
 Gap=     0.069 Goal=   None    Shift=    0.000
 RMSDP=2.88D-06 MaxDP=7.43D-05 DE=-1.88D-08 OVMax= 1.44D-04

 Cycle   8  Pass 1  IDiag  1:
 E= -599.426780644579     Delta-E=       -0.000000007399 Rises=F Damp=F
 DIIS: error= 5.07D-06 at cycle   4 NSaved=   4.
 NSaved= 4 IEnMin= 4 EnMin= -599.426780644579     IErMin= 4 ErrMin= 5.07D-06
 ErrMax= 5.07D-06  0.00D+00 EMaxC= 1.00D-01 BMatC= 3.56D-09 BMatP= 2.33D-08
 IDIUse=1 WtCom= 1.00D+00 WtEn= 0.00D+00
 Coeff-Com:  0.491D-01 0.187D+00 0.381D+00 0.383D+00
 Coeff:      0.491D-01 0.187D+00 0.381D+00 0.383D+00
 Gap=     0.098 Goal=   None    Shift=    0.000
 Gap=     0.069 Goal=   None    Shift=    0.000
 RMSDP=8.29D-07 MaxDP=2.08D-05 DE=-7.40D-09 OVMax= 4.19D-05

 Cycle   9  Pass 1  IDiag  1:
 E= -599.426780645542     Delta-E=       -0.000000000964 Rises=F Damp=F
 DIIS: error= 1.76D-06 at cycle   5 NSaved=   5.
 NSaved= 5 IEnMin= 5 EnMin= -599.426780645542     IErMin= 5 ErrMin= 1.76D-06
 ErrMax= 1.76D-06  0.00D+00 EMaxC= 1.00D-01 BMatC= 5.01D-10 BMatP= 3.56D-09
 IDIUse=1 WtCom= 1.00D+00 WtEn= 0.00D+00
 Coeff-Com:  0.672D-02 0.764D-01 0.191D+00 0.277D+00 0.449D+00
 Coeff:      0.672D-02 0.764D-01 0.191D+00 0.277D+00 0.449D+00
 Gap=     0.098 Goal=   None    Shift=    0.000
 Gap=     0.069 Goal=   None    Shift=    0.000
 RMSDP=2.37D-07 MaxDP=4.11D-06 DE=-9.64D-10 OVMax= 9.52D-06

 Cycle  10  Pass 1  IDiag  1:
 E= -599.426780645647     Delta-E=       -0.000000000105 Rises=F Damp=F
 DIIS: error= 2.50D-07 at cycle   6 NSaved=   6.
 NSaved= 6 IEnMin= 6 EnMin= -599.426780645647     IErMin= 6 ErrMin= 2.50D-07
 ErrMax= 2.50D-07  0.00D+00 EMaxC= 1.00D-01 BMatC= 1.34D-11 BMatP= 5.01D-10
 IDIUse=1 WtCom= 1.00D+00 WtEn= 0.00D+00
 Coeff-Com: -0.325D-03 0.150D-01 0.523D-01 0.675D-01 0.178D+00 0.687D+00
 Coeff:     -0.325D-03 0.150D-01 0.523D-01 0.675D-01 0.178D+00 0.687D+00
 Gap=     0.098 Goal=   None    Shift=    0.000
 Gap=     0.069 Goal=   None    Shift=    0.000
 RMSDP=5.52D-08 MaxDP=1.07D-06 DE=-1.05D-10 OVMax= 2.64D-06

 Cycle  11  Pass 1  IDiag  1:
 E= -599.426780645652     Delta-E=       -0.000000000005 Rises=F Damp=F
 DIIS: error= 4.34D-08 at cycle   7 NSaved=   7.
 NSaved= 7 IEnMin= 7 EnMin= -599.426780645652     IErMin= 7 ErrMin= 4.34D-08
 ErrMax= 4.34D-08  0.00D+00 EMaxC= 1.00D-01 BMatC= 2.18D-13 BMatP= 1.34D-11
 IDIUse=1 WtCom= 1.00D+00 WtEn= 0.00D+00
 Coeff-Com: -0.719D-03-0.626D-02-0.149D-01-0.243D-01-0.320D-01-0.114D-01
 Coeff-Com:  0.109D+01
 Coeff:     -0.719D-03-0.626D-02-0.149D-01-0.243D-01-0.320D-01-0.114D-01
 Coeff:      0.109D+01
 Gap=     0.098 Goal=   None    Shift=    0.000
 Gap=     0.069 Goal=   None    Shift=    0.000
 RMSDP=9.83D-09 MaxDP=2.38D-07 DE=-4.66D-12 OVMax= 3.81D-07

 SCF Done:  E(UPBE-PBE) =  -599.426780646     A.U. after   11 cycles
            NFock= 11  Conv=0.98D-08     -V/T= 2.0022
 <Sx>= 0.0000 <Sy>= 0.0000 <Sz>= 0.5000 <S**2>= 0.7557 S= 0.5029
 <L.S>= 0.000000000000E+00
 KE= 5.981297507830D+02 PE=-1.616368532597D+03 EE= 3.232516579210D+02
 Annihilation of the first spin contaminant:
 S**2 before annihilation     0.7557,   after     0.7500
 Leave Link  502 at Wed Oct  7 16:09:16 2020, MaxMem=  2684354560 cpu:              37.8 elap:               3.7
 (Enter /udrive/faculty/rpeverati/g16/g16/l508.exe)
 QCSCF skips out because SCF is already converged.
 Leave Link  508 at Wed Oct  7 16:09:16 2020, MaxMem=  2684354560 cpu:               0.5 elap:               0.5
 (Enter /udrive/faculty/rpeverati/g16/g16/l701.exe)
 ... and contract with generalized density number  0.
 Compute integral first derivatives.
 Leave Link  701 at Wed Oct  7 16:09:17 2020, MaxMem=  2684354560 cpu:               4.2 elap:               0.7
 (Enter /udrive/faculty/rpeverati/g16/g16/l702.exe)
 L702 exits ... SP integral derivatives will be done elsewhere.
 Leave Link  702 at Wed Oct  7 16:09:18 2020, MaxMem=  2684354560 cpu:               1.3 elap:               0.4
 (Enter /udrive/faculty/rpeverati/g16/g16/l703.exe)
 Integral derivatives from FoFJK, PRISM(SPDF).
 Compute integral first derivatives, UseDBF=F ICtDFT=           0.
 Calling FoFJK, ICntrl=      2527 FMM=F ISym2X=0 I1Cent= 0 IOpClX= 0 NMat=1 NMatS=1 NMatT=0.
 FoFJK:  IHMeth= 1 ICntrl=    2527 DoSepK=F KAlg= 0 I1Cent=           0 FoldK=F
 IRaf=         0 NMat=       1 IRICut=       1 DoRegI=T DoRafI=F ISym2E= 0 IDoP0=0 IntGTp=1.
 FoFCou: FMM=F IPFlag=           0 FMFlag=      100000 FMFlg1=         800
         NFxFlg=           0 DoJE=F BraDBF=F KetDBF=F FulRan=T
         wScrn=  0.000000 ICntrl=      2527 IOpCl=  0 I1Cent=           0 NGrid=           0
         NMat0=    1 NMatS0=      1 NMatT0=    0 NMatD0=    1 NMtDS0=    0 NMtDT0=    0
 Symmetry not used in FoFCou.
 Leave Link  703 at Wed Oct  7 16:09:19 2020, MaxMem=  2684354560 cpu:              14.2 elap:               1.4
 (Enter /udrive/faculty/rpeverati/g16/g16/l716.exe)
 Dipole        =-1.16822073D+00-2.40707857D-03 2.44697013D-05
 ***** Axes restored to original set *****
 -------------------------------------------------------------------
 Center     Atomic                   Forces (Hartrees/Bohr)
 Number     Number              X              Y              Z
 -------------------------------------------------------------------
      1        6           0.000068198   -0.000013291    0.009686289
      2        9          -0.000198909    0.000003255   -0.032566457
      3       17           0.000175608    0.000000573    0.025173172
      4        1           0.007335021    0.005282162   -0.000774135
      5        1           0.000890202   -0.009026206   -0.000766950
      6        1          -0.008270120    0.003753507   -0.000751919
 -------------------------------------------------------------------
 Cartesian Forces:  Max     0.032566457 RMS     0.010636330
 Leave Link  716 at Wed Oct  7 16:09:20 2020, MaxMem=  2684354560 cpu:               1.2 elap:               0.5
 (Enter /udrive/faculty/rpeverati/g16/g16/l103.exe)

 GradGradGradGradGradGradGradGradGradGradGradGradGradGradGradGradGradGrad
 Berny optimization.
 Optmz: redundant internal coordinate code flag= 1
 Red2BG:  D1=  2.40D-01 OD1=  1.14D-03 B2RMS=  0.00D+00 IAprox=0
 FormGI is forming the generalized inverse of G from B-inverse, IUseBI=4.
 Internal  Forces:  Max     0.019247270 RMS     0.006795349
 Numerically estimating second derivatives.
 Iteration  1 RMS(Cart)=  0.00055557 RMS(Int)=  0.00068041
 Iteration  2 RMS(Cart)=  0.00000001 RMS(Int)=  0.00068041
 Largest change from initial coordinates is atom    2       0.001 Angstoms.
 GradGradGradGradGradGradGradGradGradGradGradGradGradGradGradGradGradGrad

 Leave Link  103 at Wed Oct  7 16:09:21 2020, MaxMem=  2684354560 cpu:               2.8 elap:               0.7
 (Enter /udrive/faculty/rpeverati/g16/g16/l202.exe)
                          Input orientation:                          
 ---------------------------------------------------------------------
 Center     Atomic      Atomic             Coordinates (Angstroms)
 Number     Number       Type             X           Y           Z
 ---------------------------------------------------------------------
      1          6           0       -0.000000   -0.000000    0.000000
      2          9           0       -0.000008    0.000001    2.062962
      3         17           0        0.011710   -0.000001    3.843034
      4          1           0        0.871012    0.624757   -0.110522
      5          1           0        0.105810   -1.066670   -0.110240
      6          1           0       -0.976601    0.441650   -0.110917
 ---------------------------------------------------------------------
                    Distance matrix (angstroms):
                    1          2          3          4          5
     1  C    0.000000
     2  F    2.062962   0.000000
     3  Cl   3.843052   1.780111   0.000000
     4  H    1.077590   2.423434   4.093817   0.000000
     5  H    1.077559   2.423178   4.095732   1.856465   0.000000
     6  H    1.077546   2.423745   4.099457   1.856665   1.856513
                    6
     6  H    0.000000
 Stoichiometry    CH3ClF(2)
 Framework group  C1[X(CH3ClF)]
 Deg. of freedom    12
 Full point group                 C1      NOp   1
 RotChk:  IX=0 Diff= 2.49D-04
 Largest Abelian subgroup         C1      NOp   1
 Largest concise Abelian subgroup C1      NOp   1
                         Standard orientation:                         
 ---------------------------------------------------------------------
 Center     Atomic      Atomic             Coordinates (Angstroms)
 Number     Number       Type             X           Y           Z
 ---------------------------------------------------------------------
      1          6           0       -2.387622   -0.002151   -0.000035
      2          9           0       -0.324671    0.004633    0.000041
      3         17           0        1.455430   -0.001237   -0.000018
      4          1           0       -2.495281   -0.866645   -0.634275
      5          1           0       -2.497516   -0.119970    1.065411
      6          1           0       -2.501746    0.978847   -0.430994
 ---------------------------------------------------------------------
 Rotational constants (GHZ):         145.4641507           3.0808561           3.0808381
 Leave Link  202 at Wed Oct  7 16:09:22 2020, MaxMem=  2684354560 cpu:               1.5 elap:               0.4
 (Enter /udrive/faculty/rpeverati/g16/g16/l301.exe)
 Standard basis: 6-31G(d) (5D, 7F)
 Ernie: Thresh=  0.10000D-02 Tol=  0.10000D-05 Strict=F.
 There are    55 symmetry adapted cartesian basis functions of A   symmetry.
 There are    52 symmetry adapted basis functions of A   symmetry.
    52 basis functions,   120 primitive gaussians,    55 cartesian basis functions
    18 alpha electrons       17 beta electrons
       nuclear repulsion energy        95.5580679706 Hartrees.
 IExCor= 1009 DFT=T Ex=PBE Corr=PBE ExCW=0 ScaHFX=  0.000000
 ScaDFX=  1.000000  1.000000  1.000000  1.000000 ScalE2=  1.000000  1.000000
 IRadAn=      5 IRanWt=     -1 IRanGd=            0 ICorTp=0 IEmpDi=  4
 NAtoms=    6 NActive=    6 NUniq=    6 SFac= 1.00D+00 NAtFMM=   60 NAOKFM=F Big=F
 Integral buffers will be    131072 words long.
 Raffenetti 2 integral format.
 Two-electron integral symmetry is turned on.
 Leave Link  301 at Wed Oct  7 16:09:23 2020, MaxMem=  2684354560 cpu:               2.8 elap:               0.6
 (Enter /udrive/faculty/rpeverati/g16/g16/l302.exe)
[...]
   6         R6         0.49053   0.65479   0.00511  -0.01658  -0.00244
   7         A1         0.13068  -0.09646  -0.03391  -0.00545   0.00004
   8         A2         0.34500  -0.25183   0.03629  -0.05850   0.00002
   9         A3        -0.57227   0.43809   0.01438   0.00631  -0.00003
  10         A4        -0.02697   0.00337  -0.31140  -0.75368  -0.00004
  11         A5         0.00050  -0.00418   0.80833   0.10870   0.00002
  12         A6         0.02495   0.00226  -0.49690   0.64514   0.00002
  13         A7        -0.00341  -0.00274   0.00064   0.00035   0.00034
  14         A8        -0.03535  -0.03619   0.00064  -0.00217  -0.00003
  15         D1        -0.35270   0.25777   0.00056  -0.00236  -0.00007
  16         D2        -0.17730   0.13972  -0.00047   0.00142   0.00004
  17         D3        -0.06967   0.03690   0.00070  -0.00224  -0.00001
  18         D4         0.10764  -0.10281   0.00117  -0.00366  -0.00005
                          11        12
     Eigenvalues --     0.36296   0.36318
   1         R1         0.00288  -0.00391
   2         R2        -0.00285   0.00407
   3         R3        -0.17220  -0.50444
   4         R4         0.76414  -0.61034
   5         R5        -0.62155  -0.61072
   6         R6         0.01003  -0.00461
   7         A1        -0.00025  -0.00001
   8         A2        -0.00018  -0.00006
   9         A3         0.00006  -0.00010
  10         A4         0.00013   0.00004
  11         A5        -0.00004  -0.00009
  12         A6        -0.00010   0.00005
  13         A7        -0.00104   0.00008
  14         A8        -0.00064   0.00096
  15         D1         0.00040   0.00004
  16         D2        -0.00026  -0.00007
  17         D3         0.00018   0.00012
  18         D4         0.00044   0.00019
 RLam0= 6.88D-04.
 Iter=   1 RLamda= 0.00000000D+00 Sum=-4.82385639D-07.
 Iter=   2 RLamda=-4.82385639D-07 Sum=-4.82313345D-07.
 RFO step:  Lambda0=6.882752294D-04 Lambda=-4.82385639D-07.
 Linear search not attempted -- option 19 set.
 Maximum step size (   0.100) exceeded in Quadratic search.
    -- Step size scaled by   0.144
 Iteration  1 RMS(Cart)=  0.01934578 RMS(Int)=  0.00001117
 Iteration  2 RMS(Cart)=  0.00000646 RMS(Int)=  0.00000026
 Iteration  3 RMS(Cart)=  0.00000000 RMS(Int)=  0.00000026
 ITry= 1 IFail=0 DXMaxC= 4.79D-02 DCOld= 1.00D+10 DXMaxT= 1.00D-01 DXLimC= 3.00D+00 Rises=F
 Variable       Old X    -DE/DX   Delta X   Delta X   Delta X     New X
                                 (Linear)    (Quad)   (Total)
    R1        6.91966  -0.00078   0.00000   0.07129   0.07129   6.99095
    R2       10.07770  -0.00061   0.00000   0.06969   0.06969  10.14739
    R3        2.06047   0.00001   0.00000   0.00001   0.00001   2.06047
    R4        2.06045   0.00001   0.00000   0.00001   0.00001   2.06046
    R5        2.06051   0.00001   0.00000   0.00000   0.00000   2.06052
    R6        3.18069   0.00017   0.00000  -0.00154  -0.00154   3.17915
    A1        1.47756  -0.00001   0.00000  -0.00378  -0.00378   1.47378
    A2        1.57519   0.00001   0.00000   0.00076   0.00076   1.57595
    A3        1.64554  -0.00001   0.00000   0.00319   0.00319   1.64872
    A4        2.09435  -0.00000   0.00000   0.00000   0.00000   2.09435
    A5        2.09436   0.00000   0.00000   0.00000   0.00000   2.09436
    A6        2.09436   0.00000   0.00000  -0.00000  -0.00000   2.09436
    A7        3.17208   0.00000   0.00000   0.00061   0.00061   3.17268
    A8        2.61381   0.00007   0.00000  -0.00568  -0.00568   2.60813
    D1       -1.46564  -0.00000   0.00000   0.00392   0.00392  -1.46171
    D2        1.50618  -0.00001   0.00000  -0.00253  -0.00254   1.50364
    D3       -1.61913  -0.00001   0.00000  -0.00274  -0.00274  -1.62187
    D4       -3.12531   0.00000   0.00000  -0.00020  -0.00020  -3.12551
         Item               Value     Threshold  Converged?
 Maximum Force            0.000780     0.000450     NO 
 RMS     Force            0.000237     0.000300     YES
 Maximum Displacement     0.047902     0.001800     NO 
 RMS     Displacement     0.019346     0.001200     NO 
 Predicted change in Energy= 9.508722D-05
 Optimization stopped.
    -- Number of steps exceeded,  NStep=  50
    -- Flag reset to prevent archiving.
                           ----------------------------
                           ! Non-Optimized Parameters !
                           ! (Angstroms and Degrees)  !
 --------------------------                            --------------------------
 ! Name  Definition              Value          Derivative Info.                !
 --------------------------------------------------------------------------------
 ! R1    R(1,2)                  3.6995         -DE/DX =   -0.0008              !
 ! R2    R(1,3)                  5.3698         -DE/DX =   -0.0006              !
 ! R3    R(1,4)                  1.0904         -DE/DX =    0.0                 !
 ! R4    R(1,5)                  1.0903         -DE/DX =    0.0                 !
 ! R5    R(1,6)                  1.0904         -DE/DX =    0.0                 !
 ! R6    R(2,3)                  1.6823         -DE/DX =    0.0002              !
 ! A1    A(2,1,4)               84.4416         -DE/DX =    0.0                 !
 ! A2    A(2,1,5)               90.2955         -DE/DX =    0.0                 !
 ! A3    A(2,1,6)               94.4649         -DE/DX =    0.0                 !
 ! A4    A(4,1,5)              119.9974         -DE/DX =    0.0                 !
 ! A5    A(4,1,6)              119.998          -DE/DX =    0.0                 !
 ! A6    A(5,1,6)              119.9981         -DE/DX =    0.0                 !
 ! A7    L(1,2,3,5,-1)         181.7814         -DE/DX =    0.0                 !
 ! A8    L(1,2,3,5,-2)         149.4346         -DE/DX =    0.0001              !
 ! D1    D(2,1,5,4)            -83.75           -DE/DX =    0.0                 !
 ! D2    D(2,1,6,4)             86.1523         -DE/DX =    0.0                 !
 ! D3    D(2,1,6,5)            -92.9263         -DE/DX =    0.0                 !
 ! D4    D(4,1,6,5)           -179.0787         -DE/DX =    0.0                 !
 --------------------------------------------------------------------------------
 Largest change from initial coordinates is atom    6       1.333 Angstoms.
 GradGradGradGradGradGradGradGradGradGradGradGradGradGradGradGradGradGrad

 Leave Link  103 at Wed Oct  7 16:22:13 2020, MaxMem=  2684354560 cpu:               2.3 elap:               0.5
 (Enter /udrive/faculty/rpeverati/g16/g16/l202.exe)
                          Input orientation:                          
 ---------------------------------------------------------------------
 Center     Atomic      Atomic             Coordinates (Angstroms)
 Number     Number       Type             X           Y           Z
 ---------------------------------------------------------------------
      1          6           0       -0.003774    0.002808   -0.572206
      2          9           0       -0.072496   -0.056185    3.088399
      3         17           0        0.101284    0.045203    4.759480
      4          1           0        0.874907    0.635535   -0.443969
      5          1           0        0.103904   -1.082015   -0.592462
      6          1           0       -0.991902    0.454391   -0.664924
 ---------------------------------------------------------------------
                    Distance matrix (angstroms):
                    1          2          3          4          5
     1  C    0.000000
     2  F    3.661725   0.000000
     3  Cl   5.332890   1.683149   0.000000
     4  H    1.090352   3.722052   5.293662   0.000000
     5  H    1.090343   3.825203   5.469361   1.888511   0.000000
     6  H    1.090376   3.897875   5.548572   1.888547   1.888540
                    6
     6  H    0.000000
 Stoichiometry    CH3ClF(2)
 Framework group  C1[X(CH3ClF)]
 Deg. of freedom    12
 Full point group                 C1      NOp   1
 RotChk:  IX=3 Diff= 4.72D-13
 Largest Abelian subgroup         C1      NOp   1
 Largest concise Abelian subgroup C1      NOp   1
                         Standard orientation:                         
 ---------------------------------------------------------------------
 Center     Atomic      Atomic             Coordinates (Angstroms)
 Number     Number       Type             X           Y           Z
 ---------------------------------------------------------------------
      1          6           0       -3.531297   -0.043866    0.003783
      2          9           0        0.126600    0.123186   -0.006801
      3         17           0        1.801592   -0.042114    0.001637
      4          1           0       -3.380399   -1.123661   -0.008009
      5          1           0       -3.557846    0.492518    0.952695
      6          1           0       -3.640427    0.501609   -0.934017
 ---------------------------------------------------------------------
 Rotational constants (GHZ):         128.3298752           1.6809376           1.6789916
 Leave Link  202 at Wed Oct  7 16:22:13 2020, MaxMem=  2684354560 cpu:               1.0 elap:               0.3
 (Enter /udrive/faculty/rpeverati/g16/g16/l601.exe)
 Copying SCF densities to generalized density rwf, IOpCl= 1 IROHF=0.

 **********************************************************************

            Population analysis using the SCF density.

 **********************************************************************

 Orbital symmetries:
 Alpha Orbitals:
       Occupied  (A) (A) (A) (A) (A) (A) (A) (A) (A) (A) (A) (A)
                 (A) (A) (A) (A) (A) (A)
       Virtual   (A) (A) (A) (A) (A) (A) (A) (A) (A) (A) (A) (A)
                 (A) (A) (A) (A) (A) (A) (A) (A) (A) (A) (A) (A)
                 (A) (A) (A) (A) (A) (A) (A) (A) (A) (A)
 Beta  Orbitals:
       Occupied  (A) (A) (A) (A) (A) (A) (A) (A) (A) (A) (A) (A)
                 (A) (A) (A) (A) (A)
       Virtual   (A) (A) (A) (A) (A) (A) (A) (A) (A) (A) (A) (A)
                 (A) (A) (A) (A) (A) (A) (A) (A) (A) (A) (A) (A)
                 (A) (A) (A) (A) (A) (A) (A) (A) (A) (A) (A)
 The electronic state is 2-A.
 Alpha  occ. eigenvalues -- -100.72830 -24.30138  -9.90014  -9.23713  -7.06999
 Alpha  occ. eigenvalues --   -7.04819  -7.04819  -1.10116  -0.75077  -0.61199
 Alpha  occ. eigenvalues --   -0.46843  -0.38838  -0.38837  -0.36799  -0.36793
 Alpha  occ. eigenvalues --   -0.27012  -0.27011  -0.18589
 Alpha virt. eigenvalues --   -0.15682   0.08797   0.15247   0.15260   0.30439
 Alpha virt. eigenvalues --    0.35843   0.39800   0.39801   0.49396   0.51177
 Alpha virt. eigenvalues --    0.51186   0.64274   0.68948   0.68948   0.76750
 Alpha virt. eigenvalues --    0.76750   0.83524   0.85500   0.85508   0.91016
 Alpha virt. eigenvalues --    1.19022   1.19049   1.19666   1.57402   1.57403
 Alpha virt. eigenvalues --    1.66773   1.76719   1.76719   1.83291   1.83292
 Alpha virt. eigenvalues --    1.92486   2.09800   2.09805   2.36296
  Beta  occ. eigenvalues -- -100.72820 -24.30120  -9.88647  -9.23703  -7.06972
  Beta  occ. eigenvalues --   -7.04812  -7.04812  -1.10070  -0.75016  -0.57742
  Beta  occ. eigenvalues --   -0.46771  -0.38814  -0.38813  -0.35804  -0.35798
  Beta  occ. eigenvalues --   -0.26985  -0.26985
  Beta virt. eigenvalues --   -0.15658  -0.08347   0.10512   0.15889   0.15901
  Beta virt. eigenvalues --    0.30476   0.35911   0.39819   0.39820   0.52347
  Beta virt. eigenvalues --    0.52357   0.57085   0.67321   0.69026   0.69026
  Beta virt. eigenvalues --    0.76774   0.76774   0.83638   0.85993   0.86001
  Beta virt. eigenvalues --    0.94527   1.19052   1.19072   1.19873   1.65105
  Beta virt. eigenvalues --    1.65106   1.66813   1.76725   1.76725   1.83317
  Beta virt. eigenvalues --    1.83319   2.02974   2.11021   2.11026   2.36341
          Condensed to atoms (all electrons):
               1          2          3          4          5          6
     1  C    5.371258   0.001240   0.000219   0.378056   0.377975   0.377916
     2  F    0.001240   9.196805   0.077008   0.000013  -0.000003  -0.000005
     3  Cl   0.000219   0.077008  16.667871   0.000001   0.000000   0.000000
     4  H    0.378056   0.000013   0.000001   0.503058  -0.028531  -0.028562
     5  H    0.377975  -0.000003   0.000000  -0.028531   0.503638  -0.028626
     6  H    0.377916  -0.000005   0.000000  -0.028562  -0.028626   0.503967
          Atomic-Atomic Spin Densities.
               1          2          3          4          5          6
     1  C    1.157961   0.000737   0.000233  -0.008863  -0.008846  -0.008838
     2  F    0.000737   0.011950  -0.008598   0.000000   0.000000   0.000000
     3  Cl   0.000233  -0.008598   0.025216   0.000000   0.000000   0.000000
     4  H   -0.008863   0.000000   0.000000  -0.044558   0.001158   0.001159
     5  H   -0.008846   0.000000   0.000000   0.001158  -0.044581   0.001160
     6  H   -0.008838   0.000000   0.000000   0.001159   0.001160  -0.044595
 Mulliken charges and spin densities:
               1          2
     1  C   -0.506664   1.132385
     2  F   -0.275057   0.004091
     3  Cl   0.254900   0.016851
     4  H    0.175965  -0.051104
     5  H    0.175547  -0.051108
     6  H    0.175310  -0.051114
 Sum of Mulliken charges =  -0.00000   1.00000
 Mulliken charges and spin densities with hydrogens summed into heavy atoms:
               1          2
     1  C    0.020157   0.979058
     2  F   -0.275057   0.004091
     3  Cl   0.254900   0.016851
 Electronic spatial extent (au):  <R**2>=            662.9162
 Charge=             -0.0000 electrons
 Dipole moment (field-independent basis, Debye):
    X=              0.3887    Y=             -0.0886    Z=              0.0045  Tot=              0.3987
 Quadrupole moment (field-independent basis, Debye-Ang):
   XX=            -21.0894   YY=            -24.1396   ZZ=            -24.1274
   XY=             -0.4617   XZ=              0.0822   YZ=              0.0093
 Traceless Quadrupole moment (field-independent basis, Debye-Ang):
   XX=              2.0294   YY=             -1.0208   ZZ=             -1.0086
   XY=             -0.4617   XZ=              0.0822   YZ=              0.0093
 Octapole moment (field-independent basis, Debye-Ang**2):
  XXX=             30.8434  YYY=             -0.0498  ZZZ=             -0.0175  XYY=              1.4439
  XXY=              1.0039  XXZ=             -0.4892  XZZ=              1.0513  YZZ=              1.1408
  YYZ=             -0.0335  XYZ=             -0.0017
 Hexadecapole moment (field-independent basis, Debye-Ang**3):
 XXXX=           -849.4819 YYYY=            -30.2761 ZZZZ=            -29.8711 XXXY=            -12.0224
 XXXZ=              3.0013 YYYX=              2.5056 YYYZ=              0.0086 ZZZX=              0.0181
 ZZZY=              0.0177 XXYY=           -137.6759 XXZZ=           -135.6986 YYZZ=            -10.1249
 XXYZ=             -0.1462 YYXZ=              0.1008 ZZXY=             -3.2268
 N-N= 8.431639952664D+01 E-N=-1.592936405156D+03  KE= 5.980216955188D+02
                          Isotropic Fermi Contact Couplings
        Atom                 a.u.       MegaHertz       Gauss      10(-4) cm-1
     1  C(13)              0.13751     154.58519      55.15984      51.56407
     2  F(19)              0.01710      71.94368      25.67130      23.99783
     3  Cl(35)             0.01055       4.62589       1.65063       1.54303
     4  H(1)              -0.01576     -70.44219     -25.13552     -23.49698
     5  H(1)              -0.01576     -70.45277     -25.13930     -23.50051
     6  H(1)              -0.01576     -70.45477     -25.14002     -23.50118
 --------------------------------------------------------
       Center         ----  Spin Dipole Couplings  ----
                      3XX-RR        3YY-RR        3ZZ-RR
 --------------------------------------------------------
     1   Atom        1.037360     -0.505696     -0.531664
     2   Atom        0.031225     -0.014686     -0.016539
     3   Atom        0.095952     -0.047744     -0.048209
     4   Atom       -0.003460      0.073063     -0.069604
     5   Atom       -0.006071     -0.033670      0.039741
     6   Atom       -0.004673     -0.032478      0.037152
 --------------------------------------------------------
                        XY            XZ            YZ
 --------------------------------------------------------
     1   Atom        0.213156     -0.067981     -0.009222
     2   Atom       -0.009720      0.000353     -0.000072
     3   Atom       -0.009306      0.000608     -0.000037
     4   Atom       -0.010947     -0.002951      0.001166
     5   Atom        0.006745     -0.006031      0.061409
     6   Atom        0.001228      0.009946     -0.062442
 --------------------------------------------------------


 ---------------------------------------------------------------------------------
              Anisotropic Spin Dipole Couplings in Principal Axis System
 ---------------------------------------------------------------------------------

       Atom             a.u.   MegaHertz   Gauss  10(-4) cm-1        Axes

              Baa    -0.5346   -71.739   -25.598   -23.930 -0.0368  0.5398  0.8410
     1 C(13)  Bbb    -0.5346   -71.738   -25.598   -23.929 -0.1360  0.8310 -0.5393
              Bcc     1.0692   143.477    51.196    47.859  0.9900  0.1342 -0.0428
 
              Baa    -0.0167    -8.367    -2.985    -2.791  0.1989  0.9800  0.0047
     2 F(19)  Bbb    -0.0165    -8.308    -2.964    -2.771 -0.0080 -0.0032  1.0000
              Bcc     0.0332    16.674     5.950     5.562  0.9800 -0.1989  0.0072
 
              Baa    -0.0483    -2.530    -0.903    -0.844  0.0644  0.9977 -0.0202
     3 Cl(35) Bbb    -0.0482    -2.523    -0.900    -0.842 -0.0029  0.0204  0.9998
              Bcc     0.0966     5.053     1.803     1.686  0.9979 -0.0644  0.0042
 
              Baa    -0.0697   -37.209   -13.277   -12.412  0.0437 -0.0048  0.9990
     4 H(1)   Bbb    -0.0049    -2.602    -0.929    -0.868  0.9893  0.1396 -0.0426
              Bcc     0.0746    39.811    14.206    13.280 -0.1392  0.9902  0.0109
 
              Baa    -0.0697   -37.208   -13.277   -12.411 -0.1376  0.8606 -0.4903
     5 H(1)   Bbb    -0.0049    -2.608    -0.931    -0.870  0.9902  0.1315 -0.0471
              Bcc     0.0746    39.816    14.207    13.281 -0.0239  0.4920  0.8703
 
              Baa    -0.0697   -37.205   -13.276   -12.410 -0.0939  0.8558  0.5087
     6 H(1)   Bbb    -0.0049    -2.614    -0.933    -0.872  0.9905  0.1317 -0.0387
              Bcc     0.0746    39.818    14.208    13.282  0.1001 -0.5003  0.8601
 

 ---------------------------------------------------------------------------------

 No NMR shielding tensors so no spin-rotation constants.
 Leave Link  601 at Wed Oct  7 16:22:14 2020, MaxMem=  2684354560 cpu:               6.6 elap:               0.8
 (Enter /udrive/faculty/rpeverati/g16/g16/l9999.exe)
 B after Tr=     0.057112    0.037185   -1.080510
         Rot=    0.999947   -0.004714    0.009134    0.000119 Ang=  -1.18 deg.
 Final structure in terms of initial Z-matrix:
 C
 F,1,fc2
 Cl,2,clf3,1,clfc3
 H,1,hc4,2,hcf4,3,dih4,0
 H,1,hc5,2,hcf5,3,dih5,0
 H,1,hc6,2,hcf6,3,dih6,0
      Variables:
 fc2=3.6617254
 clf3=1.68314932
 clfc3=171.73669794
 hc4=1.09035199
 hcf4=84.65793082
 dih4=-3.74728086
 hc5=1.09034273
 hcf5=90.25185199
 dih5=116.36750684
 hc6=1.09037626
 hcf6=94.28234295
 dih6=-123.5195715


 LET US PLACE AT THE END OF EVERY CHAPTER.....THE
 TWO LETTERS USED BY THE ROMAN JUDGES WHEN THEY DID
 NOT UNDERSTAND A PLEADING.
 N. L. -NON LIQUET- IT IS NOT CLEAR.
                                              -- VOLTAIRE
 Error termination request processed by link 9999.
 Error termination via Lnk1e in /udrive/faculty/rpeverati/g16/g16/l9999.exe at Wed Oct  7 16:22:15 2020.
 Job cpu time:       0 days  1 hours 15 minutes 10.9 seconds.
 Elapsed time:       0 days  0 hours 10 minutes 59.7 seconds.
 File lengths (MBytes):  RWF=      9 Int=      0 D2E=      0 Chk=      1 Scr=      1
