 Entering Gaussian System, Link 0=g16
 Input=MN_48_hcn_BH76_PBE_631Gs.in
 Output=MN_48_hcn_BH76_PBE_631Gs.log
 Initial command:
 /udrive/faculty/rpeverati/g16/g16/l1.exe "/udrive/scratch-directories/gaussian09/rpeverati/Gau-17867.inp" -scrdir="/udrive/scratch-directories/gaussian09/rpeverati/"
 Entering Link 1 = /udrive/faculty/rpeverati/g16/g16/l1.exe PID=     17879.
  
 Copyright (c) 1988,1990,1992,1993,1995,1998,2003,2009,2016,
            Gaussian, Inc.  All Rights Reserved.
  
 This is part of the Gaussian(R) 16 program.  It is based on
 the Gaussian(R) 09 system (copyright 2009, Gaussian, Inc.),
 the Gaussian(R) 03 system (copyright 2003, Gaussian, Inc.),
 the Gaussian(R) 98 system (copyright 1998, Gaussian, Inc.),
 the Gaussian(R) 94 system (copyright 1995, Gaussian, Inc.),
 the Gaussian 92(TM) system (copyright 1992, Gaussian, Inc.),
 the Gaussian 90(TM) system (copyright 1990, Gaussian, Inc.),
 the Gaussian 88(TM) system (copyright 1988, Gaussian, Inc.),
 the Gaussian 86(TM) system (copyright 1986, Carnegie Mellon
 University), and the Gaussian 82(TM) system (copyright 1983,
 Carnegie Mellon University). Gaussian is a federally registered
 trademark of Gaussian, Inc.
  
 This software contains proprietary and confidential information,
 including trade secrets, belonging to Gaussian, Inc.
  
 This software is provided under written license and may be
 used, copied, transmitted, or stored only in accord with that
 written license.
  
 The following legend is applicable only to US Government
 contracts under FAR:
  
                    RESTRICTED RIGHTS LEGEND
  
 Use, reproduction and disclosure by the US Government is
 subject to restrictions as set forth in subparagraphs (a)
 and (c) of the Commercial Computer Software - Restricted
 Rights clause in FAR 52.227-19.
  
 Gaussian, Inc.
 340 Quinnipiac St., Bldg. 40, Wallingford CT 06492
  
  
 ---------------------------------------------------------------
 Warning -- This program may not be used in any manner that
 competes with the business of Gaussian, Inc. or will provide
 assistance to any competitor of Gaussian, Inc.  The licensee
 of this program is prohibited from giving any competitor of
 Gaussian, Inc. access to this program.  By using this program,
 the user acknowledges that Gaussian, Inc. is engaged in the
 business of creating and licensing software in the field of
 computational chemistry and represents and warrants to the
 licensee that it is not a competitor of Gaussian, Inc. and that
 it will not use this program in any manner prohibited above.
 ---------------------------------------------------------------
  

 Cite this work as:
 Gaussian 16, Revision A.03,
 M. J. Frisch, G. W. Trucks, H. B. Schlegel, G. E. Scuseria, 
 M. A. Robb, J. R. Cheeseman, G. Scalmani, V. Barone, 
 G. A. Petersson, H. Nakatsuji, X. Li, M. Caricato, A. V. Marenich, 
 J. Bloino, B. G. Janesko, R. Gomperts, B. Mennucci, H. P. Hratchian, 
 J. V. Ortiz, A. F. Izmaylov, J. L. Sonnenberg, D. Williams-Young, 
 F. Ding, F. Lipparini, F. Egidi, J. Goings, B. Peng, A. Petrone, 
 T. Henderson, D. Ranasinghe, V. G. Zakrzewski, J. Gao, N. Rega, 
 G. Zheng, W. Liang, M. Hada, M. Ehara, K. Toyota, R. Fukuda, 
 J. Hasegawa, M. Ishida, T. Nakajima, Y. Honda, O. Kitao, H. Nakai, 
 T. Vreven, K. Throssell, J. A. Montgomery, Jr., J. E. Peralta, 
 F. Ogliaro, M. J. Bearpark, J. J. Heyd, E. N. Brothers, K. N. Kudin, 
 V. N. Staroverov, T. A. Keith, R. Kobayashi, J. Normand, 
 K. Raghavachari, A. P. Rendell, J. C. Burant, S. S. Iyengar, 
 J. Tomasi, M. Cossi, J. M. Millam, M. Klene, C. Adamo, R. Cammi, 
 J. W. Ochterski, R. L. Martin, K. Morokuma, O. Farkas, 
 J. B. Foresman, and D. J. Fox, Gaussian, Inc., Wallingford CT, 2016.
 
 ******************************************
 Gaussian 16:  ES64L-G16RevA.03 25-Dec-2016
                 7-Oct-2020 
 ******************************************
 %NoSave
 %nproc=12
 Will use up to   12 processors via shared memory.
 %mem=20GB
 %chk=MN_48_hcn_BH76_PBE_631Gs
 ----------------------------------------------------------------------
 #P Opt(MaxCyc=100) PBEPBE/6-31G* 5D 7F Integral=UltraFineGrid SCF=(NoS
 ymm,XQC,MaxCyc=120) IOp(1/33=1)
 ----------------------------------------------------------------------
 1/6=100,18=20,19=15,26=4,33=1,38=1/1,3;
 2/9=110,12=2,17=6,18=5,40=1/2;
 3/5=1,6=6,7=1,8=11,11=2,25=1,30=1,71=1,74=1009,75=-5/1,2,3;
 4/9=2/1;
 5/5=2,7=120,8=3,13=1,38=5/2,8;
 6/7=2,8=2,9=2,10=2,28=1/1;
 7//1,2,3,16;
 1/6=100,18=20,19=15,26=4,33=1/3(2);
 2/9=110/2;
 99//99;
 2/9=110/2;
 3/5=1,6=6,7=1,8=11,11=2,25=1,30=1,71=1,74=1009,75=-5/1,2,3;
 4/5=5,9=2,16=3,69=1/1;
 5/5=2,7=120,8=3,13=1,38=5/2,8;
 7//1,2,3,16;
 1/6=100,18=20,19=15,26=4,33=1/3(-5);
 2/9=110/2;
 6/7=2,8=2,9=2,10=2,19=2,28=1/1;
 99/9=1/99;
 Leave Link    1 at Wed Oct  7 16:09:47 2020, MaxMem=  2684354560 cpu:               6.4 elap:               0.7
 (Enter /udrive/faculty/rpeverati/g16/g16/l101.exe)
 ONIOM data not found on unit 2.
 ------------------
 TS search on BH76.
 ------------------
 TstMul:  ICh=     0
 TstMul:  Mul=     1
 TstMul:  ICh=     0
 TstMul:  Mul=     1
 Symbolic Z-matrix:
 Charge =  0 Multiplicity = 1
 C                     0.        0.       -0.50037 
 N                     0.        0.        0.65264 
 H                     0.        0.       -1.56629 
 
 RdStrC is calling ZToCFu for IStruc=1 NZ=     3.
 PrtBox:  NBox=     1 Levels=  1 BoxLen=    8.00 SMaxX=        4.19
          Shift=            0.000000            0.000000            2.959860
 Box      1 Number                   0 centers from      1 to      3:
 After GenITR:
 ITRead=  0  0  0
 MicOpt= -1 -1 -1
 ITRead=  0  0  0
 MicOpt= -1 -1 -1
 NAtoms=      3 NQM=        3 NQMF=       0 NMMI=      0 NMMIF=      0
                NMic=       0 NMicF=      0.
                    Isotopes and Nuclear Properties:
 (Nuclear quadrupole moments (NQMom) in fm**2, nuclear magnetic moments (NMagM)
  in nuclear magnetons)

  Atom         1           2           3
 IAtWgt=          12          14           1
 AtmWgt=  12.0000000  14.0030740   1.0078250
 NucSpn=           0           2           1
 AtZEff=   0.0000000   0.0000000   0.0000000
 NQMom=    0.0000000   2.0440000   0.0000000
 NMagM=    0.0000000   0.4037610   2.7928460
 AtZNuc=   6.0000000   7.0000000   1.0000000
 No MM parameters found.
 Leave Link  101 at Wed Oct  7 16:09:49 2020, MaxMem=  2684354560 cpu:              14.3 elap:               1.4
 (Enter /udrive/faculty/rpeverati/g16/g16/l103.exe)

 GradGradGradGradGradGradGradGradGradGradGradGradGradGradGradGradGradGrad
 Berny optimization.
 Optmz: redundant internal coordinate code flag= 1
 Initialization pass.
                           ----------------------------
                           !    Initial Parameters    !
                           ! (Angstroms and Degrees)  !
 --------------------------                            --------------------------
 ! Name  Definition              Value          Derivative Info.                !
 --------------------------------------------------------------------------------
 ! R1    R(1,2)                  1.153          estimate D2E/DX2                !
 ! R2    R(1,3)                  1.0659         estimate D2E/DX2                !
 ! A1    L(2,1,3,-1,-1)        180.0            estimate D2E/DX2                !
 ! A2    L(2,1,3,-2,-2)        180.0            estimate D2E/DX2                !
 --------------------------------------------------------------------------------
 Maximum allowed force set to 1.00D+20.
 Trust Radius=3.00D-01 FncErr=1.00D-07 GrdErr=1.00D-06 EigMax=2.50D+02 EigMin=1.00D-04
 Number of steps in this run=    100 maximum allowed number of steps=    100.
 GradGradGradGradGradGradGradGradGradGradGradGradGradGradGradGradGradGrad

 Leave Link  103 at Wed Oct  7 16:09:50 2020, MaxMem=  2684354560 cpu:               2.4 elap:               0.7
 (Enter /udrive/faculty/rpeverati/g16/g16/l202.exe)
                          Input orientation:                          
 ---------------------------------------------------------------------
 Center     Atomic      Atomic             Coordinates (Angstroms)
 Number     Number       Type             X           Y           Z
 ---------------------------------------------------------------------
      1          6           0        0.000000    0.000000   -0.500365
      2          7           0        0.000000    0.000000    0.652640
      3          1           0        0.000000    0.000000   -1.566290
 ---------------------------------------------------------------------
                    Distance matrix (angstroms):
                    1          2          3
     1  C    0.000000
     2  N    1.153005   0.000000
     3  H    1.065925   2.218930   0.000000
 Stoichiometry    CHN
 Framework group  C*V[C*(HCN)]
 Deg. of freedom     2
 Full point group                 C*V     NOp   4
 Largest Abelian subgroup         C2V     NOp   4
 Largest concise Abelian subgroup C1      NOp   1
                         Standard orientation:                         
 ---------------------------------------------------------------------
 Center     Atomic      Atomic             Coordinates (Angstroms)
 Number     Number       Type             X           Y           Z
 ---------------------------------------------------------------------
      1          6           0        0.000000    0.000000   -0.500365
      2          7           0        0.000000    0.000000    0.652640
      3          1           0        0.000000    0.000000   -1.566290
 ---------------------------------------------------------------------
 Rotational constants (GHZ):           0.0000000          44.5203015          44.5203015
 Leave Link  202 at Wed Oct  7 16:09:51 2020, MaxMem=  2684354560 cpu:               1.5 elap:               0.6
 (Enter /udrive/faculty/rpeverati/g16/g16/l301.exe)
 Standard basis: 6-31G(d) (5D, 7F)
 Ernie: Thresh=  0.10000D-02 Tol=  0.10000D-05 Strict=F.
 There are    18 symmetry adapted cartesian basis functions of A1  symmetry.
 There are     2 symmetry adapted cartesian basis functions of A2  symmetry.
 There are     6 symmetry adapted cartesian basis functions of B1  symmetry.
 There are     6 symmetry adapted cartesian basis functions of B2  symmetry.
 There are    16 symmetry adapted basis functions of A1  symmetry.
 There are     2 symmetry adapted basis functions of A2  symmetry.
 There are     6 symmetry adapted basis functions of B1  symmetry.
 There are     6 symmetry adapted basis functions of B2  symmetry.
    30 basis functions,    60 primitive gaussians,    32 cartesian basis functions
     7 alpha electrons        7 beta electrons
       nuclear repulsion energy        23.9241820166 Hartrees.
 IExCor= 1009 DFT=T Ex=PBE Corr=PBE ExCW=0 ScaHFX=  0.000000
 ScaDFX=  1.000000  1.000000  1.000000  1.000000 ScalE2=  1.000000  1.000000
 IRadAn=      5 IRanWt=     -1 IRanGd=            0 ICorTp=0 IEmpDi=  4
 NAtoms=    3 NActive=    3 NUniq=    3 SFac= 1.00D+00 NAtFMM=   60 NAOKFM=F Big=F
 Integral buffers will be    131072 words long.
 Raffenetti 2 integral format.
 Two-electron integral symmetry is turned on.
 Leave Link  301 at Wed Oct  7 16:09:52 2020, MaxMem=  2684354560 cpu:               2.2 elap:               0.6
 (Enter /udrive/faculty/rpeverati/g16/g16/l302.exe)
 NPDir=0 NMtPBC=     1 NCelOv=     1 NCel=       1 NClECP=     1 NCelD=      1
         NCelK=      1 NCelE2=     1 NClLst=     1 CellRange=     0.0.
 One-electron integrals computed using PRISM.
 One-electron integral symmetry used in STVInt
 NBasis=    30 RedAO= T EigKep=  4.30D-03  NBF=    16     2     6     6
 NBsUse=    30 1.00D-06 EigRej= -1.00D+00 NBFU=    16     2     6     6
 Precomputing XC quadrature grid using
 IXCGrd= 4 IRadAn=           5 IRanWt=          -1 IRanGd=           0 AccXCQ= 0.00D+00.
 Generated NRdTot=       0 NPtTot=           0 NUsed=           0 NTot=          32
 NSgBfM=    32    32    32    32    32 MxSgAt=     3 MxSgA2=     3.
 Leave Link  302 at Wed Oct  7 16:09:53 2020, MaxMem=  2684354560 cpu:               4.3 elap:               0.7
 (Enter /udrive/faculty/rpeverati/g16/g16/l303.exe)
 DipDrv:  MaxL=1.
 Leave Link  303 at Wed Oct  7 16:09:54 2020, MaxMem=  2684354560 cpu:               1.5 elap:               0.5
 (Enter /udrive/faculty/rpeverati/g16/g16/l401.exe)
 SCF N**3 symmetry information disabled.
 ExpMin= 1.61D-01 ExpMax= 4.17D+03 ExpMxC= 6.27D+02 IAcc=3 IRadAn=         5 AccDes= 0.00D+00
 Harris functional with IExCor= 1009 and IRadAn=       5 diagonalized for initial guess.
 HarFok:  IExCor= 1009 AccDes= 0.00D+00 IRadAn=         5 IDoV= 1 UseB2=F ITyADJ=14
 ICtDFT=  3500011 ScaDFX=  1.000000  1.000000  1.000000  1.000000
 FoFCou: FMM=F IPFlag=           0 FMFlag=      100000 FMFlg1=           0
         NFxFlg=           0 DoJE=T BraDBF=F KetDBF=T FulRan=T
         wScrn=  0.000000 ICntrl=       500 IOpCl=  0 I1Cent=   200000004 NGrid=           0
         NMat0=    1 NMatS0=      1 NMatT0=    0 NMatD0=    1 NMtDS0=    0 NMtDT0=    0
 Petite list used in FoFCou.
 Harris En= -93.3249870607682    
 JPrj=0 DoOrth=F DoCkMO=F.
 Initial guess orbital symmetries:
       Occupied  (SG) (SG) (SG) (SG) (SG) (PI) (PI)
       Virtual   (PI) (PI) (SG) (SG) (PI) (PI) (SG) (SG) (PI) (PI)
                 (SG) (SG) (SG) (DLTA) (DLTA) (PI) (PI) (DLTA)
                 (DLTA) (PI) (PI) (SG) (SG)
 The electronic state of the initial guess is 1-SG.
 Leave Link  401 at Wed Oct  7 16:09:55 2020, MaxMem=  2684354560 cpu:               5.6 elap:               0.9
 (Enter /udrive/faculty/rpeverati/g16/g16/l502.exe)
 Keep J ints in memory in symmetry-blocked form, NReq=10459988.
 FoFCou: FMM=F IPFlag=           0 FMFlag=           0 FMFlg1=           0
         NFxFlg=           0 DoJE=F BraDBF=F KetDBF=F FulRan=T
         wScrn=  0.000000 ICntrl=       600 IOpCl=  0 I1Cent=           0 NGrid=           0
         NMat0=    1 NMatS0=    465 NMatT0=    0 NMatD0=    1 NMtDS0=    0 NMtDT0=    0
 Petite list used in FoFCou.
 Closed shell SCF:
 Using DIIS extrapolation, IDIIS=  1040.
 NGot=  2684354560 LenX=  2684318858 LenY=  2684317393
 Requested convergence on RMS density matrix=1.00D-08 within 120 cycles.
 Requested convergence on MAX density matrix=1.00D-06.
 Requested convergence on             energy=1.00D-06.
 No special actions if energy rises.
 Integral accuracy reduced to 1.0D-05 until final iterations.

 Cycle   1  Pass 0  IDiag  1:
 E= -93.2695747450795    
 DIIS: error= 2.80D-02 at cycle   1 NSaved=   1.
 NSaved= 1 IEnMin= 1 EnMin= -93.2695747450795     IErMin= 1 ErrMin= 2.80D-02
 ErrMax= 2.80D-02  0.00D+00 EMaxC= 1.00D-01 BMatC= 3.15D-02 BMatP= 3.15D-02
 IDIUse=3 WtCom= 7.20D-01 WtEn= 2.80D-01
 Coeff-Com:  0.100D+01
 Coeff-En:   0.100D+01
 Coeff:      0.100D+01
 Gap=     0.280 Goal=   None    Shift=    0.000
 GapD=    0.280 DampG=1.000 DampE=0.500 DampFc=0.5000 IDamp=-1.
 Damping current iteration by 5.00D-01
 RMSDP=1.63D-02 MaxDP=1.26D-01              OVMax= 2.20D-01

 Cycle   2  Pass 0  IDiag  1:
 E= -93.2554441617852     Delta-E=        0.014130583294 Rises=F Damp=T
 DIIS: error= 3.68D-02 at cycle   2 NSaved=   2.
 NSaved= 2 IEnMin= 1 EnMin= -93.2695747450795     IErMin= 1 ErrMin= 2.80D-02
 ErrMax= 3.68D-02  0.00D+00 EMaxC= 1.00D-01 BMatC= 2.48D-02 BMatP= 3.15D-02
 IDIUse=3 WtCom= 6.32D-01 WtEn= 3.68D-01
 Coeff-Com:  0.463D+00 0.537D+00
 Coeff-En:   0.608D+00 0.392D+00
 Coeff:      0.517D+00 0.483D+00
 Gap=     0.302 Goal=   None    Shift=    0.000
 RMSDP=4.33D-03 MaxDP=4.39D-02 DE= 1.41D-02 OVMax= 1.74D-01

 Cycle   3  Pass 0  IDiag  1:
 E= -93.2987803698754     Delta-E=       -0.043336208090 Rises=F Damp=F
 DIIS: error= 1.21D-02 at cycle   3 NSaved=   3.
 NSaved= 3 IEnMin= 3 EnMin= -93.2987803698754     IErMin= 3 ErrMin= 1.21D-02
 ErrMax= 1.21D-02  0.00D+00 EMaxC= 1.00D-01 BMatC= 5.02D-03 BMatP= 2.48D-02
 IDIUse=3 WtCom= 8.79D-01 WtEn= 1.21D-01
 Coeff-Com:  0.215D+00 0.279D+00 0.506D+00
 Coeff-En:   0.000D+00 0.000D+00 0.100D+01
 Coeff:      0.189D+00 0.245D+00 0.565D+00
 Gap=     0.306 Goal=   None    Shift=    0.000
 RMSDP=2.50D-03 MaxDP=2.27D-02 DE=-4.33D-02 OVMax= 2.89D-02

 Cycle   4  Pass 0  IDiag  1:
 E= -93.3036072933713     Delta-E=       -0.004826923496 Rises=F Damp=F
 DIIS: error= 5.40D-03 at cycle   4 NSaved=   4.
 NSaved= 4 IEnMin= 4 EnMin= -93.3036072933713     IErMin= 4 ErrMin= 5.40D-03
 ErrMax= 5.40D-03  0.00D+00 EMaxC= 1.00D-01 BMatC= 5.57D-04 BMatP= 5.02D-03
 IDIUse=3 WtCom= 9.46D-01 WtEn= 5.40D-02
 Coeff-Com:  0.378D-01-0.305D-01 0.206D+00 0.786D+00
 Coeff-En:   0.000D+00 0.000D+00 0.257D-01 0.974D+00
 Coeff:      0.358D-01-0.289D-01 0.197D+00 0.796D+00
 Gap=     0.308 Goal=   None    Shift=    0.000
 RMSDP=5.61D-04 MaxDP=5.97D-03 DE=-4.83D-03 OVMax= 9.24D-03

 Cycle   5  Pass 0  IDiag  1:
 E= -93.3041276554031     Delta-E=       -0.000520362032 Rises=F Damp=F
 DIIS: error= 6.90D-04 at cycle   5 NSaved=   5.
 NSaved= 5 IEnMin= 5 EnMin= -93.3041276554031     IErMin= 5 ErrMin= 6.90D-04
 ErrMax= 6.90D-04  0.00D+00 EMaxC= 1.00D-01 BMatC= 9.08D-06 BMatP= 5.57D-04
 IDIUse=3 WtCom= 9.93D-01 WtEn= 6.90D-03
 Coeff-Com:  0.767D-02-0.258D-02 0.490D-01 0.242D+00 0.704D+00
 Coeff-En:   0.000D+00 0.000D+00 0.000D+00 0.000D+00 0.100D+01
 Coeff:      0.762D-02-0.257D-02 0.487D-01 0.240D+00 0.706D+00
 Gap=     0.306 Goal=   None    Shift=    0.000
 RMSDP=5.70D-05 MaxDP=5.77D-04 DE=-5.20D-04 OVMax= 1.02D-03

 Cycle   6  Pass 0  IDiag  1:
 E= -93.3041355091802     Delta-E=       -0.000007853777 Rises=F Damp=F
 DIIS: error= 1.43D-05 at cycle   6 NSaved=   6.
 NSaved= 6 IEnMin= 6 EnMin= -93.3041355091802     IErMin= 6 ErrMin= 1.43D-05
 ErrMax= 1.43D-05  0.00D+00 EMaxC= 1.00D-01 BMatC= 5.52D-09 BMatP= 9.08D-06
 IDIUse=1 WtCom= 1.00D+00 WtEn= 0.00D+00
 Coeff-Com:  0.233D-03-0.201D-03 0.178D-02 0.140D-01 0.802D-01 0.904D+00
 Coeff:      0.233D-03-0.201D-03 0.178D-02 0.140D-01 0.802D-01 0.904D+00
 Gap=     0.306 Goal=   None    Shift=    0.000
 RMSDP=2.08D-06 MaxDP=1.78D-05 DE=-7.85D-06 OVMax= 2.22D-05

 Initial convergence to 1.0D-05 achieved.  Increase integral accuracy.
 Cycle   7  Pass 1  IDiag  1:
 E= -93.3041356354798     Delta-E=       -0.000000126300 Rises=F Damp=F
 DIIS: error= 9.72D-07 at cycle   1 NSaved=   1.
 NSaved= 1 IEnMin= 1 EnMin= -93.3041356354798     IErMin= 1 ErrMin= 9.72D-07
 ErrMax= 9.72D-07  0.00D+00 EMaxC= 1.00D-01 BMatC= 3.32D-11 BMatP= 3.32D-11
 IDIUse=1 WtCom= 1.00D+00 WtEn= 0.00D+00
 Coeff-Com:  0.100D+01
 Coeff:      0.100D+01
 Gap=     0.306 Goal=   None    Shift=    0.000
 RMSDP=2.08D-06 MaxDP=1.78D-05 DE=-1.26D-07 OVMax= 4.27D-06

 Cycle   8  Pass 1  IDiag  1:
 E= -93.3041356354187     Delta-E=        0.000000000061 Rises=F Damp=F
 DIIS: error= 2.45D-06 at cycle   2 NSaved=   2.
 NSaved= 2 IEnMin= 1 EnMin= -93.3041356354798     IErMin= 1 ErrMin= 9.72D-07
 ErrMax= 2.45D-06  0.00D+00 EMaxC= 1.00D-01 BMatC= 1.05D-10 BMatP= 3.32D-11
 IDIUse=1 WtCom= 1.00D+00 WtEn= 0.00D+00
 Coeff-Com:  0.668D+00 0.332D+00
 Coeff:      0.668D+00 0.332D+00
 Gap=     0.306 Goal=   None    Shift=    0.000
 RMSDP=3.09D-07 MaxDP=3.11D-06 DE= 6.11D-11 OVMax= 5.46D-06

 Cycle   9  Pass 1  IDiag  1:
 E= -93.3041356354886     Delta-E=       -0.000000000070 Rises=F Damp=F
 DIIS: error= 1.22D-06 at cycle   3 NSaved=   3.
 NSaved= 3 IEnMin= 3 EnMin= -93.3041356354886     IErMin= 1 ErrMin= 9.72D-07
 ErrMax= 1.22D-06  0.00D+00 EMaxC= 1.00D-01 BMatC= 2.66D-11 BMatP= 3.32D-11
 IDIUse=1 WtCom= 1.00D+00 WtEn= 0.00D+00
 Coeff-Com:  0.155D+00 0.314D+00 0.531D+00
 Coeff:      0.155D+00 0.314D+00 0.531D+00
 Gap=     0.306 Goal=   None    Shift=    0.000
 RMSDP=1.03D-07 MaxDP=1.01D-06 DE=-6.99D-11 OVMax= 1.86D-06

 Cycle  10  Pass 1  IDiag  1:
 E= -93.3041356355128     Delta-E=       -0.000000000024 Rises=F Damp=F
 DIIS: error= 5.24D-08 at cycle   4 NSaved=   4.
 NSaved= 4 IEnMin= 4 EnMin= -93.3041356355128     IErMin= 4 ErrMin= 5.24D-08
 ErrMax= 5.24D-08  0.00D+00 EMaxC= 1.00D-01 BMatC= 7.91D-14 BMatP= 2.66D-11
 IDIUse=1 WtCom= 1.00D+00 WtEn= 0.00D+00
 Coeff-Com:  0.232D-01 0.840D-01 0.146D+00 0.747D+00
 Coeff:      0.232D-01 0.840D-01 0.146D+00 0.747D+00
 Gap=     0.306 Goal=   None    Shift=    0.000
 RMSDP=1.45D-08 MaxDP=9.32D-08 DE=-2.42D-11 OVMax= 1.47D-07

 Cycle  11  Pass 1  IDiag  1:
 E= -93.3041356355130     Delta-E=       -0.000000000000 Rises=F Damp=F
 DIIS: error= 1.76D-08 at cycle   5 NSaved=   5.
 NSaved= 5 IEnMin= 5 EnMin= -93.3041356355130     IErMin= 5 ErrMin= 1.76D-08
 ErrMax= 1.76D-08  0.00D+00 EMaxC= 1.00D-01 BMatC= 1.15D-14 BMatP= 7.91D-14
 IDIUse=1 WtCom= 1.00D+00 WtEn= 0.00D+00
 Coeff-Com: -0.172D-02 0.139D-01 0.255D-01 0.316D+00 0.646D+00
 Coeff:     -0.172D-02 0.139D-01 0.255D-01 0.316D+00 0.646D+00
 Gap=     0.306 Goal=   None    Shift=    0.000
 RMSDP=3.09D-09 MaxDP=2.03D-08 DE=-1.71D-13 OVMax= 3.28D-08

 SCF Done:  E(RPBE-PBE) =  -93.3041356355     A.U. after   11 cycles
            NFock= 11  Conv=0.31D-08     -V/T= 2.0056
 KE= 9.278011216351D+01 PE=-2.656833157656D+02 EE= 5.567488594994D+01
 Leave Link  502 at Wed Oct  7 16:09:57 2020, MaxMem=  2684354560 cpu:              10.6 elap:               1.4
 (Enter /udrive/faculty/rpeverati/g16/g16/l508.exe)
 QCSCF skips out because SCF is already converged.
 Leave Link  508 at Wed Oct  7 16:09:57 2020, MaxMem=  2684354560 cpu:               0.3 elap:               0.4
 (Enter /udrive/faculty/rpeverati/g16/g16/l601.exe)
 Copying SCF densities to generalized density rwf, IOpCl= 0 IROHF=0.

 **********************************************************************

            Population analysis using the SCF density.

 **********************************************************************

 Orbital symmetries:
       Occupied  (SG) (SG) (SG) (SG) (SG) (PI) (PI)
       Virtual   (PI) (PI) (SG) (SG) (PI) (PI) (SG) (SG) (PI) (PI)
                 (SG) (SG) (SG) (DLTA) (DLTA) (PI) (PI) (DLTA)
                 (DLTA) (PI) (PI) (SG) (SG)
 The electronic state is 1-SG.
 Alpha  occ. eigenvalues --  -14.01878  -9.94224  -0.83540  -0.54937  -0.32053
 Alpha  occ. eigenvalues --   -0.31844  -0.31844
 Alpha virt. eigenvalues --   -0.01269  -0.01269   0.05948   0.25579   0.48544
 Alpha virt. eigenvalues --    0.48544   0.61037   0.65674   0.72741   0.72741
 Alpha virt. eigenvalues --    0.78335   1.04018   1.43429   1.43753   1.43753
 Alpha virt. eigenvalues --    1.46088   1.46088   1.87391   1.87391   2.47357
 Alpha virt. eigenvalues --    2.47357   2.56159   2.91129
          Condensed to atoms (all electrons):
               1          2          3
     1  C    4.745457   0.905804   0.330189
     2  N    0.905804   6.393548  -0.037512
     3  H    0.330189  -0.037512   0.464032
 Mulliken charges:
               1
     1  C    0.018550
     2  N   -0.261840
     3  H    0.243290
 Sum of Mulliken charges =  -0.00000
 Mulliken charges with hydrogens summed into heavy atoms:
               1
     1  C    0.261840
     2  N   -0.261840
 Electronic spatial extent (au):  <R**2>=             48.7385
 Charge=             -0.0000 electrons
 Dipole moment (field-independent basis, Debye):
    X=              0.0000    Y=             -0.0000    Z=             -2.7950  Tot=              2.7950
 Quadrupole moment (field-independent basis, Debye-Ang):
   XX=            -11.3357   YY=            -11.3357   ZZ=             -9.5636
   XY=             -0.0000   XZ=              0.0000   YZ=             -0.0000
 Traceless Quadrupole moment (field-independent basis, Debye-Ang):
   XX=             -0.5907   YY=             -0.5907   ZZ=              1.1814
   XY=             -0.0000   XZ=              0.0000   YZ=             -0.0000
 Octapole moment (field-independent basis, Debye-Ang**2):
  XXX=              0.0000  YYY=             -0.0000  ZZZ=             -6.5955  XYY=              0.0000
  XXY=              0.0000  XXZ=             -0.0837  XZZ=              0.0000  YZZ=             -0.0000
  YYZ=             -0.0837  XYZ=              0.0000
 Hexadecapole moment (field-independent basis, Debye-Ang**3):
 XXXX=            -10.1736 YYYY=            -10.1736 ZZZZ=            -34.9714 XXXY=             -0.0000
 XXXZ=              0.0000 YYYX=             -0.0000 YYYZ=             -0.0000 ZZZX=              0.0000
 ZZZY=             -0.0000 XXYY=             -3.3912 XXZZ=             -8.5598 YYZZ=             -8.5598
 XXYZ=             -0.0000 YYXZ=              0.0000 ZZXY=             -0.0000
 N-N= 2.392418201663D+01 E-N=-2.656833164862D+02  KE= 9.278011216351D+01
 No NMR shielding tensors so no spin-rotation constants.
 Leave Link  601 at Wed Oct  7 16:09:58 2020, MaxMem=  2684354560 cpu:               4.0 elap:               0.7
 (Enter /udrive/faculty/rpeverati/g16/g16/l701.exe)
 ... and contract with generalized density number  0.
 Compute integral first derivatives.
 Leave Link  701 at Wed Oct  7 16:09:59 2020, MaxMem=  2684354560 cpu:               4.3 elap:               0.8
 (Enter /udrive/faculty/rpeverati/g16/g16/l702.exe)
 L702 exits ... SP integral derivatives will be done elsewhere.
 Leave Link  702 at Wed Oct  7 16:10:00 2020, MaxMem=  2684354560 cpu:               1.5 elap:               0.4
 (Enter /udrive/faculty/rpeverati/g16/g16/l703.exe)
 Integral derivatives from FoFJK, PRISM(SPDF).
 Compute integral first derivatives, UseDBF=F ICtDFT=           0.
 Calling FoFJK, ICntrl=      2527 FMM=F ISym2X=1 I1Cent= 0 IOpClX= 0 NMat=1 NMatS=1 NMatT=0.
 FoFJK:  IHMeth= 1 ICntrl=    2527 DoSepK=F KAlg= 0 I1Cent=           0 FoldK=F
 IRaf=         0 NMat=       1 IRICut=       1 DoRegI=T DoRafI=F ISym2E= 1 IDoP0=0 IntGTp=1.
 FoFCou: FMM=F IPFlag=           0 FMFlag=      100000 FMFlg1=         800
         NFxFlg=           0 DoJE=F BraDBF=F KetDBF=F FulRan=T
         wScrn=  0.000000 ICntrl=      2527 IOpCl=  0 I1Cent=           0 NGrid=           0
         NMat0=    1 NMatS0=      1 NMatT0=    0 NMatD0=    1 NMtDS0=    0 NMtDT0=    0
 Petite list used in FoFCou.
 Leave Link  703 at Wed Oct  7 16:10:01 2020, MaxMem=  2684354560 cpu:               4.5 elap:               0.7
 (Enter /udrive/faculty/rpeverati/g16/g16/l716.exe)
 Dipole        = 0.00000000D+00-1.42900074D-31-1.09963928D+00
 ***** Axes restored to original set *****
 -------------------------------------------------------------------
 Center     Atomic                   Forces (Hartrees/Bohr)
 Number     Number              X              Y              Z
 -------------------------------------------------------------------
      1        6          -0.000000000   -0.000000000   -0.028530408
      2        7           0.000000000    0.000000000    0.038094825
      3        1           0.000000000    0.000000000   -0.009564417
 -------------------------------------------------------------------
 Cartesian Forces:  Max     0.038094825 RMS     0.016181876
 Leave Link  716 at Wed Oct  7 16:10:02 2020, MaxMem=  2684354560 cpu:               2.1 elap:               0.6
 (Enter /udrive/faculty/rpeverati/g16/g16/l103.exe)

 GradGradGradGradGradGradGradGradGradGradGradGradGradGradGradGradGradGrad
 Berny optimization.
 Optmz: redundant internal coordinate code flag= 1
 FormGI is forming the generalized inverse of G from B-inverse, IUseBI=4.
 Internal  Forces:  Max     0.038094825 RMS     0.019638570
 Search for a local minimum.
 Step number   1 out of a maximum of  100
 All quantities printed in internal units (Hartrees-Bohrs-Radians)
 RMS Force = .19639D-01 SwitMx=.10000D-02 MixMth= 1
 Mixed Optimization -- RFO/linear search
 Second derivative matrix not updated -- first step.
 The second derivative matrix:
                          R1        R2        A1        A2
           R1           1.32483
           R2           0.00000   0.37750
           A1           0.00000   0.00000   0.00553
           A2           0.00000   0.00000   0.00000   0.00553
 ITU=  0
 Eigenvectors of the second derivative matrix:
                           1         2         3         4
     Eigenvalues --     0.00553   0.00553   0.37750   1.32483
   1         R1         0.00000   0.00000   0.00000  -1.00000
   2         R2         0.00000   0.00000   1.00000  -0.00000
   3         A1         0.00000  -1.00000   0.00000   0.00000
   4         A2         1.00000   0.00000  -0.00000  -0.00000
 Iter=   1 RLamda= 0.00000000D+00 Sum=-1.33772422D-03.
 Iter=   2 RLamda=-1.33772422D-03 Sum=-1.33576358D-03.
 Iter=   3 RLamda=-1.33576358D-03 Sum=-1.33576645D-03.
 RFO step:  Lambda=-1.33576358D-03 EMin= 5.53291456D-03
 Linear search not attempted -- first point.
 Iteration  1 RMS(Cart)=  0.01909536 RMS(Int)=  0.00000000
 Iteration  2 RMS(Cart)=  0.00000000 RMS(Int)=  0.00000000
 ITry= 1 IFail=0 DXMaxC= 2.76D-02 DCOld= 1.00D+10 DXMaxT= 3.00D-01 DXLimC= 3.00D+00 Rises=F
 ClnCor:  largest displacement from symmetrization is 1.31D-14 for atom     1.
 Variable       Old X    -DE/DX   Delta X   Delta X   Delta X     New X
                                 (Linear)    (Quad)   (Total)
    R1        2.17886   0.03809   0.00000   0.02873   0.02873   2.20759
    R2        2.01431   0.00956   0.00000   0.02525   0.02525   2.03955
    A1        3.14159  -0.00000   0.00000  -0.00000   0.00000   3.14159
    A2        3.14159   0.00000   0.00000   0.00000   0.00000   3.14159
         Item               Value     Threshold  Converged?
 Maximum Force            0.038095     0.000450     NO 
 RMS     Force            0.019639     0.000300     NO 
 Maximum Displacement     0.027566     0.001800     NO 
 RMS     Displacement     0.019095     0.001200     NO 
 Predicted change in Energy=-6.688600D-04
 Lowest energy point so far.  Saving SCF results.
 Largest change from initial coordinates is atom    2       0.014 Angstoms.
 GradGradGradGradGradGradGradGradGradGradGradGradGradGradGradGradGradGrad

 Leave Link  103 at Wed Oct  7 16:10:03 2020, MaxMem=  2684354560 cpu:               2.4 elap:               0.6
 (Enter /udrive/faculty/rpeverati/g16/g16/l202.exe)
                          Input orientation:                          
 ---------------------------------------------------------------------
 Center     Atomic      Atomic             Coordinates (Angstroms)
 Number     Number       Type             X           Y           Z
 ---------------------------------------------------------------------
      1          6           0        0.000000    0.000000   -0.500979
      2          7           0        0.000000    0.000000    0.667227
      3          1           0        0.000000    0.000000   -1.580264
 ---------------------------------------------------------------------
                    Distance matrix (angstroms):
                    1          2          3
     1  C    0.000000
     2  N    1.168206   0.000000
     3  H    1.079285   2.247491   0.000000
 Stoichiometry    CHN
 Framework group  C*V[C*(HCN)]
 Deg. of freedom     2
 Full point group                 C*V     NOp   4
 RotChk:  IX=0 Diff= 0.00D+00
 Largest Abelian subgroup         C2V     NOp   4
 Largest concise Abelian subgroup C1      NOp   1
                         Standard orientation:                         
 ---------------------------------------------------------------------
 Center     Atomic      Atomic             Coordinates (Angstroms)
 Number     Number       Type             X           Y           Z
 ---------------------------------------------------------------------
      1          6           0        0.000000    0.000000   -0.507011
      2          7           0        0.000000    0.000000    0.661195
      3          1           0        0.000000    0.000000   -1.586296
 ---------------------------------------------------------------------
 Rotational constants (GHZ):           0.0000000          43.3777779          43.3777779
 Leave Link  202 at Wed Oct  7 16:10:04 2020, MaxMem=  2684354560 cpu:               1.0 elap:               0.5
 (Enter /udrive/faculty/rpeverati/g16/g16/l301.exe)
 Standard basis: 6-31G(d) (5D, 7F)
 Ernie: Thresh=  0.10000D-02 Tol=  0.10000D-05 Strict=F.
 There are    18 symmetry adapted cartesian basis functions of A1  symmetry.
 There are     2 symmetry adapted cartesian basis functions of A2  symmetry.
 There are     6 symmetry adapted cartesian basis functions of B1  symmetry.
 There are     6 symmetry adapted cartesian basis functions of B2  symmetry.
 There are    16 symmetry adapted basis functions of A1  symmetry.
 There are     2 symmetry adapted basis functions of A2  symmetry.
 There are     6 symmetry adapted basis functions of B1  symmetry.
 There are     6 symmetry adapted basis functions of B2  symmetry.
    30 basis functions,    60 primitive gaussians,    32 cartesian basis functions
     7 alpha electrons        7 beta electrons
       nuclear repulsion energy        23.6152712552 Hartrees.
 IExCor= 1009 DFT=T Ex=PBE Corr=PBE ExCW=0 ScaHFX=  0.000000
 ScaDFX=  1.000000  1.000000  1.000000  1.000000 ScalE2=  1.000000  1.000000
 IRadAn=      5 IRanWt=     -1 IRanGd=            0 ICorTp=0 IEmpDi=  4
 NAtoms=    3 NActive=    3 NUniq=    3 SFac= 1.00D+00 NAtFMM=   60 NAOKFM=F Big=F
 Integral buffers will be    131072 words long.
 Raffenetti 2 integral format.
 Two-electron integral symmetry is turned on.
 Leave Link  301 at Wed Oct  7 16:10:04 2020, MaxMem=  2684354560 cpu:               2.1 elap:               0.5
 (Enter /udrive/faculty/rpeverati/g16/g16/l302.exe)
 NPDir=0 NMtPBC=     1 NCelOv=     1 NCel=       1 NClECP=     1 NCelD=      1
         NCelK=      1 NCelE2=     1 NClLst=     1 CellRange=     0.0.
 One-electron integrals computed using PRISM.
 One-electron integral symmetry used in STVInt
 NBasis=    30 RedAO= T EigKep=  4.52D-03  NBF=    16     2     6     6
 NBsUse=    30 1.00D-06 EigRej= -1.00D+00 NBFU=    16     2     6     6
 Precomputing XC quadrature grid using
 IXCGrd= 4 IRadAn=           5 IRanWt=          -1 IRanGd=           0 AccXCQ= 0.00D+00.
 Generated NRdTot=       0 NPtTot=           0 NUsed=           0 NTot=          32
 NSgBfM=    32    32    32    32    32 MxSgAt=     3 MxSgA2=     3.
 Leave Link  302 at Wed Oct  7 16:10:05 2020, MaxMem=  2684354560 cpu:               3.9 elap:               0.7
 (Enter /udrive/faculty/rpeverati/g16/g16/l303.exe)
 DipDrv:  MaxL=1.
 Leave Link  303 at Wed Oct  7 16:10:06 2020, MaxMem=  2684354560 cpu:               1.7 elap:               0.6
 (Enter /udrive/faculty/rpeverati/g16/g16/l401.exe)
 Initial guess from the checkpoint file:  "MN_48_hcn_BH76_PBE_631Gs.chk"
 SCF N**3 symmetry information disabled.
 B after Tr=     0.000000    0.000000    0.000000
         Rot=    1.000000    0.000000    0.000000    0.000000 Ang=   0.00 deg.
 Guess basis will be translated and rotated to current coordinates.
 JPrj=2 DoOrth=T DoCkMO=T.
 Initial guess orbital symmetries:
       Occupied  (SG) (SG) (SG) (SG) (SG) (PI) (PI)
       Virtual   (PI) (PI) (SG) (SG) (PI) (PI) (SG) (SG) (PI) (PI)
                 (SG) (SG) (SG) (DLTA) (DLTA) (PI) (PI) (DLTA)
                 (DLTA) (PI) (PI) (SG) (SG)
 The electronic state of the initial guess is 1-SG.
 Generating alternative initial guess.
 ExpMin= 1.61D-01 ExpMax= 4.17D+03 ExpMxC= 6.27D+02 IAcc=2 IRadAn=         4 AccDes= 0.00D+00
 Harris functional with IExCor= 1009 and IRadAn=       4 diagonalized for initial guess.
 HarFok:  IExCor= 1009 AccDes= 0.00D+00 IRadAn=         4 IDoV= 1 UseB2=F ITyADJ=14
 ICtDFT=  3500011 ScaDFX=  1.000000  1.000000  1.000000  1.000000
 FoFCou: FMM=F IPFlag=           0 FMFlag=      100000 FMFlg1=           0
         NFxFlg=           0 DoJE=T BraDBF=F KetDBF=T FulRan=T
         wScrn=  0.000000 ICntrl=       500 IOpCl=  0 I1Cent=   200000004 NGrid=           0
         NMat0=    1 NMatS0=      1 NMatT0=    0 NMatD0=    1 NMtDS0=    0 NMtDT0=    0
 Petite list used in FoFCou.
 Harris En= -93.3224405966170    
 Leave Link  401 at Wed Oct  7 16:10:07 2020, MaxMem=  2684354560 cpu:               5.3 elap:               0.8
 (Enter /udrive/faculty/rpeverati/g16/g16/l502.exe)
 Keep J ints in memory in symmetry-blocked form, NReq=10459988.
 FoFCou: FMM=F IPFlag=           0 FMFlag=           0 FMFlg1=           0
         NFxFlg=           0 DoJE=F BraDBF=F KetDBF=F FulRan=T
         wScrn=  0.000000 ICntrl=       600 IOpCl=  0 I1Cent=           0 NGrid=           0
         NMat0=    1 NMatS0=    465 NMatT0=    0 NMatD0=    1 NMtDS0=    0 NMtDT0=    0
 Petite list used in FoFCou.
 Closed shell SCF:
 Using DIIS extrapolation, IDIIS=  1040.
 NGot=  2684354560 LenX=  2684318858 LenY=  2684317393
 Requested convergence on RMS density matrix=1.00D-08 within 120 cycles.
 Requested convergence on MAX density matrix=1.00D-06.
 Requested convergence on             energy=1.00D-06.
 No special actions if energy rises.
 Integral accuracy reduced to 1.0D-05 until final iterations.

 Cycle   1  Pass 0  IDiag  1:
 E= -93.3046608478499    
 DIIS: error= 1.82D-03 at cycle   1 NSaved=   1.
 NSaved= 1 IEnMin= 1 EnMin= -93.3046608478499     IErMin= 1 ErrMin= 1.82D-03
 ErrMax= 1.82D-03  0.00D+00 EMaxC= 1.00D-01 BMatC= 1.30D-04 BMatP= 1.30D-04
 IDIUse=3 WtCom= 9.82D-01 WtEn= 1.82D-02
 Coeff-Com:  0.100D+01
 Coeff-En:   0.100D+01
 Coeff:      0.100D+01
 Gap=     0.297 Goal=   None    Shift=    0.000
 GapD=    0.297 DampG=1.000 DampE=1.000 DampFc=1.0000 IDamp=-1.
 RMSDP=7.72D-04 MaxDP=7.03D-03              OVMax= 6.70D-03

 Cycle   2  Pass 0  IDiag  1:
 E= -93.3047632179445     Delta-E=       -0.000102370095 Rises=F Damp=F
 DIIS: error= 1.32D-03 at cycle   2 NSaved=   2.
 NSaved= 2 IEnMin= 2 EnMin= -93.3047632179445     IErMin= 2 ErrMin= 1.32D-03
 ErrMax= 1.32D-03  0.00D+00 EMaxC= 1.00D-01 BMatC= 5.06D-05 BMatP= 1.30D-04
 IDIUse=3 WtCom= 9.87D-01 WtEn= 1.32D-02
 Coeff-Com:  0.364D+00 0.636D+00
 Coeff-En:   0.681D-01 0.932D+00
 Coeff:      0.360D+00 0.640D+00
 Gap=     0.298 Goal=   None    Shift=    0.000
 RMSDP=3.07D-04 MaxDP=1.99D-03 DE=-1.02D-04 OVMax= 2.89D-03

 Cycle   3  Pass 0  IDiag  1:
 E= -93.3048041375580     Delta-E=       -0.000040919613 Rises=F Damp=F
 DIIS: error= 8.02D-04 at cycle   3 NSaved=   3.
 NSaved= 3 IEnMin= 3 EnMin= -93.3048041375580     IErMin= 3 ErrMin= 8.02D-04
 ErrMax= 8.02D-04  0.00D+00 EMaxC= 1.00D-01 BMatC= 1.43D-05 BMatP= 5.06D-05
 IDIUse=3 WtCom= 9.92D-01 WtEn= 8.02D-03
 Coeff-Com:  0.127D+00 0.363D+00 0.510D+00
 Coeff-En:   0.000D+00 0.134D+00 0.866D+00
 Coeff:      0.126D+00 0.361D+00 0.513D+00
 Gap=     0.297 Goal=   None    Shift=    0.000
 RMSDP=1.65D-04 MaxDP=1.64D-03 DE=-4.09D-05 OVMax= 2.84D-03

 Cycle   4  Pass 0  IDiag  1:
 E= -93.3048000055367     Delta-E=        0.000004132021 Rises=F Damp=F
 DIIS: error= 1.07D-03 at cycle   4 NSaved=   4.
 NSaved= 4 IEnMin= 3 EnMin= -93.3048041375580     IErMin= 3 ErrMin= 8.02D-04
 ErrMax= 1.07D-03  0.00D+00 EMaxC= 1.00D-01 BMatC= 1.94D-05 BMatP= 1.43D-05
 IDIUse=3 WtCom= 2.34D-01 WtEn= 7.66D-01
 Coeff-Com:  0.223D-01 0.163D+00 0.493D+00 0.322D+00
 Coeff-En:   0.000D+00 0.000D+00 0.547D+00 0.453D+00
 Coeff:      0.521D-02 0.381D-01 0.535D+00 0.422D+00
 Gap=     0.297 Goal=   None    Shift=    0.000
 RMSDP=9.91D-05 MaxDP=1.06D-03 DE= 4.13D-06 OVMax= 1.74D-03

 Cycle   5  Pass 0  IDiag  1:
 E= -93.3048168367611     Delta-E=       -0.000016831224 Rises=F Damp=F
 DIIS: error= 1.61D-04 at cycle   5 NSaved=   5.
 NSaved= 5 IEnMin= 5 EnMin= -93.3048168367611     IErMin= 5 ErrMin= 1.61D-04
 ErrMax= 1.61D-04  0.00D+00 EMaxC= 1.00D-01 BMatC= 8.02D-07 BMatP= 1.43D-05
 IDIUse=3 WtCom= 9.98D-01 WtEn= 1.61D-03
 Coeff-Com:  0.125D-02-0.849D-02 0.203D+00 0.202D+00 0.603D+00
 Coeff-En:   0.000D+00 0.000D+00 0.000D+00 0.000D+00 0.100D+01
 Coeff:      0.125D-02-0.848D-02 0.202D+00 0.201D+00 0.603D+00
 Gap=     0.297 Goal=   None    Shift=    0.000
 RMSDP=2.92D-05 MaxDP=2.14D-04 DE=-1.68D-05 OVMax= 3.51D-04

 Cycle   6  Pass 0  IDiag  1:
 E= -93.3048177340671     Delta-E=       -0.000000897306 Rises=F Damp=F
 DIIS: error= 6.25D-06 at cycle   6 NSaved=   6.
 NSaved= 6 IEnMin= 6 EnMin= -93.3048177340671     IErMin= 6 ErrMin= 6.25D-06
 ErrMax= 6.25D-06  0.00D+00 EMaxC= 1.00D-01 BMatC= 5.77D-10 BMatP= 8.02D-07
 IDIUse=1 WtCom= 1.00D+00 WtEn= 0.00D+00
 Coeff-Com: -0.498D-05-0.314D-02 0.241D-01 0.307D-01 0.937D-01 0.855D+00
 Coeff:     -0.498D-05-0.314D-02 0.241D-01 0.307D-01 0.937D-01 0.855D+00
 Gap=     0.297 Goal=   None    Shift=    0.000
 RMSDP=7.94D-07 MaxDP=5.19D-06 DE=-8.97D-07 OVMax= 1.09D-05

 Initial convergence to 1.0D-05 achieved.  Increase integral accuracy.
 Cycle   7  Pass 1  IDiag  1:
 E= -93.3048173645597     Delta-E=        0.000000369507 Rises=F Damp=F
 DIIS: error= 5.96D-07 at cycle   1 NSaved=   1.
 NSaved= 1 IEnMin= 1 EnMin= -93.3048173645597     IErMin= 1 ErrMin= 5.96D-07
 ErrMax= 5.96D-07  0.00D+00 EMaxC= 1.00D-01 BMatC= 9.91D-12 BMatP= 9.91D-12
 IDIUse=1 WtCom= 1.00D+00 WtEn= 0.00D+00
 Coeff-Com:  0.100D+01
 Coeff:      0.100D+01
 Gap=     0.297 Goal=   None    Shift=    0.000
 RMSDP=7.94D-07 MaxDP=5.19D-06 DE= 3.70D-07 OVMax= 3.91D-06

 Cycle   8  Pass 1  IDiag  1:
 E= -93.3048173645469     Delta-E=        0.000000000013 Rises=F Damp=F
 DIIS: error= 1.42D-06 at cycle   2 NSaved=   2.
 NSaved= 2 IEnMin= 1 EnMin= -93.3048173645597     IErMin= 1 ErrMin= 5.96D-07
 ErrMax= 1.42D-06  0.00D+00 EMaxC= 1.00D-01 BMatC= 3.24D-11 BMatP= 9.91D-12
 IDIUse=1 WtCom= 1.00D+00 WtEn= 0.00D+00
 Coeff-Com:  0.723D+00 0.277D+00
 Coeff:      0.723D+00 0.277D+00
 Gap=     0.297 Goal=   None    Shift=    0.000
 RMSDP=1.52D-07 MaxDP=1.51D-06 DE= 1.29D-11 OVMax= 2.75D-06

 Cycle   9  Pass 1  IDiag  1:
 E= -93.3048173645750     Delta-E=       -0.000000000028 Rises=F Damp=F
 DIIS: error= 4.01D-07 at cycle   3 NSaved=   3.
 NSaved= 3 IEnMin= 3 EnMin= -93.3048173645750     IErMin= 3 ErrMin= 4.01D-07
 ErrMax= 4.01D-07  0.00D+00 EMaxC= 1.00D-01 BMatC= 3.35D-12 BMatP= 9.91D-12
 IDIUse=1 WtCom= 1.00D+00 WtEn= 0.00D+00
 Coeff-Com:  0.448D-01 0.233D+00 0.722D+00
 Coeff:      0.448D-01 0.233D+00 0.722D+00
 Gap=     0.297 Goal=   None    Shift=    0.000
 RMSDP=3.13D-08 MaxDP=3.11D-07 DE=-2.82D-11 OVMax= 4.88D-07

 Cycle  10  Pass 1  IDiag  1:
 E= -93.3048173645777     Delta-E=       -0.000000000003 Rises=F Damp=F
 DIIS: error= 5.08D-08 at cycle   4 NSaved=   4.
 NSaved= 4 IEnMin= 4 EnMin= -93.3048173645777     IErMin= 4 ErrMin= 5.08D-08
 ErrMax= 5.08D-08  0.00D+00 EMaxC= 1.00D-01 BMatC= 7.27D-14 BMatP= 3.35D-12
 IDIUse=1 WtCom= 1.00D+00 WtEn= 0.00D+00
 Coeff-Com:  0.310D-02 0.972D-01 0.238D+00 0.662D+00
 Coeff:      0.310D-02 0.972D-01 0.238D+00 0.662D+00
 Gap=     0.297 Goal=   None    Shift=    0.000
 RMSDP=9.01D-09 MaxDP=6.41D-08 DE=-2.69D-12 OVMax= 1.03D-07

 SCF Done:  E(RPBE-PBE) =  -93.3048173646     A.U. after   10 cycles
            NFock= 10  Conv=0.90D-08     -V/T= 2.0067
 KE= 9.268761338600D+01 PE=-2.649946674218D+02 EE= 5.538696541601D+01
 Leave Link  502 at Wed Oct  7 16:10:10 2020, MaxMem=  2684354560 cpu:              21.6 elap:               2.5
 (Enter /udrive/faculty/rpeverati/g16/g16/l508.exe)
 QCSCF skips out because SCF is already converged.
 Leave Link  508 at Wed Oct  7 16:10:11 2020, MaxMem=  2684354560 cpu:               0.5 elap:               0.5
 (Enter /udrive/faculty/rpeverati/g16/g16/l701.exe)
 ... and contract with generalized density number  0.
 Compute integral first derivatives.
 Leave Link  701 at Wed Oct  7 16:10:11 2020, MaxMem=  2684354560 cpu:               3.3 elap:               0.6
 (Enter /udrive/faculty/rpeverati/g16/g16/l702.exe)
 L702 exits ... SP integral derivatives will be done elsewhere.
 Leave Link  702 at Wed Oct  7 16:10:12 2020, MaxMem=  2684354560 cpu:               1.3 elap:               0.4
 (Enter /udrive/faculty/rpeverati/g16/g16/l703.exe)
 Integral derivatives from FoFJK, PRISM(SPDF).
 Compute integral first derivatives, UseDBF=F ICtDFT=           0.
 Calling FoFJK, ICntrl=      2527 FMM=F ISym2X=1 I1Cent= 0 IOpClX= 0 NMat=1 NMatS=1 NMatT=0.
 FoFJK:  IHMeth= 1 ICntrl=    2527 DoSepK=F KAlg= 0 I1Cent=           0 FoldK=F
 IRaf=         0 NMat=       1 IRICut=       1 DoRegI=T DoRafI=F ISym2E= 1 IDoP0=0 IntGTp=1.
 FoFCou: FMM=F IPFlag=           0 FMFlag=      100000 FMFlg1=         800
         NFxFlg=           0 DoJE=F BraDBF=F KetDBF=F FulRan=T
         wScrn=  0.000000 ICntrl=      2527 IOpCl=  0 I1Cent=           0 NGrid=           0
         NMat0=    1 NMatS0=      1 NMatT0=    0 NMatD0=    1 NMtDS0=    0 NMtDT0=    0
 Petite list used in FoFCou.
 Leave Link  703 at Wed Oct  7 16:10:13 2020, MaxMem=  2684354560 cpu:               4.7 elap:               0.6
 (Enter /udrive/faculty/rpeverati/g16/g16/l716.exe)
 Dipole        = 0.00000000D+00 1.89148788D-32-1.10365928D+00
 ***** Axes restored to original set *****
 -------------------------------------------------------------------
 Center     Atomic                   Forces (Hartrees/Bohr)
 Number     Number              X              Y              Z
 -------------------------------------------------------------------
      1        6          -0.000000000   -0.000000000   -0.002109533
      2        7           0.000000000    0.000000000    0.001878082
      3        1           0.000000000    0.000000000    0.000231451
 -------------------------------------------------------------------
 Cartesian Forces:  Max     0.002109533 RMS     0.000944628
 Leave Link  716 at Wed Oct  7 16:10:14 2020, MaxMem=  2684354560 cpu:               1.8 elap:               0.5
 (Enter /udrive/faculty/rpeverati/g16/g16/l103.exe)

 GradGradGradGradGradGradGradGradGradGradGradGradGradGradGradGradGradGrad
 Berny optimization.
 Optmz: redundant internal coordinate code flag= 1
 Using GEDIIS/GDIIS optimizer.
 Red2BG:  D1=  1.00D+00 OD1=  3.33D-16 B2RMS=  0.00D+00 IAprox=1
 Red2BG is reusing G-inverse.
 Internal  Forces:  Max     0.001878082 RMS     0.000946145
 Search for a local minimum.
 Step number   2 out of a maximum of  100
 All quantities printed in internal units (Hartrees-Bohrs-Radians)
 RMS Force = .94615D-03 SwitMx=.10000D-02 MixMth= 2
 Mixed Optimization -- En-DIIS/RFO-DIIS
 Update second derivatives using D2CorX and points    1    2
 DE= -6.82D-04 DEPred=-6.69D-04 R= 1.02D+00
 TightC=F SS=  1.41D+00  RLast= 3.82D-02 DXNew= 5.0454D-01 1.1473D-01
 Trust test= 1.02D+00 RLast= 3.82D-02 DXMaxT set to 3.00D-01
 The second derivative matrix:
                          R1        R2        A1        A2
           R1           1.25763
           R2           0.00359   0.38392
           A1          -0.00000  -0.00000   0.00553
           A2           0.00000   0.00000  -0.00000   0.00553
 ITU=  1  0
 Use linear search instead of GDIIS.
 Eigenvectors of the second derivative matrix:
                           1         2         3         4
     Eigenvalues --     0.00553   0.00553   0.38390   1.25765
   1         R1         0.00000  -0.00000  -0.00411  -0.99999
   2         R2         0.00000   0.00000   0.99999  -0.00411
   3         A1        -0.00000  -1.00000   0.00000   0.00000
   4         A2         1.00000  -0.00000   0.00000   0.00000
 Iter=   1 RLamda= 0.00000000D+00 Sum=-1.06296506D-06.
 Iter=   2 RLamda=-1.06296506D-06 Sum=-1.06296250D-06.
 RFO step:  Lambda=-1.06296506D-06 EMin= 5.53291456D-03
 Quartic linear search produced a step of  0.03928.
 Iteration  1 RMS(Cart)=  0.00055255 RMS(Int)=  0.00000000
 Iteration  2 RMS(Cart)=  0.00000000 RMS(Int)=  0.00000000
 ITry= 1 IFail=0 DXMaxC= 8.54D-04 DCOld= 1.00D+10 DXMaxT= 3.00D-01 DXLimC= 3.00D+00 Rises=F
 ClnCor:  largest displacement from symmetrization is 0.00D+00 for atom     0.
 Variable       Old X    -DE/DX   Delta X   Delta X   Delta X     New X
                                 (Linear)    (Quad)   (Total)
    R1        2.20759   0.00188   0.00113   0.00041   0.00153   2.20912
    R2        2.03955  -0.00023   0.00099  -0.00150  -0.00051   2.03905
    A1        3.14159  -0.00000   0.00000  -0.00000   0.00000   3.14159
    A2        3.14159   0.00000   0.00000   0.00000   0.00000   3.14159
         Item               Value     Threshold  Converged?
 Maximum Force            0.001878     0.000450     NO 
 RMS     Force            0.000946     0.000300     NO 
 Maximum Displacement     0.000854     0.001800     YES
 RMS     Displacement     0.000553     0.001200     YES
 Predicted change in Energy=-1.472039D-06
 Lowest energy point so far.  Saving SCF results.
 Largest change from initial coordinates is atom    3       0.020 Angstoms.
 GradGradGradGradGradGradGradGradGradGradGradGradGradGradGradGradGradGrad

 Leave Link  103 at Wed Oct  7 16:10:15 2020, MaxMem=  2684354560 cpu:               1.8 elap:               0.6
 (Enter /udrive/faculty/rpeverati/g16/g16/l202.exe)
                          Input orientation:                          
 ---------------------------------------------------------------------
 Center     Atomic      Atomic             Coordinates (Angstroms)
 Number     Number       Type             X           Y           Z
 ---------------------------------------------------------------------
      1          6           0        0.000000    0.000000   -0.501338
      2          7           0        0.000000    0.000000    0.667679
      3          1           0        0.000000    0.000000   -1.580356
 ---------------------------------------------------------------------
                    Distance matrix (angstroms):
                    1          2          3
     1  C    0.000000
     2  N    1.169017   0.000000
     3  H    1.079018   2.248035   0.000000
 Stoichiometry    CHN
 Framework group  C*V[C*(HCN)]
 Deg. of freedom     2
 Full point group                 C*V     NOp   4
 RotChk:  IX=0 Diff= 0.00D+00
 Largest Abelian subgroup         C2V     NOp   4
 Largest concise Abelian subgroup C1      NOp   1
                         Standard orientation:                         
 ---------------------------------------------------------------------
 Center     Atomic      Atomic             Coordinates (Angstroms)
 Number     Number       Type             X           Y           Z
 ---------------------------------------------------------------------
      1          6           0        0.000000    0.000000   -0.507436
      2          7           0        0.000000    0.000000    0.661581
      3          1           0        0.000000    0.000000   -1.586454
 ---------------------------------------------------------------------
 Rotational constants (GHZ):           0.0000000          43.3301062          43.3301062
 Leave Link  202 at Wed Oct  7 16:10:15 2020, MaxMem=  2684354560 cpu:               1.0 elap:               0.4
 (Enter /udrive/faculty/rpeverati/g16/g16/l301.exe)
 Standard basis: 6-31G(d) (5D, 7F)
 Ernie: Thresh=  0.10000D-02 Tol=  0.10000D-05 Strict=F.
 There are    18 symmetry adapted cartesian basis functions of A1  symmetry.
 There are     2 symmetry adapted cartesian basis functions of A2  symmetry.
 There are     6 symmetry adapted cartesian basis functions of B1  symmetry.
 There are     6 symmetry adapted cartesian basis functions of B2  symmetry.
 There are    16 symmetry adapted basis functions of A1  symmetry.
 There are     2 symmetry adapted basis functions of A2  symmetry.
 There are     6 symmetry adapted basis functions of B1  symmetry.
 There are     6 symmetry adapted basis functions of B2  symmetry.
    30 basis functions,    60 primitive gaussians,    32 cartesian basis functions
     7 alpha electrons        7 beta electrons
       nuclear repulsion energy        23.6023953872 Hartrees.
 IExCor= 1009 DFT=T Ex=PBE Corr=PBE ExCW=0 ScaHFX=  0.000000
 ScaDFX=  1.000000  1.000000  1.000000  1.000000 ScalE2=  1.000000  1.000000
 IRadAn=      5 IRanWt=     -1 IRanGd=            0 ICorTp=0 IEmpDi=  4
 NAtoms=    3 NActive=    3 NUniq=    3 SFac= 1.00D+00 NAtFMM=   60 NAOKFM=F Big=F
 Integral buffers will be    131072 words long.
 Raffenetti 2 integral format.
 Two-electron integral symmetry is turned on.
 Leave Link  301 at Wed Oct  7 16:10:16 2020, MaxMem=  2684354560 cpu:               1.8 elap:               0.5
 (Enter /udrive/faculty/rpeverati/g16/g16/l302.exe)
 NPDir=0 NMtPBC=     1 NCelOv=     1 NCel=       1 NClECP=     1 NCelD=      1
         NCelK=      1 NCelE2=     1 NClLst=     1 CellRange=     0.0.
 One-electron integrals computed using PRISM.
 One-electron integral symmetry used in STVInt
 NBasis=    30 RedAO= T EigKep=  4.53D-03  NBF=    16     2     6     6
 NBsUse=    30 1.00D-06 EigRej= -1.00D+00 NBFU=    16     2     6     6
 Precomputing XC quadrature grid using
 IXCGrd= 4 IRadAn=           5 IRanWt=          -1 IRanGd=           0 AccXCQ= 0.00D+00.
 Generated NRdTot=       0 NPtTot=           0 NUsed=           0 NTot=          32
 NSgBfM=    32    32    32    32    32 MxSgAt=     3 MxSgA2=     3.
 Leave Link  302 at Wed Oct  7 16:10:17 2020, MaxMem=  2684354560 cpu:               6.4 elap:               1.0
 (Enter /udrive/faculty/rpeverati/g16/g16/l303.exe)
 DipDrv:  MaxL=1.
 Leave Link  303 at Wed Oct  7 16:10:18 2020, MaxMem=  2684354560 cpu:               1.6 elap:               0.5
 (Enter /udrive/faculty/rpeverati/g16/g16/l401.exe)
 Initial guess from the checkpoint file:  "MN_48_hcn_BH76_PBE_631Gs.chk"
 SCF N**3 symmetry information disabled.
 B after Tr=     0.000000    0.000000   -0.000000
         Rot=    1.000000    0.000000    0.000000    0.000000 Ang=   0.00 deg.
 Guess basis will be translated and rotated to current coordinates.
 JPrj=2 DoOrth=T DoCkMO=T.
 Initial guess orbital symmetries:
       Occupied  (SG) (SG) (SG) (SG) (SG) (PI) (PI)
       Virtual   (PI) (PI) (SG) (SG) (PI) (PI) (SG) (SG) (PI) (PI)
                 (SG) (SG) (SG) (DLTA) (DLTA) (PI) (PI) (DLTA)
                 (DLTA) (PI) (PI) (SG) (SG)
 The electronic state of the initial guess is 1-SG.
 Leave Link  401 at Wed Oct  7 16:10:19 2020, MaxMem=  2684354560 cpu:               2.6 elap:               0.6
 (Enter /udrive/faculty/rpeverati/g16/g16/l502.exe)
 Keep J ints in memory in symmetry-blocked form, NReq=10459988.
 FoFCou: FMM=F IPFlag=           0 FMFlag=           0 FMFlg1=           0
         NFxFlg=           0 DoJE=F BraDBF=F KetDBF=F FulRan=T
         wScrn=  0.000000 ICntrl=       600 IOpCl=  0 I1Cent=           0 NGrid=           0
         NMat0=    1 NMatS0=    465 NMatT0=    0 NMatD0=    1 NMtDS0=    0 NMtDT0=    0
 Petite list used in FoFCou.
 Closed shell SCF:
 Using DIIS extrapolation, IDIIS=  1040.
 NGot=  2684354560 LenX=  2684318858 LenY=  2684317393
 Requested convergence on RMS density matrix=1.00D-08 within 120 cycles.
 Requested convergence on MAX density matrix=1.00D-06.
 Requested convergence on             energy=1.00D-06.
 No special actions if energy rises.

 Cycle   1  Pass 1  IDiag  1:
 E= -93.3048184919027    
 DIIS: error= 9.21D-05 at cycle   1 NSaved=   1.
 NSaved= 1 IEnMin= 1 EnMin= -93.3048184919027     IErMin= 1 ErrMin= 9.21D-05
 ErrMax= 9.21D-05  0.00D+00 EMaxC= 1.00D-01 BMatC= 3.36D-07 BMatP= 3.36D-07
 IDIUse=1 WtCom= 1.00D+00 WtEn= 0.00D+00
 Coeff-Com:  0.100D+01
 Coeff:      0.100D+01
 Gap=     0.297 Goal=   None    Shift=    0.000
 RMSDP=4.12D-05 MaxDP=3.76D-04              OVMax= 3.66D-04

 Cycle   2  Pass 1  IDiag  1:
 E= -93.3048185574677     Delta-E=       -0.000000065565 Rises=F Damp=F
 DIIS: error= 1.12D-04 at cycle   2 NSaved=   2.
 NSaved= 2 IEnMin= 2 EnMin= -93.3048185574677     IErMin= 1 ErrMin= 9.21D-05
 ErrMax= 1.12D-04  0.00D+00 EMaxC= 1.00D-01 BMatC= 3.50D-07 BMatP= 3.36D-07
 IDIUse=3 WtCom= 9.99D-01 WtEn= 1.12D-03
 Coeff-Com:  0.506D+00 0.494D+00
 Coeff-En:   0.435D+00 0.565D+00
 Coeff:      0.506D+00 0.494D+00
 Gap=     0.297 Goal=   None    Shift=    0.000
 RMSDP=2.51D-05 MaxDP=2.57D-04 DE=-6.56D-08 OVMax= 4.14D-04

 Cycle   3  Pass 1  IDiag  1:
 E= -93.3048184980860     Delta-E=        0.000000059382 Rises=F Damp=F
 DIIS: error= 1.58D-04 at cycle   3 NSaved=   3.
 NSaved= 3 IEnMin= 2 EnMin= -93.3048185574677     IErMin= 1 ErrMin= 9.21D-05
 ErrMax= 1.58D-04  0.00D+00 EMaxC= 1.00D-01 BMatC= 4.17D-07 BMatP= 3.36D-07
 IDIUse=3 WtCom= 4.43D-01 WtEn= 5.57D-01
 Coeff-Com:  0.210D+00 0.458D+00 0.332D+00
 Coeff-En:   0.000D+00 0.531D+00 0.469D+00
 Coeff:      0.931D-01 0.498D+00 0.409D+00
 Gap=     0.297 Goal=   None    Shift=    0.000
 RMSDP=1.51D-05 MaxDP=1.53D-04 DE= 5.94D-08 OVMax= 2.81D-04

 Cycle   4  Pass 1  IDiag  1:
 E= -93.3048188532156     Delta-E=       -0.000000355130 Rises=F Damp=F
 DIIS: error= 2.91D-05 at cycle   4 NSaved=   4.
 NSaved= 4 IEnMin= 4 EnMin= -93.3048188532156     IErMin= 4 ErrMin= 2.91D-05
 ErrMax= 2.91D-05  0.00D+00 EMaxC= 1.00D-01 BMatC= 2.47D-08 BMatP= 3.36D-07
 IDIUse=1 WtCom= 1.00D+00 WtEn= 0.00D+00
 Coeff-Com:  0.182D-01 0.202D+00 0.243D+00 0.537D+00
 Coeff:      0.182D-01 0.202D+00 0.243D+00 0.537D+00
 Gap=     0.297 Goal=   None    Shift=    0.000
 RMSDP=4.24D-06 MaxDP=3.91D-05 DE=-3.55D-07 OVMax= 5.01D-05

 Cycle   5  Pass 1  IDiag  1:
 E= -93.3048188783318     Delta-E=       -0.000000025116 Rises=F Damp=F
 DIIS: error= 1.12D-06 at cycle   5 NSaved=   5.
 NSaved= 5 IEnMin= 5 EnMin= -93.3048188783318     IErMin= 5 ErrMin= 1.12D-06
 ErrMax= 1.12D-06  0.00D+00 EMaxC= 1.00D-01 BMatC= 5.08D-11 BMatP= 2.47D-08
 IDIUse=1 WtCom= 1.00D+00 WtEn= 0.00D+00
 Coeff-Com:  0.671D-03 0.327D-01 0.509D-01 0.122D+00 0.794D+00
 Coeff:      0.671D-03 0.327D-01 0.509D-01 0.122D+00 0.794D+00
 Gap=     0.297 Goal=   None    Shift=    0.000
 RMSDP=2.90D-07 MaxDP=1.84D-06 DE=-2.51D-08 OVMax= 3.45D-06

 Cycle   6  Pass 1  IDiag  1:
 E= -93.3048188783934     Delta-E=       -0.000000000062 Rises=F Damp=F
 DIIS: error= 9.59D-08 at cycle   6 NSaved=   6.
 NSaved= 6 IEnMin= 6 EnMin= -93.3048188783934     IErMin= 6 ErrMin= 9.59D-08
 ErrMax= 9.59D-08  0.00D+00 EMaxC= 1.00D-01 BMatC= 1.58D-13 BMatP= 5.08D-11
 IDIUse=1 WtCom= 1.00D+00 WtEn= 0.00D+00
 Coeff-Com:  0.616D-06 0.327D-02 0.573D-02 0.144D-01 0.134D+00 0.842D+00
 Coeff:      0.616D-06 0.327D-02 0.573D-02 0.144D-01 0.134D+00 0.842D+00
 Gap=     0.297 Goal=   None    Shift=    0.000
 RMSDP=1.57D-08 MaxDP=1.02D-07 DE=-6.16D-11 OVMax= 1.83D-07

 Cycle   7  Pass 1  IDiag  1:
 E= -93.3048188783936     Delta-E=       -0.000000000000 Rises=F Damp=F
 DIIS: error= 8.89D-09 at cycle   7 NSaved=   7.
 NSaved= 7 IEnMin= 7 EnMin= -93.3048188783936     IErMin= 7 ErrMin= 8.89D-09
 ErrMax= 8.89D-09  0.00D+00 EMaxC= 1.00D-01 BMatC= 1.41D-15 BMatP= 1.58D-13
 IDIUse=1 WtCom= 1.00D+00 WtEn= 0.00D+00
 Coeff-Com: -0.360D-05 0.198D-03 0.442D-03 0.103D-02 0.116D-01 0.846D-01
 Coeff-Com:  0.902D+00
 Coeff:     -0.360D-05 0.198D-03 0.442D-03 0.103D-02 0.116D-01 0.846D-01
 Coeff:      0.902D+00
 Gap=     0.297 Goal=   None    Shift=    0.000
 RMSDP=9.50D-10 MaxDP=7.13D-09 DE=-1.99D-13 OVMax= 1.22D-08

 SCF Done:  E(RPBE-PBE) =  -93.3048188784     A.U. after    7 cycles
            NFock=  7  Conv=0.95D-09     -V/T= 2.0067
 KE= 9.268414407322D+01 PE=-2.649658106495D+02 EE= 5.537445231070D+01
 Leave Link  502 at Wed Oct  7 16:10:20 2020, MaxMem=  2684354560 cpu:               8.9 elap:               1.1
 (Enter /udrive/faculty/rpeverati/g16/g16/l508.exe)
 QCSCF skips out because SCF is already converged.
 Leave Link  508 at Wed Oct  7 16:10:21 2020, MaxMem=  2684354560 cpu:               0.3 elap:               0.4
 (Enter /udrive/faculty/rpeverati/g16/g16/l701.exe)
 ... and contract with generalized density number  0.
 Compute integral first derivatives.
 Leave Link  701 at Wed Oct  7 16:10:22 2020, MaxMem=  2684354560 cpu:               4.2 elap:               0.7
 (Enter /udrive/faculty/rpeverati/g16/g16/l702.exe)
 L702 exits ... SP integral derivatives will be done elsewhere.
 Leave Link  702 at Wed Oct  7 16:10:23 2020, MaxMem=  2684354560 cpu:               1.5 elap:               0.5
 (Enter /udrive/faculty/rpeverati/g16/g16/l703.exe)
 Integral derivatives from FoFJK, PRISM(SPDF).
 Compute integral first derivatives, UseDBF=F ICtDFT=           0.
 Calling FoFJK, ICntrl=      2527 FMM=F ISym2X=1 I1Cent= 0 IOpClX= 0 NMat=1 NMatS=1 NMatT=0.
 FoFJK:  IHMeth= 1 ICntrl=    2527 DoSepK=F KAlg= 0 I1Cent=           0 FoldK=F
 IRaf=         0 NMat=       1 IRICut=       1 DoRegI=T DoRafI=F ISym2E= 1 IDoP0=0 IntGTp=1.
 FoFCou: FMM=F IPFlag=           0 FMFlag=      100000 FMFlg1=         800
         NFxFlg=           0 DoJE=F BraDBF=F KetDBF=F FulRan=T
         wScrn=  0.000000 ICntrl=      2527 IOpCl=  0 I1Cent=           0 NGrid=           0
         NMat0=    1 NMatS0=      1 NMatT0=    0 NMatD0=    1 NMtDS0=    0 NMtDT0=    0
 Petite list used in FoFCou.
 Leave Link  703 at Wed Oct  7 16:10:24 2020, MaxMem=  2684354560 cpu:               4.8 elap:               0.7
 (Enter /udrive/faculty/rpeverati/g16/g16/l716.exe)
 Dipole        = 0.00000000D+00 2.27492877D-34-1.10349504D+00
 ***** Axes restored to original set *****
 -------------------------------------------------------------------
 Center     Atomic                   Forces (Hartrees/Bohr)
 Number     Number              X              Y              Z
 -------------------------------------------------------------------
      1        6           0.000000000    0.000000000   -0.000030058
      2        7          -0.000000000   -0.000000000    0.000017358
      3        1          -0.000000000   -0.000000000    0.000012700
 -------------------------------------------------------------------
 Cartesian Forces:  Max     0.000030058 RMS     0.000012320
 Leave Link  716 at Wed Oct  7 16:10:24 2020, MaxMem=  2684354560 cpu:               1.6 elap:               0.5
 (Enter /udrive/faculty/rpeverati/g16/g16/l103.exe)

 GradGradGradGradGradGradGradGradGradGradGradGradGradGradGradGradGradGrad
 Berny optimization.
 Optmz: redundant internal coordinate code flag= 1
 Using GEDIIS/GDIIS optimizer.
 Red2BG:  D1=  1.00D+00 OD1=  3.33D-16 B2RMS=  0.00D+00 IAprox=1
 Red2BG is reusing G-inverse.
 Internal  Forces:  Max     0.000017358 RMS     0.000010754
 Search for a local minimum.
 Step number   3 out of a maximum of  100
 All quantities printed in internal units (Hartrees-Bohrs-Radians)
 RMS Force = .10754D-04 SwitMx=.10000D-02 MixMth= 2
 Mixed Optimization -- En-DIIS/RFO-DIIS
 Swapping is turned off.
 Update second derivatives using D2CorX and points    1    2    3
 DE= -1.51D-06 DEPred=-1.47D-06 R= 1.03D+00
 TightC=F SS=  1.41D+00  RLast= 1.61D-03 DXNew= 5.0454D-01 4.8442D-03
 Trust test= 1.03D+00 RLast= 1.61D-03 DXMaxT set to 3.00D-01
 The second derivative matrix:
                          R1        R2        A1        A2
           R1           1.20853
           R2          -0.01470   0.38797
           A1          -0.00000   0.00000   0.00553
           A2           0.00000  -0.00000  -0.00000   0.00553
 ITU=  1  1  0
 Eigenvectors of the second derivative matrix:
                           1         2         3         4
     Eigenvalues --     0.00553   0.00553   0.38771   1.20880
   1         R1         0.00000  -0.00000  -0.01790  -0.99984
   2         R2        -0.00000   0.00000  -0.99984   0.01790
   3         A1        -0.75573  -0.65488  -0.00000   0.00000
   4         A2        -0.65488   0.75573   0.00000  -0.00000
 DoSqrt=T IScMMF=    -3 MM Scaling Factor =       0.00000
 En-DIIS/RFO-DIIS/Sim-DIIS IScMMF=       -3 using points:     3    2
 Iter=   1 RLamda=-4.44670854D-02 Sum=-6.01698851D-10.
 Iter=   2 RLamda=-6.01698851D-10 Sum=-6.51492040D-10.
 RFO step:  Lambda=-6.01698851D-10.
 NNeg= 0 NGDIIS= 2 SimSw=  2.50D-03 Rises=F DC= -1.51D-06 SmlDif=  1.00D-05
 NRisDI= 0 DoIntr=F SqrtH=F CThrHd= 10.0 CDAdj=  3.0
 RMS Error=  0.1755212235D-04 NUsed= 2 OKEnD=F EnDIS=F
 Total RFO-DIIS matrix:
                 1             2             3 
      1   0.000000D+00 -0.100000D+01 -0.100000D+01
      2  -0.100000D+01  0.123231D-08  0.389435D-07
      3  -0.100000D+01  0.389435D-07  0.268405D-05
 InvSVX:  RCond= 6.52D-07 Info=           0 Equed=N FErr=  9.17D-16 BErr=  8.38D-17
 DidBck=F Rises=F RFO-DIIS coefs:    1.01446   -0.01446
 Iteration  1 RMS(Cart)=  0.00001142 RMS(Int)=  0.00000000
 Iteration  2 RMS(Cart)=  0.00000000 RMS(Int)=  0.00000000
 ITry= 1 IFail=0 DXMaxC= 1.68D-05 DCOld= 1.00D+10 DXMaxT= 3.00D-01 DXLimC= 3.00D+00 Rises=F
 ClnCor:  largest displacement from symmetrization is 0.00D+00 for atom     0.
 Variable       Old X    -DE/DX   Delta X   Delta X   Delta X     New X
                                 (Linear)    (Quad)   (Total)
    R1        2.20912   0.00002   0.00002  -0.00001   0.00001   2.20914
    R2        2.03905  -0.00001  -0.00001  -0.00002  -0.00003   2.03902
    A1        3.14159   0.00000   0.00000  -0.00000   0.00000   3.14159
    A2        3.14159  -0.00000   0.00000  -0.00000   0.00000   3.14159
         Item               Value     Threshold  Converged?
 Maximum Force            0.000017     0.000450     YES
 RMS     Force            0.000011     0.000300     YES
 Maximum Displacement     0.000017     0.001800     YES
 RMS     Displacement     0.000011     0.001200     YES
 Predicted change in Energy=-3.257460D-10
 Optimization completed.
    -- Stationary point found.
                           ----------------------------
                           !   Optimized Parameters   !
                           ! (Angstroms and Degrees)  !
 --------------------------                            --------------------------
 ! Name  Definition              Value          Derivative Info.                !
 --------------------------------------------------------------------------------
 ! R1    R(1,2)                  1.169          -DE/DX =    0.0                 !
 ! R2    R(1,3)                  1.079          -DE/DX =    0.0                 !
 ! A1    L(2,1,3,-1,-1)        180.0            -DE/DX =    0.0                 !
 ! A2    L(2,1,3,-2,-2)        180.0            -DE/DX =    0.0                 !
 --------------------------------------------------------------------------------
 Lowest energy point so far.  Saving SCF results.
 Largest change from initial coordinates is atom    3       0.020 Angstoms.
 GradGradGradGradGradGradGradGradGradGradGradGradGradGradGradGradGradGrad

 Leave Link  103 at Wed Oct  7 16:10:25 2020, MaxMem=  2684354560 cpu:               3.5 elap:               0.6
 (Enter /udrive/faculty/rpeverati/g16/g16/l202.exe)
                          Input orientation:                          
 ---------------------------------------------------------------------
 Center     Atomic      Atomic             Coordinates (Angstroms)
 Number     Number       Type             X           Y           Z
 ---------------------------------------------------------------------
      1          6           0        0.000000    0.000000   -0.501338
      2          7           0        0.000000    0.000000    0.667679
      3          1           0        0.000000    0.000000   -1.580356
 ---------------------------------------------------------------------
                    Distance matrix (angstroms):
                    1          2          3
     1  C    0.000000
     2  N    1.169017   0.000000
     3  H    1.079018   2.248035   0.000000
 Stoichiometry    CHN
 Framework group  C*V[C*(HCN)]
 Deg. of freedom     2
 Full point group                 C*V     NOp   4
 RotChk:  IX=0 Diff= 0.00D+00
 Largest Abelian subgroup         C2V     NOp   4
 Largest concise Abelian subgroup C1      NOp   1
                         Standard orientation:                         
 ---------------------------------------------------------------------
 Center     Atomic      Atomic             Coordinates (Angstroms)
 Number     Number       Type             X           Y           Z
 ---------------------------------------------------------------------
      1          6           0        0.000000    0.000000   -0.507436
      2          7           0        0.000000    0.000000    0.661581
      3          1           0        0.000000    0.000000   -1.586454
 ---------------------------------------------------------------------
 Rotational constants (GHZ):           0.0000000          43.3301062          43.3301062
 Leave Link  202 at Wed Oct  7 16:10:26 2020, MaxMem=  2684354560 cpu:               1.2 elap:               0.4
 (Enter /udrive/faculty/rpeverati/g16/g16/l601.exe)
 Copying SCF densities to generalized density rwf, IOpCl= 0 IROHF=0.

 **********************************************************************

            Population analysis using the SCF density.

 **********************************************************************

 Orbital symmetries:
       Occupied  (SG) (SG) (SG) (SG) (SG) (PI) (PI)
       Virtual   (PI) (PI) (SG) (SG) (PI) (PI) (SG) (SG) (PI) (PI)
                 (SG) (SG) (SG) (DLTA) (DLTA) (PI) (PI) (DLTA)
                 (DLTA) (PI) (PI) (SG) (SG)
 The electronic state is 1-SG.
 Alpha  occ. eigenvalues --  -14.02285  -9.94705  -0.83011  -0.54741  -0.32222
 Alpha  occ. eigenvalues --   -0.31524  -0.31524
 Alpha virt. eigenvalues --   -0.01820  -0.01820   0.05291   0.25761   0.48660
 Alpha virt. eigenvalues --    0.48660   0.61170   0.65116   0.72537   0.72537
 Alpha virt. eigenvalues --    0.77470   1.00932   1.42627   1.44241   1.44241
 Alpha virt. eigenvalues --    1.44998   1.44998   1.86500   1.86500   2.45744
 Alpha virt. eigenvalues --    2.45744   2.52667   2.87250
          Condensed to atoms (all electrons):
               1          2          3
     1  C    4.769915   0.882387   0.327276
     2  N    0.882387   6.418745  -0.035175
     3  H    0.327276  -0.035175   0.462365
 Mulliken charges:
               1
     1  C    0.020423
     2  N   -0.265957
     3  H    0.245534
 Sum of Mulliken charges =  -0.00000
 Mulliken charges with hydrogens summed into heavy atoms:
               1
     1  C    0.265957
     2  N   -0.265957
 Electronic spatial extent (au):  <R**2>=             49.4711
 Charge=             -0.0000 electrons
 Dipole moment (field-independent basis, Debye):
    X=              0.0000    Y=              0.0000    Z=             -2.8048  Tot=              2.8048
 Quadrupole moment (field-independent basis, Debye-Ang):
   XX=            -11.4014   YY=            -11.4014   ZZ=             -9.5119
   XY=             -0.0000   XZ=              0.0000   YZ=             -0.0000
 Traceless Quadrupole moment (field-independent basis, Debye-Ang):
   XX=             -0.6298   YY=             -0.6298   ZZ=              1.2596
   XY=             -0.0000   XZ=              0.0000   YZ=             -0.0000
 Octapole moment (field-independent basis, Debye-Ang**2):
  XXX=              0.0000  YYY=              0.0000  ZZZ=             -6.7339  XYY=              0.0000
  XXY=             -0.0000  XXZ=             -0.0596  XZZ=              0.0000  YZZ=             -0.0000
  YYZ=             -0.0596  XYZ=              0.0000
 Hexadecapole moment (field-independent basis, Debye-Ang**3):
 XXXX=            -10.2840 YYYY=            -10.2840 ZZZZ=            -35.4814 XXXY=             -0.0000
 XXXZ=              0.0000 YYYX=             -0.0000 YYYZ=              0.0000 ZZZX=              0.0000
 ZZZY=             -0.0000 XXYY=             -3.4280 XXZZ=             -8.7489 YYZZ=             -8.7489
 XXYZ=             -0.0000 YYXZ=              0.0000 ZZXY=             -0.0000
 N-N= 2.360239538723D+01 E-N=-2.649658107368D+02  KE= 9.268414407322D+01
 No NMR shielding tensors so no spin-rotation constants.
 Leave Link  601 at Wed Oct  7 16:10:27 2020, MaxMem=  2684354560 cpu:               3.9 elap:               0.7
 (Enter /udrive/faculty/rpeverati/g16/g16/l9999.exe)

 Test job not archived.
 1\1\GINC-NODE53\FOpt\RPBEPBE\6-31G(d)\C1H1N1\RPEVERATI\07-Oct-2020\0\\
 #P Opt(MaxCyc=100) PBEPBE/6-31G* 5D 7F Integral=UltraFineGrid SCF=(NoS
 ymm,XQC,MaxCyc=120) IOp(1/33=1)\\TS search on BH76.\\0,1\C,0.,0.,-0.50
 13383977\N,0.,0.,0.6676786378\H,0.,0.,-1.5803562526\\Version=ES64L-G16
 RevA.03\State=1-SG\HF=-93.3048189\RMSD=9.495e-10\RMSF=1.232e-05\Dipole
 =0.,0.,-1.103495\Quadrupole=-0.4682572,-0.4682572,0.9365143,0.,0.,0.\P
 G=C*V [C*(H1C1N1)]\\@


 HE THAT FOLLOWS NATURE IS NEVER LOST.

                             -- BACON
 Job cpu time:       0 days  0 hours  2 minutes 44.5 seconds.
 Elapsed time:       0 days  0 hours  0 minutes 29.9 seconds.
 File lengths (MBytes):  RWF=      5 Int=      0 D2E=      0 Chk=      1 Scr=      1
 Normal termination of Gaussian 16 at Wed Oct  7 16:10:28 2020.
