 Entering Gaussian System, Link 0=g16
 Input=MN_50_hco_BH76_PBE_631Gs.in
 Output=MN_50_hco_BH76_PBE_631Gs.log
 Initial command:
 /udrive/faculty/rpeverati/g16/g16/l1.exe "/udrive/scratch-directories/gaussian09/rpeverati/Gau-36092.inp" -scrdir="/udrive/scratch-directories/gaussian09/rpeverati/"
 Entering Link 1 = /udrive/faculty/rpeverati/g16/g16/l1.exe PID=     36093.
  
 Copyright (c) 1988,1990,1992,1993,1995,1998,2003,2009,2016,
            Gaussian, Inc.  All Rights Reserved.
  
 This is part of the Gaussian(R) 16 program.  It is based on
 the Gaussian(R) 09 system (copyright 2009, Gaussian, Inc.),
 the Gaussian(R) 03 system (copyright 2003, Gaussian, Inc.),
 the Gaussian(R) 98 system (copyright 1998, Gaussian, Inc.),
 the Gaussian(R) 94 system (copyright 1995, Gaussian, Inc.),
 the Gaussian 92(TM) system (copyright 1992, Gaussian, Inc.),
 the Gaussian 90(TM) system (copyright 1990, Gaussian, Inc.),
 the Gaussian 88(TM) system (copyright 1988, Gaussian, Inc.),
 the Gaussian 86(TM) system (copyright 1986, Carnegie Mellon
 University), and the Gaussian 82(TM) system (copyright 1983,
 Carnegie Mellon University). Gaussian is a federally registered
 trademark of Gaussian, Inc.
  
 This software contains proprietary and confidential information,
 including trade secrets, belonging to Gaussian, Inc.
  
 This software is provided under written license and may be
 used, copied, transmitted, or stored only in accord with that
 written license.
  
 The following legend is applicable only to US Government
 contracts under FAR:
  
                    RESTRICTED RIGHTS LEGEND
  
 Use, reproduction and disclosure by the US Government is
 subject to restrictions as set forth in subparagraphs (a)
 and (c) of the Commercial Computer Software - Restricted
 Rights clause in FAR 52.227-19.
  
 Gaussian, Inc.
 340 Quinnipiac St., Bldg. 40, Wallingford CT 06492
  
  
 ---------------------------------------------------------------
 Warning -- This program may not be used in any manner that
 competes with the business of Gaussian, Inc. or will provide
 assistance to any competitor of Gaussian, Inc.  The licensee
 of this program is prohibited from giving any competitor of
 Gaussian, Inc. access to this program.  By using this program,
 the user acknowledges that Gaussian, Inc. is engaged in the
 business of creating and licensing software in the field of
 computational chemistry and represents and warrants to the
 licensee that it is not a competitor of Gaussian, Inc. and that
 it will not use this program in any manner prohibited above.
 ---------------------------------------------------------------
  

 Cite this work as:
 Gaussian 16, Revision A.03,
 M. J. Frisch, G. W. Trucks, H. B. Schlegel, G. E. Scuseria, 
 M. A. Robb, J. R. Cheeseman, G. Scalmani, V. Barone, 
 G. A. Petersson, H. Nakatsuji, X. Li, M. Caricato, A. V. Marenich, 
 J. Bloino, B. G. Janesko, R. Gomperts, B. Mennucci, H. P. Hratchian, 
 J. V. Ortiz, A. F. Izmaylov, J. L. Sonnenberg, D. Williams-Young, 
 F. Ding, F. Lipparini, F. Egidi, J. Goings, B. Peng, A. Petrone, 
 T. Henderson, D. Ranasinghe, V. G. Zakrzewski, J. Gao, N. Rega, 
 G. Zheng, W. Liang, M. Hada, M. Ehara, K. Toyota, R. Fukuda, 
 J. Hasegawa, M. Ishida, T. Nakajima, Y. Honda, O. Kitao, H. Nakai, 
 T. Vreven, K. Throssell, J. A. Montgomery, Jr., J. E. Peralta, 
 F. Ogliaro, M. J. Bearpark, J. J. Heyd, E. N. Brothers, K. N. Kudin, 
 V. N. Staroverov, T. A. Keith, R. Kobayashi, J. Normand, 
 K. Raghavachari, A. P. Rendell, J. C. Burant, S. S. Iyengar, 
 J. Tomasi, M. Cossi, J. M. Millam, M. Klene, C. Adamo, R. Cammi, 
 J. W. Ochterski, R. L. Martin, K. Morokuma, O. Farkas, 
 J. B. Foresman, and D. J. Fox, Gaussian, Inc., Wallingford CT, 2016.
 
 ******************************************
 Gaussian 16:  ES64L-G16RevA.03 25-Dec-2016
                 7-Oct-2020 
 ******************************************
 %NoSave
 %nproc=12
 Will use up to   12 processors via shared memory.
 %mem=20GB
 %chk=MN_50_hco_BH76_PBE_631Gs
 ----------------------------------------------------------------------
 #P Opt(MaxCyc=100) PBEPBE/6-31G* 5D 7F Integral=UltraFineGrid SCF=(NoS
 ymm,XQC,MaxCyc=120) IOp(1/33=1)
 ----------------------------------------------------------------------
 1/6=100,18=20,19=15,26=4,33=1,38=1/1,3;
 2/9=110,12=2,17=6,18=5,40=1/2;
 3/5=1,6=6,7=1,8=11,11=2,25=1,30=1,71=1,74=1009,75=-5/1,2,3;
 4/9=2/1;
 5/5=2,7=120,8=3,13=1,38=5/2,8;
 6/7=2,8=2,9=2,10=2,28=1/1;
 7//1,2,3,16;
 1/6=100,18=20,19=15,26=4,33=1/3(2);
 2/9=110/2;
 99//99;
 2/9=110/2;
 3/5=1,6=6,7=1,8=11,11=2,25=1,30=1,71=1,74=1009,75=-5/1,2,3;
 4/5=5,9=2,16=3,69=1/1;
 5/5=2,7=120,8=3,13=1,38=5/2,8;
 7//1,2,3,16;
 1/6=100,18=20,19=15,26=4,33=1/3(-5);
 2/9=110/2;
 6/7=2,8=2,9=2,10=2,19=2,28=1/1;
 99/9=1/99;
 Leave Link    1 at Wed Oct  7 16:09:55 2020, MaxMem=  2684354560 cpu:               8.3 elap:               0.8
 (Enter /udrive/faculty/rpeverati/g16/g16/l101.exe)
 ONIOM data not found on unit 2.
 ------------------
 TS search on BH76.
 ------------------
 TstMul:  ICh=     0
 TstMul:  Mul=     2
 TstMul:  ICh=     0
 TstMul:  Mul=     2
 Symbolic Z-matrix:
 Charge =  0 Multiplicity = 2
 H                    -0.85205   1.22789   0. 
 C                     0.06086   0.58466   0. 
 O                     0.06086  -0.59197   0. 
 
 RdStrC is calling ZToCFu for IStruc=1 NZ=     3.
 PrtBox:  NBox=     1 Levels=  1 BoxLen=    8.00 SMaxX=        3.44
          Shift=            1.610150            1.118670            0.000000
 Box      1 Number                   0 centers from      1 to      3:
 After GenITR:
 ITRead=  0  0  0
 MicOpt= -1 -1 -1
 ITRead=  0  0  0
 MicOpt= -1 -1 -1
 NAtoms=      3 NQM=        3 NQMF=       0 NMMI=      0 NMMIF=      0
                NMic=       0 NMicF=      0.
                    Isotopes and Nuclear Properties:
 (Nuclear quadrupole moments (NQMom) in fm**2, nuclear magnetic moments (NMagM)
  in nuclear magnetons)

  Atom         1           2           3
 IAtWgt=           1          12          16
 AtmWgt=   1.0078250  12.0000000  15.9949146
 NucSpn=           1           0           0
 AtZEff=   0.0000000   0.0000000   0.0000000
 NQMom=    0.0000000   0.0000000   0.0000000
 NMagM=    2.7928460   0.0000000   0.0000000
 AtZNuc=   1.0000000   6.0000000   8.0000000
 No MM parameters found.
 Leave Link  101 at Wed Oct  7 16:09:57 2020, MaxMem=  2684354560 cpu:              13.5 elap:               1.3
 (Enter /udrive/faculty/rpeverati/g16/g16/l103.exe)

 GradGradGradGradGradGradGradGradGradGradGradGradGradGradGradGradGradGrad
 Berny optimization.
 Optmz: redundant internal coordinate code flag= 1
 Initialization pass.
                           ----------------------------
                           !    Initial Parameters    !
                           ! (Angstroms and Degrees)  !
 --------------------------                            --------------------------
 ! Name  Definition              Value          Derivative Info.                !
 --------------------------------------------------------------------------------
 ! R1    R(1,2)                  1.1168         estimate D2E/DX2                !
 ! R2    R(2,3)                  1.1766         estimate D2E/DX2                !
 ! A1    A(1,2,3)              125.1683         estimate D2E/DX2                !
 --------------------------------------------------------------------------------
 Maximum allowed force set to 1.00D+20.
 Trust Radius=3.00D-01 FncErr=1.00D-07 GrdErr=1.00D-06 EigMax=2.50D+02 EigMin=1.00D-04
 Number of steps in this run=    100 maximum allowed number of steps=    100.
 GradGradGradGradGradGradGradGradGradGradGradGradGradGradGradGradGradGrad

 Leave Link  103 at Wed Oct  7 16:09:58 2020, MaxMem=  2684354560 cpu:               1.0 elap:               0.4
 (Enter /udrive/faculty/rpeverati/g16/g16/l202.exe)
                          Input orientation:                          
 ---------------------------------------------------------------------
 Center     Atomic      Atomic             Coordinates (Angstroms)
 Number     Number       Type             X           Y           Z
 ---------------------------------------------------------------------
      1          1           0       -0.852055    1.227892    0.000000
      2          6           0        0.060861    0.584656    0.000000
      3          8           0        0.060861   -0.591975    0.000000
 ---------------------------------------------------------------------
                    Distance matrix (angstroms):
                    1          2          3
     1  H    0.000000
     2  C    1.116767   0.000000
     3  O    2.036009   1.176631   0.000000
 Stoichiometry    CHO(2)
 Framework group  CS[SG(CHO)]
 Deg. of freedom     3
 Full point group                 CS      NOp   2
 Largest Abelian subgroup         CS      NOp   2
 Largest concise Abelian subgroup C1      NOp   1
                         Standard orientation:                         
 ---------------------------------------------------------------------
 Center     Atomic      Atomic             Coordinates (Angstroms)
 Number     Number       Type             X           Y           Z
 ---------------------------------------------------------------------
      1          1           0       -0.852055    1.227890    0.000000
      2          6           0        0.060861    0.584654    0.000000
      3          8           0        0.060861   -0.591977    0.000000
 ---------------------------------------------------------------------
 Rotational constants (GHZ):         742.4426916          44.7013050          42.1627521
 Leave Link  202 at Wed Oct  7 16:09:59 2020, MaxMem=  2684354560 cpu:               1.7 elap:               0.5
 (Enter /udrive/faculty/rpeverati/g16/g16/l301.exe)
 Standard basis: 6-31G(d) (5D, 7F)
 Ernie: Thresh=  0.10000D-02 Tol=  0.10000D-05 Strict=F.
 There are    24 symmetry adapted cartesian basis functions of A'  symmetry.
 There are     8 symmetry adapted cartesian basis functions of A"  symmetry.
 There are    22 symmetry adapted basis functions of A'  symmetry.
 There are     8 symmetry adapted basis functions of A"  symmetry.
    30 basis functions,    60 primitive gaussians,    32 cartesian basis functions
     8 alpha electrons        7 beta electrons
       nuclear repulsion energy        26.5098484037 Hartrees.
 IExCor= 1009 DFT=T Ex=PBE Corr=PBE ExCW=0 ScaHFX=  0.000000
 ScaDFX=  1.000000  1.000000  1.000000  1.000000 ScalE2=  1.000000  1.000000
 IRadAn=      5 IRanWt=     -1 IRanGd=            0 ICorTp=0 IEmpDi=  4
 NAtoms=    3 NActive=    3 NUniq=    3 SFac= 1.00D+00 NAtFMM=   60 NAOKFM=F Big=F
 Integral buffers will be    131072 words long.
 Raffenetti 2 integral format.
 Two-electron integral symmetry is turned on.
 Leave Link  301 at Wed Oct  7 16:10:00 2020, MaxMem=  2684354560 cpu:               2.1 elap:               0.7
 (Enter /udrive/faculty/rpeverati/g16/g16/l302.exe)
 NPDir=0 NMtPBC=     1 NCelOv=     1 NCel=       1 NClECP=     1 NCelD=      1
         NCelK=      1 NCelE2=     1 NClLst=     1 CellRange=     0.0.
 One-electron integrals computed using PRISM.
 One-electron integral symmetry used in STVInt
 NBasis=    30 RedAO= T EigKep=  1.66D-02  NBF=    22     8
 NBsUse=    30 1.00D-06 EigRej= -1.00D+00 NBFU=    22     8
 Precomputing XC quadrature grid using
 IXCGrd= 4 IRadAn=           5 IRanWt=          -1 IRanGd=           0 AccXCQ= 0.00D+00.
 Generated NRdTot=       0 NPtTot=           0 NUsed=           0 NTot=          32
 NSgBfM=    32    32    32    32    32 MxSgAt=     3 MxSgA2=     3.
 Leave Link  302 at Wed Oct  7 16:10:01 2020, MaxMem=  2684354560 cpu:               3.6 elap:               0.8
 (Enter /udrive/faculty/rpeverati/g16/g16/l303.exe)
 DipDrv:  MaxL=1.
 Leave Link  303 at Wed Oct  7 16:10:02 2020, MaxMem=  2684354560 cpu:               1.4 elap:               0.5
 (Enter /udrive/faculty/rpeverati/g16/g16/l401.exe)
 SCF N**3 symmetry information disabled.
 ExpMin= 1.61D-01 ExpMax= 5.48D+03 ExpMxC= 8.25D+02 IAcc=3 IRadAn=         5 AccDes= 0.00D+00
 Harris functional with IExCor= 1009 and IRadAn=       5 diagonalized for initial guess.
 HarFok:  IExCor= 1009 AccDes= 0.00D+00 IRadAn=         5 IDoV= 1 UseB2=F ITyADJ=14
 ICtDFT=  3500011 ScaDFX=  1.000000  1.000000  1.000000  1.000000
 FoFCou: FMM=F IPFlag=           0 FMFlag=      100000 FMFlg1=           0
         NFxFlg=           0 DoJE=T BraDBF=F KetDBF=T FulRan=T
         wScrn=  0.000000 ICntrl=       500 IOpCl=  0 I1Cent=   200000004 NGrid=           0
         NMat0=    1 NMatS0=      1 NMatT0=    0 NMatD0=    1 NMtDS0=    0 NMtDT0=    0
 Petite list used in FoFCou.
 Harris En= -113.708465415831    
 JPrj=0 DoOrth=F DoCkMO=F.
 Initial guess orbital symmetries:
 Alpha Orbitals:
       Occupied  (A') (A') (A') (A') (A') (A") (A') (A')
       Virtual   (A") (A') (A') (A") (A') (A') (A') (A') (A') (A")
                 (A') (A") (A') (A") (A') (A') (A") (A') (A') (A")
                 (A') (A')
 Beta  Orbitals:
       Occupied  (A') (A') (A') (A') (A') (A") (A')
       Virtual   (A') (A") (A') (A') (A") (A') (A') (A') (A') (A')
                 (A") (A') (A") (A') (A") (A') (A') (A") (A') (A')
                 (A") (A') (A')
 The electronic state of the initial guess is 2-A'.
 Initial guess <Sx>= 0.0000 <Sy>= 0.0000 <Sz>= 0.5000 <S**2>= 0.7500 S= 0.5000
 Leave Link  401 at Wed Oct  7 16:10:03 2020, MaxMem=  2684354560 cpu:               5.9 elap:               0.9
 (Enter /udrive/faculty/rpeverati/g16/g16/l502.exe)
 Keep J ints in memory in symmetry-blocked form, NReq=10459184.
 FoFCou: FMM=F IPFlag=           0 FMFlag=           0 FMFlg1=           0
         NFxFlg=           0 DoJE=F BraDBF=F KetDBF=F FulRan=T
         wScrn=  0.000000 ICntrl=       600 IOpCl=  0 I1Cent=           0 NGrid=           0
         NMat0=    1 NMatS0=    465 NMatT0=    0 NMatD0=    1 NMtDS0=    0 NMtDT0=    0
 Petite list used in FoFCou.
 UHF open shell SCF:
 Using DIIS extrapolation, IDIIS=  1040.
 NGot=  2684354560 LenX=  2684292770 LenY=  2684291305
 Requested convergence on RMS density matrix=1.00D-08 within 120 cycles.
 Requested convergence on MAX density matrix=1.00D-06.
 Requested convergence on             energy=1.00D-06.
 No special actions if energy rises.
 Integral accuracy reduced to 1.0D-05 until final iterations.

 Cycle   1  Pass 0  IDiag  1:
 E= -113.695758628854    
 DIIS: error= 3.30D-02 at cycle   1 NSaved=   1.
 NSaved= 1 IEnMin= 1 EnMin= -113.695758628854     IErMin= 1 ErrMin= 3.30D-02
 ErrMax= 3.30D-02  0.00D+00 EMaxC= 1.00D-01 BMatC= 1.11D-01 BMatP= 1.11D-01
 IDIUse=3 WtCom= 6.70D-01 WtEn= 3.30D-01
 Coeff-Com:  0.100D+01
 Coeff-En:   0.100D+01
 Coeff:      0.100D+01
 Gap=     0.088 Goal=   None    Shift=    0.000
 Gap=     0.197 Goal=   None    Shift=    0.000
 GapD=    0.088 DampG=0.500 DampE=0.500 DampFc=0.2500 IDamp=-1.
 Damping current iteration by 2.50D-01
 RMSDP=1.79D-02 MaxDP=2.40D-01              OVMax= 2.46D-01

 Cycle   2  Pass 0  IDiag  1:
 E= -113.700221006246     Delta-E=       -0.004462377393 Rises=F Damp=T
 DIIS: error= 8.76D-03 at cycle   2 NSaved=   2.
 NSaved= 2 IEnMin= 2 EnMin= -113.700221006246     IErMin= 2 ErrMin= 8.76D-03
 ErrMax= 8.76D-03  0.00D+00 EMaxC= 1.00D-01 BMatC= 1.00D-02 BMatP= 1.11D-01
 IDIUse=3 WtCom= 9.12D-01 WtEn= 8.76D-02
 Coeff-Com:  0.289D-01 0.971D+00
 Coeff-En:   0.365D+00 0.635D+00
 Coeff:      0.584D-01 0.942D+00
 Gap=     0.085 Goal=   None    Shift=    0.000
 Gap=     0.225 Goal=   None    Shift=    0.000
 RMSDP=4.07D-03 MaxDP=5.17D-02 DE=-4.46D-03 OVMax= 2.09D-01

 Cycle   3  Pass 0  IDiag  1:
 E= -113.716895233715     Delta-E=       -0.016674227469 Rises=F Damp=F
 DIIS: error= 1.01D-02 at cycle   3 NSaved=   3.
 NSaved= 3 IEnMin= 3 EnMin= -113.716895233715     IErMin= 2 ErrMin= 8.76D-03
 ErrMax= 1.01D-02  0.00D+00 EMaxC= 1.00D-01 BMatC= 1.06D-02 BMatP= 1.00D-02
 IDIUse=3 WtCom= 8.99D-01 WtEn= 1.01D-01
 Coeff-Com: -0.622D-01 0.538D+00 0.524D+00
 Coeff-En:   0.000D+00 0.000D+00 0.100D+01
 Coeff:     -0.559D-01 0.484D+00 0.572D+00
 Gap=     0.083 Goal=   None    Shift=    0.000
 Gap=     0.239 Goal=   None    Shift=    0.000
 RMSDP=2.44D-03 MaxDP=3.90D-02 DE=-1.67D-02 OVMax= 2.66D-02

 Cycle   4  Pass 0  IDiag  1:
 E= -113.719552999007     Delta-E=       -0.002657765291 Rises=F Damp=F
 DIIS: error= 3.04D-03 at cycle   4 NSaved=   4.
 NSaved= 4 IEnMin= 4 EnMin= -113.719552999007     IErMin= 4 ErrMin= 3.04D-03
 ErrMax= 3.04D-03  0.00D+00 EMaxC= 1.00D-01 BMatC= 8.16D-04 BMatP= 1.00D-02
 IDIUse=3 WtCom= 9.70D-01 WtEn= 3.04D-02
 Coeff-Com:  0.173D-01-0.124D-01 0.190D+00 0.806D+00
 Coeff-En:   0.000D+00 0.000D+00 0.123D-01 0.988D+00
 Coeff:      0.167D-01-0.120D-01 0.184D+00 0.811D+00
 Gap=     0.084 Goal=   None    Shift=    0.000
 Gap=     0.239 Goal=   None    Shift=    0.000
 RMSDP=5.41D-04 MaxDP=7.15D-03 DE=-2.66D-03 OVMax= 6.63D-03

 Cycle   5  Pass 0  IDiag  1:
 E= -113.719750446981     Delta-E=       -0.000197447975 Rises=F Damp=F
 DIIS: error= 2.68D-04 at cycle   5 NSaved=   5.
 NSaved= 5 IEnMin= 5 EnMin= -113.719750446981     IErMin= 5 ErrMin= 2.68D-04
 ErrMax= 2.68D-04  0.00D+00 EMaxC= 1.00D-01 BMatC= 8.52D-06 BMatP= 8.16D-04
 IDIUse=3 WtCom= 9.97D-01 WtEn= 2.68D-03
 Coeff-Com:  0.824D-02-0.248D-01 0.227D-01 0.208D+00 0.786D+00
 Coeff-En:   0.000D+00 0.000D+00 0.000D+00 0.000D+00 0.100D+01
 Coeff:      0.822D-02-0.247D-01 0.227D-01 0.207D+00 0.787D+00
 Gap=     0.084 Goal=   None    Shift=    0.000
 Gap=     0.240 Goal=   None    Shift=    0.000
 RMSDP=8.56D-05 MaxDP=1.07D-03 DE=-1.97D-04 OVMax= 8.18D-04

 Cycle   6  Pass 0  IDiag  1:
 E= -113.719752969385     Delta-E=       -0.000002522404 Rises=F Damp=F
 DIIS: error= 5.65D-05 at cycle   6 NSaved=   6.
 NSaved= 6 IEnMin= 6 EnMin= -113.719752969385     IErMin= 6 ErrMin= 5.65D-05
 ErrMax= 5.65D-05  0.00D+00 EMaxC= 1.00D-01 BMatC= 1.55D-07 BMatP= 8.52D-06
 IDIUse=1 WtCom= 1.00D+00 WtEn= 0.00D+00
 Coeff-Com: -0.993D-03 0.359D-03-0.412D-02-0.111D-01-0.206D-02 0.102D+01
 Coeff:     -0.993D-03 0.359D-03-0.412D-02-0.111D-01-0.206D-02 0.102D+01
 Gap=     0.084 Goal=   None    Shift=    0.000
 Gap=     0.240 Goal=   None    Shift=    0.000
 RMSDP=1.11D-05 MaxDP=1.43D-04 DE=-2.52D-06 OVMax= 1.89D-04

 Cycle   7  Pass 0  IDiag  1:
 E= -113.719753020986     Delta-E=       -0.000000051601 Rises=F Damp=F
 DIIS: error= 1.10D-05 at cycle   7 NSaved=   7.
 NSaved= 7 IEnMin= 7 EnMin= -113.719753020986     IErMin= 7 ErrMin= 1.10D-05
 ErrMax= 1.10D-05  0.00D+00 EMaxC= 1.00D-01 BMatC= 1.11D-08 BMatP= 1.55D-07
 IDIUse=1 WtCom= 1.00D+00 WtEn= 0.00D+00
 Coeff-Com: -0.532D-03 0.776D-03-0.171D-02-0.785D-02-0.203D-01 0.225D+00
 Coeff-Com:  0.804D+00
 Coeff:     -0.532D-03 0.776D-03-0.171D-02-0.785D-02-0.203D-01 0.225D+00
 Coeff:      0.804D+00
 Gap=     0.084 Goal=   None    Shift=    0.000
 Gap=     0.240 Goal=   None    Shift=    0.000
 RMSDP=2.25D-06 MaxDP=2.34D-05 DE=-5.16D-08 OVMax= 4.01D-05

 Initial convergence to 1.0D-05 achieved.  Increase integral accuracy.
 Cycle   8  Pass 1  IDiag  1:
 E= -113.719753246480     Delta-E=       -0.000000225495 Rises=F Damp=F
 DIIS: error= 4.07D-06 at cycle   1 NSaved=   1.
 NSaved= 1 IEnMin= 1 EnMin= -113.719753246480     IErMin= 1 ErrMin= 4.07D-06
 ErrMax= 4.07D-06  0.00D+00 EMaxC= 1.00D-01 BMatC= 8.76D-10 BMatP= 8.76D-10
 IDIUse=1 WtCom= 1.00D+00 WtEn= 0.00D+00
 Coeff-Com:  0.100D+01
 Coeff:      0.100D+01
 Gap=     0.084 Goal=   None    Shift=    0.000
 Gap=     0.240 Goal=   None    Shift=    0.000
 RMSDP=2.25D-06 MaxDP=2.34D-05 DE=-2.25D-07 OVMax= 2.86D-05

 Cycle   9  Pass 1  IDiag  1:
 E= -113.719753246591     Delta-E=       -0.000000000111 Rises=F Damp=F
 DIIS: error= 5.90D-06 at cycle   2 NSaved=   2.
 NSaved= 2 IEnMin= 2 EnMin= -113.719753246591     IErMin= 1 ErrMin= 4.07D-06
 ErrMax= 5.90D-06  0.00D+00 EMaxC= 1.00D-01 BMatC= 1.87D-09 BMatP= 8.76D-10
 IDIUse=1 WtCom= 1.00D+00 WtEn= 0.00D+00
 Coeff-Com:  0.626D+00 0.374D+00
 Coeff:      0.626D+00 0.374D+00
 Gap=     0.084 Goal=   None    Shift=    0.000
 Gap=     0.240 Goal=   None    Shift=    0.000
 RMSDP=6.86D-07 MaxDP=8.80D-06 DE=-1.11D-10 OVMax= 1.46D-05

 Cycle  10  Pass 1  IDiag  1:
 E= -113.719753246857     Delta-E=       -0.000000000265 Rises=F Damp=F
 DIIS: error= 3.83D-06 at cycle   3 NSaved=   3.
 NSaved= 3 IEnMin= 3 EnMin= -113.719753246857     IErMin= 3 ErrMin= 3.83D-06
 ErrMax= 3.83D-06  0.00D+00 EMaxC= 1.00D-01 BMatC= 7.16D-10 BMatP= 8.76D-10
 IDIUse=1 WtCom= 1.00D+00 WtEn= 0.00D+00
 Coeff-Com:  0.884D-01 0.359D+00 0.552D+00
 Coeff:      0.884D-01 0.359D+00 0.552D+00
 Gap=     0.084 Goal=   None    Shift=    0.000
 Gap=     0.240 Goal=   None    Shift=    0.000
 RMSDP=3.25D-07 MaxDP=5.66D-06 DE=-2.65D-10 OVMax= 9.41D-06

 Cycle  11  Pass 1  IDiag  1:
 E= -113.719753247020     Delta-E=       -0.000000000163 Rises=F Damp=F
 DIIS: error= 4.29D-07 at cycle   4 NSaved=   4.
 NSaved= 4 IEnMin= 4 EnMin= -113.719753247020     IErMin= 4 ErrMin= 4.29D-07
 ErrMax= 4.29D-07  0.00D+00 EMaxC= 1.00D-01 BMatC= 1.51D-11 BMatP= 7.16D-10
 IDIUse=1 WtCom= 1.00D+00 WtEn= 0.00D+00
 Coeff-Com: -0.151D+00-0.238D-01 0.652D-01 0.111D+01
 Coeff:     -0.151D+00-0.238D-01 0.652D-01 0.111D+01
 Gap=     0.084 Goal=   None    Shift=    0.000
 Gap=     0.240 Goal=   None    Shift=    0.000
 RMSDP=1.78D-07 MaxDP=2.62D-06 DE=-1.63D-10 OVMax= 4.40D-06

 Cycle  12  Pass 1  IDiag  1:
 E= -113.719753247033     Delta-E=       -0.000000000013 Rises=F Damp=F
 DIIS: error= 6.60D-08 at cycle   5 NSaved=   5.
 NSaved= 5 IEnMin= 5 EnMin= -113.719753247033     IErMin= 5 ErrMin= 6.60D-08
 ErrMax= 6.60D-08  0.00D+00 EMaxC= 1.00D-01 BMatC= 3.88D-13 BMatP= 1.51D-11
 IDIUse=1 WtCom= 1.00D+00 WtEn= 0.00D+00
 Coeff-Com: -0.204D-01-0.160D-01-0.154D-01 0.129D+00 0.922D+00
 Coeff:     -0.204D-01-0.160D-01-0.154D-01 0.129D+00 0.922D+00
 Gap=     0.084 Goal=   None    Shift=    0.000
 Gap=     0.240 Goal=   None    Shift=    0.000
 RMSDP=3.07D-08 MaxDP=4.00D-07 DE=-1.31D-11 OVMax= 5.36D-07

 Cycle  13  Pass 1  IDiag  1:
 E= -113.719753247033     Delta-E=        0.000000000000 Rises=F Damp=F
 DIIS: error= 3.95D-08 at cycle   6 NSaved=   6.
 NSaved= 6 IEnMin= 5 EnMin= -113.719753247033     IErMin= 6 ErrMin= 3.95D-08
 ErrMax= 3.95D-08  0.00D+00 EMaxC= 1.00D-01 BMatC= 1.38D-13 BMatP= 3.88D-13
 IDIUse=1 WtCom= 1.00D+00 WtEn= 0.00D+00
 Coeff-Com:  0.647D-02-0.468D-02-0.135D-01-0.528D-01 0.410D+00 0.655D+00
 Coeff:      0.647D-02-0.468D-02-0.135D-01-0.528D-01 0.410D+00 0.655D+00
 Gap=     0.084 Goal=   None    Shift=    0.000
 Gap=     0.240 Goal=   None    Shift=    0.000
 RMSDP=9.59D-09 MaxDP=1.14D-07 DE= 2.84D-14 OVMax= 1.06D-07

 SCF Done:  E(UPBE-PBE) =  -113.719753247     A.U. after   13 cycles
            NFock= 13  Conv=0.96D-08     -V/T= 2.0052
 <Sx>= 0.0000 <Sy>= 0.0000 <Sz>= 0.5000 <S**2>= 0.7515 S= 0.5008
 <L.S>= 0.000000000000E+00
 KE= 1.131307478321D+02 PE=-3.202511391430D+02 EE= 6.689078966008D+01
 Annihilation of the first spin contaminant:
 S**2 before annihilation     0.7515,   after     0.7500
 Leave Link  502 at Wed Oct  7 16:10:05 2020, MaxMem=  2684354560 cpu:              15.7 elap:               1.7
 (Enter /udrive/faculty/rpeverati/g16/g16/l508.exe)
 QCSCF skips out because SCF is already converged.
 Leave Link  508 at Wed Oct  7 16:10:06 2020, MaxMem=  2684354560 cpu:               0.4 elap:               0.6
 (Enter /udrive/faculty/rpeverati/g16/g16/l601.exe)
 Copying SCF densities to generalized density rwf, IOpCl= 1 IROHF=0.

 **********************************************************************

            Population analysis using the SCF density.

 **********************************************************************

 Orbital symmetries:
 Alpha Orbitals:
       Occupied  (A') (A') (A') (A') (A') (A") (A') (A')
       Virtual   (A") (A') (A') (A") (A') (A') (A') (A') (A') (A")
                 (A') (A") (A') (A") (A') (A') (A") (A') (A') (A")
                 (A') (A')
 Beta  Orbitals:
       Occupied  (A') (A') (A') (A') (A') (A") (A')
       Virtual   (A') (A") (A') (A') (A") (A') (A') (A') (A') (A')
                 (A") (A') (A") (A') (A") (A') (A') (A") (A') (A')
                 (A") (A') (A')
 The electronic state is 2-A'.
 Alpha  occ. eigenvalues --  -18.83137  -9.98656  -1.01462  -0.55126  -0.43521
 Alpha  occ. eigenvalues --   -0.38623  -0.37422  -0.16171
 Alpha virt. eigenvalues --   -0.07776   0.10371   0.21073   0.47209   0.48501
 Alpha virt. eigenvalues --    0.60570   0.66160   0.76574   0.82752   0.88389
 Alpha virt. eigenvalues --    0.93218   1.42144   1.44156   1.44679   1.45683
 Alpha virt. eigenvalues --    1.63472   1.84727   1.96982   2.24163   2.47695
 Alpha virt. eigenvalues --    2.54062   2.84039
  Beta  occ. eigenvalues --  -18.82425  -9.97806  -1.00233  -0.53005  -0.41772
  Beta  occ. eigenvalues --   -0.37814  -0.33742
  Beta virt. eigenvalues --   -0.09762  -0.05978   0.12670   0.22472   0.48453
  Beta virt. eigenvalues --    0.53020   0.62237   0.67989   0.78546   0.84455
  Beta virt. eigenvalues --    0.88869   0.95564   1.43822   1.46892   1.46952
  Beta virt. eigenvalues --    1.47629   1.65666   1.87607   1.99778   2.26777
  Beta virt. eigenvalues --    2.49028   2.57678   2.84981
          Condensed to atoms (all electrons):
               1          2          3
     1  H    0.700471   0.192954  -0.044105
     2  C    0.192954   5.218638   0.537172
     3  O   -0.044105   0.537172   7.708851
          Atomic-Atomic Spin Densities.
               1          2          3
     1  H    0.332608  -0.155841  -0.015859
     2  C   -0.155841   0.884255  -0.141029
     3  O   -0.015859  -0.141029   0.408596
 Mulliken charges and spin densities:
               1          2
     1  H    0.150681   0.160907
     2  C    0.051236   0.587385
     3  O   -0.201917   0.251708
 Sum of Mulliken charges =  -0.00000   1.00000
 Mulliken charges and spin densities with hydrogens summed into heavy atoms:
               1          2
     2  C    0.201917   0.748292
     3  O   -0.201917   0.251708
 Electronic spatial extent (au):  <R**2>=             50.0483
 Charge=             -0.0000 electrons
 Dipole moment (field-independent basis, Debye):
    X=             -0.8677    Y=              1.1075    Z=              0.0000  Tot=              1.4069
 Quadrupole moment (field-independent basis, Debye-Ang):
   XX=            -11.1577   YY=            -11.2796   ZZ=            -10.5846
   XY=             -0.9548   XZ=              0.0000   YZ=              0.0000
 Traceless Quadrupole moment (field-independent basis, Debye-Ang):
   XX=             -0.1504   YY=             -0.2723   ZZ=              0.4227
   XY=             -0.9548   XZ=              0.0000   YZ=              0.0000
 Octapole moment (field-independent basis, Debye-Ang**2):
  XXX=             -0.6322  YYY=             -2.6641  ZZZ=              0.0000  XYY=             -1.3355
  XXY=             -0.9963  XXZ=              0.0000  XZZ=             -0.0838  YZZ=             -0.9920
  YYZ=              0.0000  XYZ=              0.0000
 Hexadecapole moment (field-independent basis, Debye-Ang**3):
 XXXX=            -13.6268 YYYY=            -38.1343 ZZZZ=             -8.3987 XXXY=              1.6306
 XXXZ=              0.0000 YYYX=              0.6878 YYYZ=              0.0000 ZZZX=              0.0000
 ZZZY=              0.0000 XXYY=             -8.5680 XXZZ=             -3.7327 YYZZ=             -7.6943
 XXYZ=              0.0000 YYXZ=              0.0000 ZZXY=              0.6977
 N-N= 2.650984840373D+01 E-N=-3.202511377189D+02  KE= 1.131307478321D+02
                          Isotropic Fermi Contact Couplings
        Atom                 a.u.       MegaHertz       Gauss      10(-4) cm-1
     1  H(1)               0.07522     336.22625     119.97389     112.15301
     2  C(13)              0.36810     413.80965     147.65757     138.03204
     3  O(17)              0.05618     -34.05796     -12.15273     -11.36051
 --------------------------------------------------------
       Center         ----  Spin Dipole Couplings  ----
                      3XX-RR        3YY-RR        3ZZ-RR
 --------------------------------------------------------
     1   Atom        0.018872      0.010653     -0.029525
     2   Atom        0.371038     -0.095128     -0.275910
     3   Atom        1.252194     -0.515601     -0.736592
 --------------------------------------------------------
                        XY            XZ            YZ
 --------------------------------------------------------
     1   Atom       -0.027349      0.000000      0.000000
     2   Atom        0.381080      0.000000      0.000000
     3   Atom        0.466261      0.000000      0.000000
 --------------------------------------------------------


 ---------------------------------------------------------------------------------
              Anisotropic Spin Dipole Couplings in Principal Axis System
 ---------------------------------------------------------------------------------

       Atom             a.u.   MegaHertz   Gauss  10(-4) cm-1        Axes

              Baa    -0.0295   -15.753    -5.621    -5.255  0.0000  0.0000  1.0000
     1 H(1)   Bbb    -0.0129    -6.880    -2.455    -2.295  0.6525  0.7578  0.0000
              Bcc     0.0424    22.633     8.076     7.549  0.7578 -0.6525  0.0000
 
              Baa    -0.3088   -41.432   -14.784   -13.820 -0.4890  0.8723  0.0000
     2 C(13)  Bbb    -0.2759   -37.024   -13.211   -12.350  0.0000  0.0000  1.0000
              Bcc     0.5847    78.456    27.995    26.170  0.8723  0.4890  0.0000
 
              Baa    -0.7366    53.299    19.019    17.779  0.0000  0.0000  1.0000
     3 O(17)  Bbb    -0.6310    45.662    16.293    15.231 -0.2403  0.9707  0.0000
              Bcc     1.3676   -98.961   -35.312   -33.010  0.9707  0.2403  0.0000
 

 ---------------------------------------------------------------------------------

 No NMR shielding tensors so no spin-rotation constants.
 Leave Link  601 at Wed Oct  7 16:10:07 2020, MaxMem=  2684354560 cpu:               5.1 elap:               0.8
 (Enter /udrive/faculty/rpeverati/g16/g16/l701.exe)
 ... and contract with generalized density number  0.
 Compute integral first derivatives.
 Leave Link  701 at Wed Oct  7 16:10:08 2020, MaxMem=  2684354560 cpu:               3.0 elap:               0.7
 (Enter /udrive/faculty/rpeverati/g16/g16/l702.exe)
 L702 exits ... SP integral derivatives will be done elsewhere.
 Leave Link  702 at Wed Oct  7 16:10:09 2020, MaxMem=  2684354560 cpu:               1.4 elap:               0.5
 (Enter /udrive/faculty/rpeverati/g16/g16/l703.exe)
 Integral derivatives from FoFJK, PRISM(SPDF).
 Compute integral first derivatives, UseDBF=F ICtDFT=           0.
 Calling FoFJK, ICntrl=      2527 FMM=F ISym2X=1 I1Cent= 0 IOpClX= 0 NMat=1 NMatS=1 NMatT=0.
 FoFJK:  IHMeth= 1 ICntrl=    2527 DoSepK=F KAlg= 0 I1Cent=           0 FoldK=F
 IRaf=         0 NMat=       1 IRICut=       1 DoRegI=T DoRafI=F ISym2E= 1 IDoP0=0 IntGTp=1.
 FoFCou: FMM=F IPFlag=           0 FMFlag=      100000 FMFlg1=         800
         NFxFlg=           0 DoJE=F BraDBF=F KetDBF=F FulRan=T
         wScrn=  0.000000 ICntrl=      2527 IOpCl=  0 I1Cent=           0 NGrid=           0
         NMat0=    1 NMatS0=      1 NMatT0=    0 NMatD0=    1 NMtDS0=    0 NMtDT0=    0
 Petite list used in FoFCou.
 Leave Link  703 at Wed Oct  7 16:10:10 2020, MaxMem=  2684354560 cpu:               4.6 elap:               0.9
 (Enter /udrive/faculty/rpeverati/g16/g16/l716.exe)
 Dipole        =-3.41362561D-01 4.35733247D-01 0.00000000D+00
 ***** Axes restored to original set *****
 -------------------------------------------------------------------
 Center     Atomic                   Forces (Hartrees/Bohr)
 Number     Number              X              Y              Z
 -------------------------------------------------------------------
      1        1          -0.011083651    0.005316064   -0.000000000
      2        6           0.013017514    0.026063436   -0.000000000
      3        8          -0.001933863   -0.031379499   -0.000000000
 -------------------------------------------------------------------
 Cartesian Forces:  Max     0.031379499 RMS     0.014863374
 Leave Link  716 at Wed Oct  7 16:10:11 2020, MaxMem=  2684354560 cpu:               1.6 elap:               0.5
 (Enter /udrive/faculty/rpeverati/g16/g16/l103.exe)

 GradGradGradGradGradGradGradGradGradGradGradGradGradGradGradGradGradGrad
 Berny optimization.
 Optmz: redundant internal coordinate code flag= 1
 FormGI is forming the generalized inverse of G from B-inverse, IUseBI=4.
 Internal  Forces:  Max     0.031379613 RMS     0.019579984
 Search for a local minimum.
 Step number   1 out of a maximum of  100
 All quantities printed in internal units (Hartrees-Bohrs-Radians)
 RMS Force = .19580D-01 SwitMx=.10000D-02 MixMth= 1
 Mixed Optimization -- RFO/linear search
 Second derivative matrix not updated -- first step.
 The second derivative matrix:
                          R1        R2        A1
           R1           0.31894
           R2           0.00000   1.17500
           A1           0.00000   0.00000   0.16000
 ITU=  0
 Eigenvectors of the second derivative matrix:
                           1         2         3
     Eigenvalues --     0.16000   0.31894   1.17500
   1         R1         0.00000   1.00000   0.00000
   2         R2         0.00000   0.00000  -1.00000
   3         A1         1.00000   0.00000  -0.00000
 Iter=   1 RLamda= 0.00000000D+00 Sum=-1.41437610D-03.
 Iter=   2 RLamda=-1.41437610D-03 Sum=-1.41032137D-03.
 Iter=   3 RLamda=-1.41032137D-03 Sum=-1.41033294D-03.
 Iter=   4 RLamda=-1.41033294D-03 Sum=-1.41033290D-03.
 RFO step:  Lambda=-1.41033294D-03 EMin= 1.60000000D-01
 Linear search not attempted -- first point.
 Iteration  1 RMS(Cart)=  0.02299111 RMS(Int)=  0.00027373
 Iteration  2 RMS(Cart)=  0.00033036 RMS(Int)=  0.00000004
 Iteration  3 RMS(Cart)=  0.00000003 RMS(Int)=  0.00000000
 ITry= 1 IFail=0 DXMaxC= 2.59D-02 DCOld= 1.00D+10 DXMaxT= 3.00D-01 DXLimC= 3.00D+00 Rises=F
 ClnCor:  largest displacement from symmetrization is 0.00D+00 for atom     0.
 Variable       Old X    -DE/DX   Delta X   Delta X   Delta X     New X
                                 (Linear)    (Quad)   (Total)
    R1        2.11038   0.01212   0.00000   0.03784   0.03784   2.14822
    R2        2.22351   0.03138   0.00000   0.02667   0.02667   2.25018
    A1        2.18460  -0.00430   0.00000  -0.02665  -0.02665   2.15795
         Item               Value     Threshold  Converged?
 Maximum Force            0.031380     0.000450     NO 
 RMS     Force            0.019580     0.000300     NO 
 Maximum Displacement     0.025894     0.001800     NO 
 RMS     Displacement     0.022958     0.001200     NO 
 Predicted change in Energy=-7.071786D-04
 Lowest energy point so far.  Saving SCF results.
 Largest change from initial coordinates is atom    2       0.010 Angstoms.
 GradGradGradGradGradGradGradGradGradGradGradGradGradGradGradGradGradGrad

 Leave Link  103 at Wed Oct  7 16:10:12 2020, MaxMem=  2684354560 cpu:               2.0 elap:               0.5
 (Enter /udrive/faculty/rpeverati/g16/g16/l202.exe)
                          Input orientation:                          
 ---------------------------------------------------------------------
 Center     Atomic      Atomic             Coordinates (Angstroms)
 Number     Number       Type             X           Y           Z
 ---------------------------------------------------------------------
      1          1           0       -0.863087    1.232224    0.000000
      2          6           0        0.074564    0.589491    0.000000
      3          8           0        0.058191   -0.601142    0.000000
 ---------------------------------------------------------------------
                    Distance matrix (angstroms):
                    1          2          3
     1  H    0.000000
     2  C    1.136791   0.000000
     3  O    2.051825   1.190746   0.000000
 Stoichiometry    CHO(2)
 Framework group  CS[SG(CHO)]
 Deg. of freedom     3
 Full point group                 CS      NOp   2
 RotChk:  IX=0 Diff= 1.94D-02
 Largest Abelian subgroup         CS      NOp   2
 Largest concise Abelian subgroup C1      NOp   1
                         Standard orientation:                         
 ---------------------------------------------------------------------
 Center     Atomic      Atomic             Coordinates (Angstroms)
 Number     Number       Type             X           Y           Z
 ---------------------------------------------------------------------
      1          1           0       -0.883306    1.222859    0.000000
      2          6           0        0.063093    0.593079    0.000000
      3          8           0        0.063093   -0.597667    0.000000
 ---------------------------------------------------------------------
 Rotational constants (GHZ):         687.7894262          43.8411698          41.2140952
 Leave Link  202 at Wed Oct  7 16:10:12 2020, MaxMem=  2684354560 cpu:               1.0 elap:               0.4
 (Enter /udrive/faculty/rpeverati/g16/g16/l301.exe)
 Standard basis: 6-31G(d) (5D, 7F)
 Ernie: Thresh=  0.10000D-02 Tol=  0.10000D-05 Strict=F.
 There are    24 symmetry adapted cartesian basis functions of A'  symmetry.
 There are     8 symmetry adapted cartesian basis functions of A"  symmetry.
 There are    22 symmetry adapted basis functions of A'  symmetry.
 There are     8 symmetry adapted basis functions of A"  symmetry.
    30 basis functions,    60 primitive gaussians,    32 cartesian basis functions
     8 alpha electrons        7 beta electrons
       nuclear repulsion energy        26.1878385766 Hartrees.
 IExCor= 1009 DFT=T Ex=PBE Corr=PBE ExCW=0 ScaHFX=  0.000000
 ScaDFX=  1.000000  1.000000  1.000000  1.000000 ScalE2=  1.000000  1.000000
 IRadAn=      5 IRanWt=     -1 IRanGd=            0 ICorTp=0 IEmpDi=  4
 NAtoms=    3 NActive=    3 NUniq=    3 SFac= 1.00D+00 NAtFMM=   60 NAOKFM=F Big=F
 Integral buffers will be    131072 words long.
 Raffenetti 2 integral format.
 Two-electron integral symmetry is turned on.
 Leave Link  301 at Wed Oct  7 16:10:13 2020, MaxMem=  2684354560 cpu:               2.5 elap:               0.7
 (Enter /udrive/faculty/rpeverati/g16/g16/l302.exe)
 NPDir=0 NMtPBC=     1 NCelOv=     1 NCel=       1 NClECP=     1 NCelD=      1
         NCelK=      1 NCelE2=     1 NClLst=     1 CellRange=     0.0.
 One-electron integrals computed using PRISM.
 One-electron integral symmetry used in STVInt
 NBasis=    30 RedAO= T EigKep=  1.70D-02  NBF=    22     8
 NBsUse=    30 1.00D-06 EigRej= -1.00D+00 NBFU=    22     8
 Precomputing XC quadrature grid using
 IXCGrd= 4 IRadAn=           5 IRanWt=          -1 IRanGd=           0 AccXCQ= 0.00D+00.
 Generated NRdTot=       0 NPtTot=           0 NUsed=           0 NTot=          32
 NSgBfM=    32    32    32    32    32 MxSgAt=     3 MxSgA2=     3.
 Leave Link  302 at Wed Oct  7 16:10:15 2020, MaxMem=  2684354560 cpu:               3.4 elap:               0.9
 (Enter /udrive/faculty/rpeverati/g16/g16/l303.exe)
 DipDrv:  MaxL=1.
 Leave Link  303 at Wed Oct  7 16:10:16 2020, MaxMem=  2684354560 cpu:               1.3 elap:               0.7
 (Enter /udrive/faculty/rpeverati/g16/g16/l401.exe)
 Initial guess from the checkpoint file:  "MN_50_hco_BH76_PBE_631Gs.chk"
 SCF N**3 symmetry information disabled.
 B after Tr=    -0.000000    0.000000    0.000000
         Rot=    0.999995    0.000000    0.000000   -0.003166 Ang=  -0.36 deg.
 Guess basis will be translated and rotated to current coordinates.
 JPrj=2 DoOrth=T DoCkMO=T.
 Initial guess orbital symmetries:
 Alpha Orbitals:
       Occupied  (A') (A') (A') (A') (A') (A") (A') (A')
       Virtual   (A") (A') (A') (A") (A') (A') (A') (A') (A') (A")
                 (A') (A") (A') (A") (A') (A') (A") (A') (A') (A")
                 (A') (A')
 Beta  Orbitals:
       Occupied  (A') (A') (A') (A') (A') (A") (A')
       Virtual   (A') (A") (A') (A') (A") (A') (A') (A') (A') (A')
                 (A") (A') (A") (A') (A") (A') (A') (A") (A') (A')
                 (A") (A') (A')
 The electronic state of the initial guess is 2-A'.
 Initial guess <Sx>= 0.0000 <Sy>= 0.0000 <Sz>= 0.5000 <S**2>= 0.7515 S= 0.5008
 Generating alternative initial guess.
 ExpMin= 1.61D-01 ExpMax= 5.48D+03 ExpMxC= 8.25D+02 IAcc=2 IRadAn=         4 AccDes= 0.00D+00
 Harris functional with IExCor= 1009 and IRadAn=       4 diagonalized for initial guess.
 HarFok:  IExCor= 1009 AccDes= 0.00D+00 IRadAn=         4 IDoV= 1 UseB2=F ITyADJ=14
 ICtDFT=  3500011 ScaDFX=  1.000000  1.000000  1.000000  1.000000
 FoFCou: FMM=F IPFlag=           0 FMFlag=      100000 FMFlg1=           0
         NFxFlg=           0 DoJE=T BraDBF=F KetDBF=T FulRan=T
         wScrn=  0.000000 ICntrl=       500 IOpCl=  0 I1Cent=   200000004 NGrid=           0
         NMat0=    1 NMatS0=      1 NMatT0=    0 NMatD0=    1 NMtDS0=    0 NMtDT0=    0
 Petite list used in FoFCou.
 Harris En= -113.707550291812    
 Leave Link  401 at Wed Oct  7 16:10:17 2020, MaxMem=  2684354560 cpu:               6.8 elap:               1.3
 (Enter /udrive/faculty/rpeverati/g16/g16/l502.exe)
 Keep J ints in memory in symmetry-blocked form, NReq=10459184.
 FoFCou: FMM=F IPFlag=           0 FMFlag=           0 FMFlg1=           0
         NFxFlg=           0 DoJE=F BraDBF=F KetDBF=F FulRan=T
         wScrn=  0.000000 ICntrl=       600 IOpCl=  0 I1Cent=           0 NGrid=           0
         NMat0=    1 NMatS0=    465 NMatT0=    0 NMatD0=    1 NMtDS0=    0 NMtDT0=    0
 Petite list used in FoFCou.
 UHF open shell SCF:
 Using DIIS extrapolation, IDIIS=  1040.
 NGot=  2684354560 LenX=  2684292770 LenY=  2684291305
 Requested convergence on RMS density matrix=1.00D-08 within 120 cycles.
 Requested convergence on MAX density matrix=1.00D-06.
 Requested convergence on             energy=1.00D-06.
 No special actions if energy rises.
 Integral accuracy reduced to 1.0D-05 until final iterations.

 Cycle   1  Pass 0  IDiag  1:
 E= -113.720307598771    
 DIIS: error= 1.39D-03 at cycle   1 NSaved=   1.
 NSaved= 1 IEnMin= 1 EnMin= -113.720307598771     IErMin= 1 ErrMin= 1.39D-03
 ErrMax= 1.39D-03  0.00D+00 EMaxC= 1.00D-01 BMatC= 6.64D-04 BMatP= 6.64D-04
 IDIUse=3 WtCom= 9.86D-01 WtEn= 1.39D-02
 Coeff-Com:  0.100D+01
 Coeff-En:   0.100D+01
 Coeff:      0.100D+01
 Gap=     0.086 Goal=   None    Shift=    0.000
 Gap=     0.230 Goal=   None    Shift=    0.000
 GapD=    0.086 DampG=0.500 DampE=1.000 DampFc=0.5000 IDamp=-1.
 Damping current iteration by 5.00D-01
 RMSDP=7.62D-04 MaxDP=7.09D-03              OVMax= 7.89D-03

 Cycle   2  Pass 0  IDiag  1:
 E= -113.720426052705     Delta-E=       -0.000118453934 Rises=F Damp=T
 DIIS: error= 7.85D-04 at cycle   2 NSaved=   2.
 NSaved= 2 IEnMin= 2 EnMin= -113.720426052705     IErMin= 2 ErrMin= 7.85D-04
 ErrMax= 7.85D-04  0.00D+00 EMaxC= 1.00D-01 BMatC= 1.28D-04 BMatP= 6.64D-04
 IDIUse=3 WtCom= 9.92D-01 WtEn= 7.85D-03
 Coeff-Com: -0.480D+00 0.148D+01
 Coeff-En:   0.000D+00 0.100D+01
 Coeff:     -0.476D+00 0.148D+01
 Gap=     0.086 Goal=   None    Shift=    0.000
 Gap=     0.231 Goal=   None    Shift=    0.000
 RMSDP=4.69D-04 MaxDP=4.09D-03 DE=-1.18D-04 OVMax= 3.28D-03

 Cycle   3  Pass 0  IDiag  1:
 E= -113.720524647528     Delta-E=       -0.000098594823 Rises=F Damp=F
 DIIS: error= 8.69D-04 at cycle   3 NSaved=   3.
 NSaved= 3 IEnMin= 3 EnMin= -113.720524647528     IErMin= 2 ErrMin= 7.85D-04
 ErrMax= 8.69D-04  0.00D+00 EMaxC= 1.00D-01 BMatC= 8.98D-05 BMatP= 1.28D-04
 IDIUse=3 WtCom= 9.91D-01 WtEn= 8.69D-03
 Coeff-Com: -0.377D+00 0.889D+00 0.488D+00
 Coeff-En:   0.000D+00 0.000D+00 0.100D+01
 Coeff:     -0.374D+00 0.881D+00 0.493D+00
 Gap=     0.086 Goal=   None    Shift=    0.000
 Gap=     0.230 Goal=   None    Shift=    0.000
 RMSDP=1.99D-04 MaxDP=2.11D-03 DE=-9.86D-05 OVMax= 3.22D-03

 Cycle   4  Pass 0  IDiag  1:
 E= -113.720528719639     Delta-E=       -0.000004072111 Rises=F Damp=F
 DIIS: error= 1.04D-03 at cycle   4 NSaved=   4.
 NSaved= 4 IEnMin= 4 EnMin= -113.720528719639     IErMin= 2 ErrMin= 7.85D-04
 ErrMax= 1.04D-03  0.00D+00 EMaxC= 1.00D-01 BMatC= 6.89D-05 BMatP= 8.98D-05
 IDIUse=3 WtCom= 9.90D-01 WtEn= 1.04D-02
 Coeff-Com: -0.221D+00 0.456D+00 0.443D+00 0.323D+00
 Coeff-En:   0.000D+00 0.000D+00 0.452D+00 0.548D+00
 Coeff:     -0.219D+00 0.451D+00 0.443D+00 0.325D+00
 Gap=     0.086 Goal=   None    Shift=    0.000
 Gap=     0.230 Goal=   None    Shift=    0.000
 RMSDP=8.29D-05 MaxDP=8.88D-04 DE=-4.07D-06 OVMax= 1.67D-03

 Cycle   5  Pass 0  IDiag  1:
 E= -113.720543188573     Delta-E=       -0.000014468935 Rises=F Damp=F
 DIIS: error= 4.55D-05 at cycle   5 NSaved=   5.
 NSaved= 5 IEnMin= 5 EnMin= -113.720543188573     IErMin= 5 ErrMin= 4.55D-05
 ErrMax= 4.55D-05  0.00D+00 EMaxC= 1.00D-01 BMatC= 2.08D-07 BMatP= 6.89D-05
 IDIUse=1 WtCom= 1.00D+00 WtEn= 0.00D+00
 Coeff-Com: -0.443D-01 0.854D-01 0.123D+00 0.926D-01 0.744D+00
 Coeff:     -0.443D-01 0.854D-01 0.123D+00 0.926D-01 0.744D+00
 Gap=     0.086 Goal=   None    Shift=    0.000
 Gap=     0.230 Goal=   None    Shift=    0.000
 RMSDP=1.71D-05 MaxDP=2.18D-04 DE=-1.45D-05 OVMax= 1.78D-04

 Cycle   6  Pass 0  IDiag  1:
 E= -113.720543264754     Delta-E=       -0.000000076181 Rises=F Damp=F
 DIIS: error= 7.06D-06 at cycle   6 NSaved=   6.
 NSaved= 6 IEnMin= 6 EnMin= -113.720543264754     IErMin= 6 ErrMin= 7.06D-06
 ErrMax= 7.06D-06  0.00D+00 EMaxC= 1.00D-01 BMatC= 7.14D-09 BMatP= 2.08D-07
 IDIUse=1 WtCom= 1.00D+00 WtEn= 0.00D+00
 Coeff-Com:  0.115D-01-0.240D-01-0.217D-01-0.149D-01 0.635D-01 0.986D+00
 Coeff:      0.115D-01-0.240D-01-0.217D-01-0.149D-01 0.635D-01 0.986D+00
 Gap=     0.086 Goal=   None    Shift=    0.000
 Gap=     0.230 Goal=   None    Shift=    0.000
 RMSDP=3.38D-06 MaxDP=4.28D-05 DE=-7.62D-08 OVMax= 3.75D-05

 Initial convergence to 1.0D-05 achieved.  Increase integral accuracy.
 Cycle   7  Pass 1  IDiag  1:
 E= -113.720543140265     Delta-E=        0.000000124489 Rises=F Damp=F
 DIIS: error= 2.85D-06 at cycle   1 NSaved=   1.
 NSaved= 1 IEnMin= 1 EnMin= -113.720543140265     IErMin= 1 ErrMin= 2.85D-06
 ErrMax= 2.85D-06  0.00D+00 EMaxC= 1.00D-01 BMatC= 6.72D-10 BMatP= 6.72D-10
 IDIUse=1 WtCom= 1.00D+00 WtEn= 0.00D+00
 Coeff-Com:  0.100D+01
 Coeff:      0.100D+01
 Gap=     0.086 Goal=   None    Shift=    0.000
 Gap=     0.230 Goal=   None    Shift=    0.000
 RMSDP=3.38D-06 MaxDP=4.28D-05 DE= 1.24D-07 OVMax= 2.03D-05

 Cycle   8  Pass 1  IDiag  1:
 E= -113.720543140383     Delta-E=       -0.000000000118 Rises=F Damp=F
 DIIS: error= 4.22D-06 at cycle   2 NSaved=   2.
 NSaved= 2 IEnMin= 2 EnMin= -113.720543140383     IErMin= 1 ErrMin= 2.85D-06
 ErrMax= 4.22D-06  0.00D+00 EMaxC= 1.00D-01 BMatC= 1.04D-09 BMatP= 6.72D-10
 IDIUse=1 WtCom= 1.00D+00 WtEn= 0.00D+00
 Coeff-Com:  0.573D+00 0.427D+00
 Coeff:      0.573D+00 0.427D+00
 Gap=     0.086 Goal=   None    Shift=    0.000
 Gap=     0.230 Goal=   None    Shift=    0.000
 RMSDP=5.76D-07 MaxDP=7.29D-06 DE=-1.18D-10 OVMax= 1.22D-05

 Cycle   9  Pass 1  IDiag  1:
 E= -113.720543140461     Delta-E=       -0.000000000078 Rises=F Damp=F
 DIIS: error= 3.78D-06 at cycle   3 NSaved=   3.
 NSaved= 3 IEnMin= 3 EnMin= -113.720543140461     IErMin= 1 ErrMin= 2.85D-06
 ErrMax= 3.78D-06  0.00D+00 EMaxC= 1.00D-01 BMatC= 7.54D-10 BMatP= 6.72D-10
 IDIUse=1 WtCom= 1.00D+00 WtEn= 0.00D+00
 Coeff-Com:  0.154D+00 0.418D+00 0.428D+00
 Coeff:      0.154D+00 0.418D+00 0.428D+00
 Gap=     0.086 Goal=   None    Shift=    0.000
 Gap=     0.230 Goal=   None    Shift=    0.000
 RMSDP=2.92D-07 MaxDP=4.64D-06 DE=-7.81D-11 OVMax= 7.88D-06

 Cycle  10  Pass 1  IDiag  1:
 E= -113.720543140622     Delta-E=       -0.000000000161 Rises=F Damp=F
 DIIS: error= 3.44D-07 at cycle   4 NSaved=   4.
 NSaved= 4 IEnMin= 4 EnMin= -113.720543140622     IErMin= 4 ErrMin= 3.44D-07
 ErrMax= 3.44D-07  0.00D+00 EMaxC= 1.00D-01 BMatC= 9.05D-12 BMatP= 6.72D-10
 IDIUse=1 WtCom= 1.00D+00 WtEn= 0.00D+00
 Coeff-Com: -0.136D+00-0.640D-01 0.122D-02 0.120D+01
 Coeff:     -0.136D+00-0.640D-01 0.122D-02 0.120D+01
 Gap=     0.086 Goal=   None    Shift=    0.000
 Gap=     0.230 Goal=   None    Shift=    0.000
 RMSDP=1.45D-07 MaxDP=2.10D-06 DE=-1.61D-10 OVMax= 3.72D-06

 Cycle  11  Pass 1  IDiag  1:
 E= -113.720543140632     Delta-E=       -0.000000000009 Rises=F Damp=F
 DIIS: error= 8.74D-08 at cycle   5 NSaved=   5.
 NSaved= 5 IEnMin= 5 EnMin= -113.720543140632     IErMin= 5 ErrMin= 8.74D-08
 ErrMax= 8.74D-08  0.00D+00 EMaxC= 1.00D-01 BMatC= 2.79D-13 BMatP= 9.05D-12
 IDIUse=1 WtCom= 1.00D+00 WtEn= 0.00D+00
 Coeff-Com: -0.132D-01-0.261D-01-0.170D-01 0.366D-01 0.102D+01
 Coeff:     -0.132D-01-0.261D-01-0.170D-01 0.366D-01 0.102D+01
 Gap=     0.086 Goal=   None    Shift=    0.000
 Gap=     0.230 Goal=   None    Shift=    0.000
 RMSDP=2.47D-08 MaxDP=3.53D-07 DE=-9.21D-12 OVMax= 6.57D-07

 Cycle  12  Pass 1  IDiag  1:
 E= -113.720543140632     Delta-E=       -0.000000000000 Rises=F Damp=F
 DIIS: error= 2.53D-08 at cycle   6 NSaved=   6.
 NSaved= 6 IEnMin= 6 EnMin= -113.720543140632     IErMin= 6 ErrMin= 2.53D-08
 ErrMax= 2.53D-08  0.00D+00 EMaxC= 1.00D-01 BMatC= 3.08D-14 BMatP= 2.79D-13
 IDIUse=1 WtCom= 1.00D+00 WtEn= 0.00D+00
 Coeff-Com:  0.397D-02-0.307D-03-0.490D-02-0.505D-01 0.197D+00 0.855D+00
 Coeff:      0.397D-02-0.307D-03-0.490D-02-0.505D-01 0.197D+00 0.855D+00
 Gap=     0.086 Goal=   None    Shift=    0.000
 Gap=     0.230 Goal=   None    Shift=    0.000
 RMSDP=4.50D-09 MaxDP=5.73D-08 DE=-4.26D-13 OVMax= 1.16D-07

 SCF Done:  E(UPBE-PBE) =  -113.720543141     A.U. after   12 cycles
            NFock= 12  Conv=0.45D-08     -V/T= 2.0059
 <Sx>= 0.0000 <Sy>= 0.0000 <Sz>= 0.5000 <S**2>= 0.7516 S= 0.5008
 <L.S>= 0.000000000000E+00
 KE= 1.130539030959D+02 PE=-3.195613155638D+02 EE= 6.659903075059D+01
 Annihilation of the first spin contaminant:
 S**2 before annihilation     0.7516,   after     0.7500
 Leave Link  502 at Wed Oct  7 16:10:20 2020, MaxMem=  2684354560 cpu:              18.6 elap:               2.1
 (Enter /udrive/faculty/rpeverati/g16/g16/l508.exe)
 QCSCF skips out because SCF is already converged.
 Leave Link  508 at Wed Oct  7 16:10:21 2020, MaxMem=  2684354560 cpu:               0.3 elap:               0.6
 (Enter /udrive/faculty/rpeverati/g16/g16/l701.exe)
 ... and contract with generalized density number  0.
 Compute integral first derivatives.
 Leave Link  701 at Wed Oct  7 16:10:22 2020, MaxMem=  2684354560 cpu:               4.0 elap:               0.9
 (Enter /udrive/faculty/rpeverati/g16/g16/l702.exe)
 L702 exits ... SP integral derivatives will be done elsewhere.
 Leave Link  702 at Wed Oct  7 16:10:23 2020, MaxMem=  2684354560 cpu:               1.6 elap:               0.5
 (Enter /udrive/faculty/rpeverati/g16/g16/l703.exe)
 Integral derivatives from FoFJK, PRISM(SPDF).
 Compute integral first derivatives, UseDBF=F ICtDFT=           0.
 Calling FoFJK, ICntrl=      2527 FMM=F ISym2X=1 I1Cent= 0 IOpClX= 0 NMat=1 NMatS=1 NMatT=0.
 FoFJK:  IHMeth= 1 ICntrl=    2527 DoSepK=F KAlg= 0 I1Cent=           0 FoldK=F
 IRaf=         0 NMat=       1 IRICut=       1 DoRegI=T DoRafI=F ISym2E= 1 IDoP0=0 IntGTp=1.
 FoFCou: FMM=F IPFlag=           0 FMFlag=      100000 FMFlg1=         800
         NFxFlg=           0 DoJE=F BraDBF=F KetDBF=F FulRan=T
         wScrn=  0.000000 ICntrl=      2527 IOpCl=  0 I1Cent=           0 NGrid=           0
         NMat0=    1 NMatS0=      1 NMatT0=    0 NMatD0=    1 NMtDS0=    0 NMtDT0=    0
 Petite list used in FoFCou.
 Leave Link  703 at Wed Oct  7 16:10:24 2020, MaxMem=  2684354560 cpu:               4.4 elap:               0.8
 (Enter /udrive/faculty/rpeverati/g16/g16/l716.exe)
 Dipole        =-3.43356568D-01 4.37473773D-01 0.00000000D+00
 ***** Axes restored to original set *****
 -------------------------------------------------------------------
 Center     Atomic                   Forces (Hartrees/Bohr)
 Number     Number              X              Y              Z
 -------------------------------------------------------------------
      1        1          -0.001606657    0.000416624   -0.000000000
      2        6           0.002196415    0.003278317   -0.000000000
      3        8          -0.000589758   -0.003694941   -0.000000000
 -------------------------------------------------------------------
 Cartesian Forces:  Max     0.003694941 RMS     0.001895226
 Leave Link  716 at Wed Oct  7 16:10:25 2020, MaxMem=  2684354560 cpu:               1.6 elap:               0.5
 (Enter /udrive/faculty/rpeverati/g16/g16/l103.exe)

 GradGradGradGradGradGradGradGradGradGradGradGradGradGradGradGradGradGrad
 Berny optimization.
 Optmz: redundant internal coordinate code flag= 1
 Using GEDIIS/GDIIS optimizer.
 Red2BG:  D1=  6.83D-01 OD1=  2.98D-02 B2RMS=  0.00D+00 IAprox=0
 FormGI is forming the generalized inverse of G from B-inverse, IUseBI=4.
 Internal  Forces:  Max     0.003702744 RMS     0.002423313
 Search for a local minimum.
 Step number   2 out of a maximum of  100
 All quantities printed in internal units (Hartrees-Bohrs-Radians)
 RMS Force = .24233D-02 SwitMx=.10000D-02 MixMth= 1
 Mixed Optimization -- RFO/linear search
 Update second derivatives using D2CorX and points    1    2
 DE= -7.90D-04 DEPred=-7.07D-04 R= 1.12D+00
 TightC=F SS=  1.41D+00  RLast= 5.34D-02 DXNew= 5.0454D-01 1.6025D-01
 Trust test= 1.12D+00 RLast= 5.34D-02 DXMaxT set to 3.00D-01
 The second derivative matrix:
                          R1        R2        A1
           R1           0.30678
           R2          -0.02941   1.10427
           A1           0.00986   0.02497   0.15489
 ITU=  1  0
 Use linear search instead of GDIIS.
 Eigenvectors of the second derivative matrix:
                           1         2         3
     Eigenvalues --     0.15349   0.30646   1.10599
   1         R1        -0.06957   0.99691   0.03645
   2         R2        -0.02834   0.03455  -0.99900
   3         A1         0.99717   0.07054  -0.02585
 Iter=   1 RLamda= 0.00000000D+00 Sum=-4.62934715D-06.
 Iter=   2 RLamda=-4.62934715D-06 Sum=-4.62922273D-06.
 RFO step:  Lambda=-4.62934715D-06 EMin= 1.53492693D-01
 Quartic linear search produced a step of  0.16554.
 Iteration  1 RMS(Cart)=  0.00554496 RMS(Int)=  0.00002405
 Iteration  2 RMS(Cart)=  0.00002826 RMS(Int)=  0.00000000
 Iteration  3 RMS(Cart)=  0.00000000 RMS(Int)=  0.00000000
 ITry= 1 IFail=0 DXMaxC= 7.28D-03 DCOld= 1.00D+10 DXMaxT= 3.00D-01 DXLimC= 3.00D+00 Rises=F
 ClnCor:  largest displacement from symmetrization is 1.42D-15 for atom     1.
 Variable       Old X    -DE/DX   Delta X   Delta X   Delta X     New X
                                 (Linear)    (Quad)   (Total)
    R1        2.14822   0.00156   0.00626   0.00001   0.00627   2.15450
    R2        2.25018   0.00370   0.00442  -0.00058   0.00384   2.25402
    A1        2.15795  -0.00121  -0.00441  -0.00515  -0.00956   2.14839
         Item               Value     Threshold  Converged?
 Maximum Force            0.003703     0.000450     NO 
 RMS     Force            0.002423     0.000300     NO 
 Maximum Displacement     0.007279     0.001800     NO 
 RMS     Displacement     0.005553     0.001200     NO 
 Predicted change in Energy=-1.656531D-05
 Lowest energy point so far.  Saving SCF results.
 Largest change from initial coordinates is atom    1       0.006 Angstoms.
 GradGradGradGradGradGradGradGradGradGradGradGradGradGradGradGradGradGrad

 Leave Link  103 at Wed Oct  7 16:10:26 2020, MaxMem=  2684354560 cpu:               1.7 elap:               0.7
 (Enter /udrive/faculty/rpeverati/g16/g16/l202.exe)
                          Input orientation:                          
 ---------------------------------------------------------------------
 Center     Atomic      Atomic             Coordinates (Angstroms)
 Number     Number       Type             X           Y           Z
 ---------------------------------------------------------------------
      1          1           0       -0.865028    1.231136    0.000000
      2          6           0        0.078415    0.591004    0.000000
      3          8           0        0.056280   -0.601567    0.000000
 ---------------------------------------------------------------------
                    Distance matrix (angstroms):
                    1          2          3
     1  H    0.000000
     2  C    1.140112   0.000000
     3  O    2.051246   1.192776   0.000000
 Stoichiometry    CHO(2)
 Framework group  CS[SG(CHO)]
 Deg. of freedom     3
 Full point group                 CS      NOp   2
 RotChk:  IX=0 Diff= 6.80D-03
 Largest Abelian subgroup         CS      NOp   2
 Largest concise Abelian subgroup C1      NOp   1
                         Standard orientation:                         
 ---------------------------------------------------------------------
 Center     Atomic      Atomic             Coordinates (Angstroms)
 Number     Number       Type             X           Y           Z
 ---------------------------------------------------------------------
      1          1           0       -0.891483    1.217160    0.000000
      2          6           0        0.063677    0.594646    0.000000
      3          8           0        0.063677   -0.598130    0.000000
 ---------------------------------------------------------------------
 Rotational constants (GHZ):         674.0351684          43.7695438          41.1006104
 Leave Link  202 at Wed Oct  7 16:10:27 2020, MaxMem=  2684354560 cpu:               1.2 elap:               0.6
 (Enter /udrive/faculty/rpeverati/g16/g16/l301.exe)
 Standard basis: 6-31G(d) (5D, 7F)
 Ernie: Thresh=  0.10000D-02 Tol=  0.10000D-05 Strict=F.
 There are    24 symmetry adapted cartesian basis functions of A'  symmetry.
 There are     8 symmetry adapted cartesian basis functions of A"  symmetry.
 There are    22 symmetry adapted basis functions of A'  symmetry.
 There are     8 symmetry adapted basis functions of A"  symmetry.
    30 basis functions,    60 primitive gaussians,    32 cartesian basis functions
     8 alpha electrons        7 beta electrons
       nuclear repulsion energy        26.1439771678 Hartrees.
 IExCor= 1009 DFT=T Ex=PBE Corr=PBE ExCW=0 ScaHFX=  0.000000
 ScaDFX=  1.000000  1.000000  1.000000  1.000000 ScalE2=  1.000000  1.000000
 IRadAn=      5 IRanWt=     -1 IRanGd=            0 ICorTp=0 IEmpDi=  4
 NAtoms=    3 NActive=    3 NUniq=    3 SFac= 1.00D+00 NAtFMM=   60 NAOKFM=F Big=F
 Integral buffers will be    131072 words long.
 Raffenetti 2 integral format.
 Two-electron integral symmetry is turned on.
 Leave Link  301 at Wed Oct  7 16:10:27 2020, MaxMem=  2684354560 cpu:               2.8 elap:               0.6
 (Enter /udrive/faculty/rpeverati/g16/g16/l302.exe)
 NPDir=0 NMtPBC=     1 NCelOv=     1 NCel=       1 NClECP=     1 NCelD=      1
         NCelK=      1 NCelE2=     1 NClLst=     1 CellRange=     0.0.
 One-electron integrals computed using PRISM.
 One-electron integral symmetry used in STVInt
 NBasis=    30 RedAO= T EigKep=  1.71D-02  NBF=    22     8
 NBsUse=    30 1.00D-06 EigRej= -1.00D+00 NBFU=    22     8
 Precomputing XC quadrature grid using
 IXCGrd= 4 IRadAn=           5 IRanWt=          -1 IRanGd=           0 AccXCQ= 0.00D+00.
 Generated NRdTot=       0 NPtTot=           0 NUsed=           0 NTot=          32
 NSgBfM=    32    32    32    32    32 MxSgAt=     3 MxSgA2=     3.
 Leave Link  302 at Wed Oct  7 16:10:28 2020, MaxMem=  2684354560 cpu:               3.4 elap:               0.6
 (Enter /udrive/faculty/rpeverati/g16/g16/l303.exe)
 DipDrv:  MaxL=1.
 Leave Link  303 at Wed Oct  7 16:10:29 2020, MaxMem=  2684354560 cpu:               1.8 elap:               0.6
 (Enter /udrive/faculty/rpeverati/g16/g16/l401.exe)
 Initial guess from the checkpoint file:  "MN_50_hco_BH76_PBE_631Gs.chk"
 SCF N**3 symmetry information disabled.
 B after Tr=     0.000000   -0.000000   -0.000000
         Rot=    0.999999   -0.000000    0.000000   -0.001102 Ang=  -0.13 deg.
 Guess basis will be translated and rotated to current coordinates.
 JPrj=2 DoOrth=T DoCkMO=T.
 Initial guess orbital symmetries:
 Alpha Orbitals:
       Occupied  (A') (A') (A') (A') (A') (A") (A') (A')
       Virtual   (A") (A') (A') (A") (A') (A') (A') (A') (A') (A")
                 (A') (A") (A") (A') (A') (A') (A") (A') (A') (A")
                 (A') (A')
 Beta  Orbitals:
       Occupied  (A') (A') (A') (A') (A') (A") (A')
       Virtual   (A') (A") (A') (A') (A") (A') (A') (A') (A') (A')
                 (A") (A') (A") (A') (A") (A') (A') (A") (A') (A')
                 (A") (A') (A')
 The electronic state of the initial guess is 2-A'.
 Initial guess <Sx>= 0.0000 <Sy>= 0.0000 <Sz>= 0.5000 <S**2>= 0.7516 S= 0.5008
 Leave Link  401 at Wed Oct  7 16:10:30 2020, MaxMem=  2684354560 cpu:               3.6 elap:               0.6
 (Enter /udrive/faculty/rpeverati/g16/g16/l502.exe)
 Keep J ints in memory in symmetry-blocked form, NReq=10459184.
 FoFCou: FMM=F IPFlag=           0 FMFlag=           0 FMFlg1=           0
         NFxFlg=           0 DoJE=F BraDBF=F KetDBF=F FulRan=T
         wScrn=  0.000000 ICntrl=       600 IOpCl=  0 I1Cent=           0 NGrid=           0
         NMat0=    1 NMatS0=    465 NMatT0=    0 NMatD0=    1 NMtDS0=    0 NMtDT0=    0
 Petite list used in FoFCou.
 UHF open shell SCF:
 Using DIIS extrapolation, IDIIS=  1040.
 NGot=  2684354560 LenX=  2684292770 LenY=  2684291305
 Requested convergence on RMS density matrix=1.00D-08 within 120 cycles.
 Requested convergence on MAX density matrix=1.00D-06.
 Requested convergence on             energy=1.00D-06.
 No special actions if energy rises.

 Cycle   1  Pass 1  IDiag  1:
 E= -113.720549839654    
 DIIS: error= 3.20D-04 at cycle   1 NSaved=   1.
 NSaved= 1 IEnMin= 1 EnMin= -113.720549839654     IErMin= 1 ErrMin= 3.20D-04
 ErrMax= 3.20D-04  0.00D+00 EMaxC= 1.00D-01 BMatC= 2.60D-05 BMatP= 2.60D-05
 IDIUse=3 WtCom= 9.97D-01 WtEn= 3.20D-03
 Coeff-Com:  0.100D+01
 Coeff-En:   0.100D+01
 Coeff:      0.100D+01
 Gap=     0.086 Goal=   None    Shift=    0.000
 Gap=     0.228 Goal=   None    Shift=    0.000
 RMSDP=1.67D-04 MaxDP=1.58D-03              OVMax= 2.42D-03

 Cycle   2  Pass 1  IDiag  1:
 E= -113.720559365571     Delta-E=       -0.000009525917 Rises=F Damp=F
 DIIS: error= 2.01D-04 at cycle   2 NSaved=   2.
 NSaved= 2 IEnMin= 2 EnMin= -113.720559365571     IErMin= 2 ErrMin= 2.01D-04
 ErrMax= 2.01D-04  0.00D+00 EMaxC= 1.00D-01 BMatC= 4.71D-06 BMatP= 2.60D-05
 IDIUse=3 WtCom= 9.98D-01 WtEn= 2.01D-03
 Coeff-Com:  0.213D+00 0.787D+00
 Coeff-En:   0.000D+00 0.100D+01
 Coeff:      0.213D+00 0.787D+00
 Gap=     0.086 Goal=   None    Shift=    0.000
 Gap=     0.228 Goal=   None    Shift=    0.000
 RMSDP=6.86D-05 MaxDP=8.25D-04 DE=-9.53D-06 OVMax= 8.92D-04

 Cycle   3  Pass 1  IDiag  1:
 E= -113.720558127789     Delta-E=        0.000001237782 Rises=F Damp=F
 DIIS: error= 3.67D-04 at cycle   3 NSaved=   3.
 NSaved= 3 IEnMin= 2 EnMin= -113.720559365571     IErMin= 2 ErrMin= 2.01D-04
 ErrMax= 3.67D-04  0.00D+00 EMaxC= 1.00D-01 BMatC= 1.13D-05 BMatP= 4.71D-06
 IDIUse=3 WtCom= 3.43D-01 WtEn= 6.57D-01
 Coeff-Com:  0.594D-01 0.592D+00 0.349D+00
 Coeff-En:   0.000D+00 0.663D+00 0.337D+00
 Coeff:      0.204D-01 0.638D+00 0.341D+00
 Gap=     0.086 Goal=   None    Shift=    0.000
 Gap=     0.228 Goal=   None    Shift=    0.000
 RMSDP=4.29D-05 MaxDP=5.15D-04 DE= 1.24D-06 OVMax= 8.61D-04

 Cycle   4  Pass 1  IDiag  1:
 E= -113.720560083002     Delta-E=       -0.000001955213 Rises=F Damp=F
 DIIS: error= 1.29D-04 at cycle   4 NSaved=   4.
 NSaved= 4 IEnMin= 4 EnMin= -113.720560083002     IErMin= 4 ErrMin= 1.29D-04
 ErrMax= 1.29D-04  0.00D+00 EMaxC= 1.00D-01 BMatC= 1.17D-06 BMatP= 4.71D-06
 IDIUse=3 WtCom= 9.99D-01 WtEn= 1.29D-03
 Coeff-Com: -0.873D-03 0.293D+00 0.258D+00 0.450D+00
 Coeff-En:   0.000D+00 0.000D+00 0.138D+00 0.862D+00
 Coeff:     -0.872D-03 0.293D+00 0.258D+00 0.451D+00
 Gap=     0.086 Goal=   None    Shift=    0.000
 Gap=     0.228 Goal=   None    Shift=    0.000
 RMSDP=1.64D-05 MaxDP=2.35D-04 DE=-1.96D-06 OVMax= 2.18D-04

 Cycle   5  Pass 1  IDiag  1:
 E= -113.720560364481     Delta-E=       -0.000000281480 Rises=F Damp=F
 DIIS: error= 8.47D-06 at cycle   5 NSaved=   5.
 NSaved= 5 IEnMin= 5 EnMin= -113.720560364481     IErMin= 5 ErrMin= 8.47D-06
 ErrMax= 8.47D-06  0.00D+00 EMaxC= 1.00D-01 BMatC= 9.04D-09 BMatP= 1.17D-06
 IDIUse=1 WtCom= 1.00D+00 WtEn= 0.00D+00
 Coeff-Com: -0.240D-02 0.373D-01 0.566D-01 0.964D-01 0.812D+00
 Coeff:     -0.240D-02 0.373D-01 0.566D-01 0.964D-01 0.812D+00
 Gap=     0.086 Goal=   None    Shift=    0.000
 Gap=     0.228 Goal=   None    Shift=    0.000
 RMSDP=3.25D-06 MaxDP=3.88D-05 DE=-2.81D-07 OVMax= 3.21D-05

 Cycle   6  Pass 1  IDiag  1:
 E= -113.720560367637     Delta-E=       -0.000000003155 Rises=F Damp=F
 DIIS: error= 2.06D-06 at cycle   6 NSaved=   6.
 NSaved= 6 IEnMin= 6 EnMin= -113.720560367637     IErMin= 6 ErrMin= 2.06D-06
 ErrMax= 2.06D-06  0.00D+00 EMaxC= 1.00D-01 BMatC= 4.20D-10 BMatP= 9.04D-09
 IDIUse=1 WtCom= 1.00D+00 WtEn= 0.00D+00
 Coeff-Com: -0.112D-03-0.257D-01-0.226D-01-0.398D-01 0.546D-01 0.103D+01
 Coeff:     -0.112D-03-0.257D-01-0.226D-01-0.398D-01 0.546D-01 0.103D+01
 Gap=     0.086 Goal=   None    Shift=    0.000
 Gap=     0.228 Goal=   None    Shift=    0.000
 RMSDP=9.72D-07 MaxDP=1.22D-05 DE=-3.16D-09 OVMax= 1.09D-05

 Cycle   7  Pass 1  IDiag  1:
 E= -113.720560367907     Delta-E=       -0.000000000271 Rises=F Damp=F
 DIIS: error= 9.33D-07 at cycle   7 NSaved=   7.
 NSaved= 7 IEnMin= 7 EnMin= -113.720560367907     IErMin= 7 ErrMin= 9.33D-07
 ErrMax= 9.33D-07  0.00D+00 EMaxC= 1.00D-01 BMatC= 3.34D-11 BMatP= 4.20D-10
 IDIUse=1 WtCom= 1.00D+00 WtEn= 0.00D+00
 Coeff-Com:  0.671D-04-0.329D-02-0.289D-02-0.712D-02-0.275D-01 0.841D-01
 Coeff-Com:  0.957D+00
 Coeff:      0.671D-04-0.329D-02-0.289D-02-0.712D-02-0.275D-01 0.841D-01
 Coeff:      0.957D+00
 Gap=     0.086 Goal=   None    Shift=    0.000
 Gap=     0.228 Goal=   None    Shift=    0.000
 RMSDP=1.63D-07 MaxDP=2.55D-06 DE=-2.71D-10 OVMax= 4.52D-06

 Cycle   8  Pass 1  IDiag  1:
 E= -113.720560367925     Delta-E=       -0.000000000018 Rises=F Damp=F
 DIIS: error= 1.90D-07 at cycle   8 NSaved=   8.
 NSaved= 8 IEnMin= 8 EnMin= -113.720560367925     IErMin= 8 ErrMin= 1.90D-07
 ErrMax= 1.90D-07  0.00D+00 EMaxC= 1.00D-01 BMatC= 3.14D-12 BMatP= 3.34D-11
 IDIUse=1 WtCom= 1.00D+00 WtEn= 0.00D+00
 Coeff-Com:  0.423D-04 0.238D-02 0.205D-02 0.316D-02-0.140D-01-0.109D+00
 Coeff-Com:  0.153D+00 0.962D+00
 Coeff:      0.423D-04 0.238D-02 0.205D-02 0.316D-02-0.140D-01-0.109D+00
 Coeff:      0.153D+00 0.962D+00
 Gap=     0.086 Goal=   None    Shift=    0.000
 Gap=     0.228 Goal=   None    Shift=    0.000
 RMSDP=6.61D-08 MaxDP=1.05D-06 DE=-1.82D-11 OVMax= 1.82D-06

 Cycle   9  Pass 1  IDiag  1:
 E= -113.720560367927     Delta-E=       -0.000000000002 Rises=F Damp=F
 DIIS: error= 8.31D-08 at cycle   9 NSaved=   9.
 NSaved= 9 IEnMin= 9 EnMin= -113.720560367927     IErMin= 9 ErrMin= 8.31D-08
 ErrMax= 8.31D-08  0.00D+00 EMaxC= 1.00D-01 BMatC= 2.45D-13 BMatP= 3.14D-12
 IDIUse=1 WtCom= 1.00D+00 WtEn= 0.00D+00
 Coeff-Com: -0.971D-05 0.246D-03 0.131D-03 0.642D-03 0.269D-02-0.613D-02
 Coeff-Com: -0.764D-01-0.652D-02 0.109D+01
 Coeff:     -0.971D-05 0.246D-03 0.131D-03 0.642D-03 0.269D-02-0.613D-02
 Coeff:     -0.764D-01-0.652D-02 0.109D+01
 Gap=     0.086 Goal=   None    Shift=    0.000
 Gap=     0.228 Goal=   None    Shift=    0.000
 RMSDP=1.64D-08 MaxDP=2.90D-07 DE=-2.02D-12 OVMax= 5.08D-07

 Cycle  10  Pass 1  IDiag  1:
 E= -113.720560367927     Delta-E=       -0.000000000000 Rises=F Damp=F
 DIIS: error= 1.40D-08 at cycle  10 NSaved=  10.
 NSaved=10 IEnMin=10 EnMin= -113.720560367927     IErMin=10 ErrMin= 1.40D-08
 ErrMax= 1.40D-08  0.00D+00 EMaxC= 1.00D-01 BMatC= 8.21D-15 BMatP= 2.45D-13
 IDIUse=1 WtCom= 1.00D+00 WtEn= 0.00D+00
 Coeff-Com: -0.779D-07-0.669D-04-0.304D-04-0.132D-03 0.293D-03 0.293D-02
 Coeff-Com:  0.103D-02-0.274D-01-0.701D-01 0.109D+01
 Coeff:     -0.779D-07-0.669D-04-0.304D-04-0.132D-03 0.293D-03 0.293D-02
 Coeff:      0.103D-02-0.274D-01-0.701D-01 0.109D+01
 Gap=     0.086 Goal=   None    Shift=    0.000
 Gap=     0.228 Goal=   None    Shift=    0.000
 RMSDP=2.49D-09 MaxDP=3.59D-08 DE=-1.14D-13 OVMax= 6.19D-08

 SCF Done:  E(UPBE-PBE) =  -113.720560368     A.U. after   10 cycles
            NFock= 10  Conv=0.25D-08     -V/T= 2.0060
 <Sx>= 0.0000 <Sy>= 0.0000 <Sz>= 0.5000 <S**2>= 0.7516 S= 0.5008
 <L.S>= 0.000000000000E+00
 KE= 1.130434573946D+02 PE=-3.194671099129D+02 EE= 6.655911498259D+01
 Annihilation of the first spin contaminant:
 S**2 before annihilation     0.7516,   after     0.7500
 Leave Link  502 at Wed Oct  7 16:10:32 2020, MaxMem=  2684354560 cpu:              12.6 elap:               1.4
 (Enter /udrive/faculty/rpeverati/g16/g16/l508.exe)
 QCSCF skips out because SCF is already converged.
 Leave Link  508 at Wed Oct  7 16:10:33 2020, MaxMem=  2684354560 cpu:               0.6 elap:               0.5
 (Enter /udrive/faculty/rpeverati/g16/g16/l701.exe)
 ... and contract with generalized density number  0.
 Compute integral first derivatives.
 Leave Link  701 at Wed Oct  7 16:10:34 2020, MaxMem=  2684354560 cpu:               3.0 elap:               0.7
 (Enter /udrive/faculty/rpeverati/g16/g16/l702.exe)
 L702 exits ... SP integral derivatives will be done elsewhere.
 Leave Link  702 at Wed Oct  7 16:10:35 2020, MaxMem=  2684354560 cpu:               1.4 elap:               0.6
 (Enter /udrive/faculty/rpeverati/g16/g16/l703.exe)
 Integral derivatives from FoFJK, PRISM(SPDF).
 Compute integral first derivatives, UseDBF=F ICtDFT=           0.
 Calling FoFJK, ICntrl=      2527 FMM=F ISym2X=1 I1Cent= 0 IOpClX= 0 NMat=1 NMatS=1 NMatT=0.
 FoFJK:  IHMeth= 1 ICntrl=    2527 DoSepK=F KAlg= 0 I1Cent=           0 FoldK=F
 IRaf=         0 NMat=       1 IRICut=       1 DoRegI=T DoRafI=F ISym2E= 1 IDoP0=0 IntGTp=1.
 FoFCou: FMM=F IPFlag=           0 FMFlag=      100000 FMFlg1=         800
         NFxFlg=           0 DoJE=F BraDBF=F KetDBF=F FulRan=T
         wScrn=  0.000000 ICntrl=      2527 IOpCl=  0 I1Cent=           0 NGrid=           0
         NMat0=    1 NMatS0=      1 NMatT0=    0 NMatD0=    1 NMtDS0=    0 NMtDT0=    0
 Petite list used in FoFCou.
 Leave Link  703 at Wed Oct  7 16:10:36 2020, MaxMem=  2684354560 cpu:               4.5 elap:               1.0
 (Enter /udrive/faculty/rpeverati/g16/g16/l716.exe)
 Dipole        =-3.43949987D-01 4.35387279D-01 0.00000000D+00
 ***** Axes restored to original set *****
 -------------------------------------------------------------------
 Center     Atomic                   Forces (Hartrees/Bohr)
 Number     Number              X              Y              Z
 -------------------------------------------------------------------
      1        1           0.000014545    0.000087466   -0.000000000
      2        6          -0.000089844    0.000007836   -0.000000000
      3        8           0.000075299   -0.000095302   -0.000000000
 -------------------------------------------------------------------
 Cartesian Forces:  Max     0.000095302 RMS     0.000058450
 Leave Link  716 at Wed Oct  7 16:10:37 2020, MaxMem=  2684354560 cpu:               1.2 elap:               0.5
 (Enter /udrive/faculty/rpeverati/g16/g16/l103.exe)

 GradGradGradGradGradGradGradGradGradGradGradGradGradGradGradGradGradGrad
 Berny optimization.
 Optmz: redundant internal coordinate code flag= 1
 Using GEDIIS/GDIIS optimizer.
 Red2BG:  D1=  6.77D-01 OD1=  6.88D-03 B2RMS=  0.00D+00 IAprox=0
 FormGI is forming the generalized inverse of G from B-inverse, IUseBI=4.
 Internal  Forces:  Max     0.000173605 RMS     0.000115944
 Search for a local minimum.
 Step number   3 out of a maximum of  100
 All quantities printed in internal units (Hartrees-Bohrs-Radians)
 RMS Force = .11594D-03 SwitMx=.10000D-02 MixMth= 2
 Mixed Optimization -- En-DIIS/RFO-DIIS
 Update second derivatives using D2CorX and points    1    2    3
 DE= -1.72D-05 DEPred=-1.66D-05 R= 1.04D+00
 TightC=F SS=  1.41D+00  RLast= 1.21D-02 DXNew= 5.0454D-01 3.6191D-02
 Trust test= 1.04D+00 RLast= 1.21D-02 DXMaxT set to 3.00D-01
 The second derivative matrix:
                          R1        R2        A1
           R1           0.29236
           R2          -0.05213   1.07711
           A1           0.01158   0.02057   0.16085
 ITU=  1  1  0
 Use linear search instead of GDIIS.
 Eigenvectors of the second derivative matrix:
                           1         2         3
     Eigenvalues --     0.15914   0.29020   1.08099
   1         R1        -0.09737   0.99308   0.06563
   2         R2        -0.02782   0.06320  -0.99761
   3         A1         0.99486   0.09896  -0.02147
 Iter=   1 RLamda= 0.00000000D+00 Sum=-1.64279765D-07.
 Iter=   2 RLamda=-1.64279765D-07 Sum=-1.64279645D-07.
 RFO step:  Lambda=-1.64279765D-07 EMin= 1.59138745D-01
 Quartic linear search produced a step of -0.02929.
 Iteration  1 RMS(Cart)=  0.00069706 RMS(Int)=  0.00000026
 Iteration  2 RMS(Cart)=  0.00000022 RMS(Int)=  0.00000000
 ITry= 1 IFail=0 DXMaxC= 7.25D-04 DCOld= 1.00D+10 DXMaxT= 3.00D-01 DXLimC= 3.00D+00 Rises=F
 ClnCor:  largest displacement from symmetrization is 1.11D-15 for atom     1.
 Variable       Old X    -DE/DX   Delta X   Delta X   Delta X     New X
                                 (Linear)    (Quad)   (Total)
    R1        2.15450   0.00004  -0.00018   0.00028   0.00010   2.15459
    R2        2.25402   0.00009  -0.00011   0.00018   0.00007   2.25409
    A1        2.14839   0.00017   0.00028   0.00079   0.00107   2.14946
         Item               Value     Threshold  Converged?
 Maximum Force            0.000174     0.000450     YES
 RMS     Force            0.000116     0.000300     YES
 Maximum Displacement     0.000725     0.001800     YES
 RMS     Displacement     0.000697     0.001200     YES
 Predicted change in Energy=-9.744962D-08
 Optimization completed.
    -- Stationary point found.
                           ----------------------------
                           !   Optimized Parameters   !
                           ! (Angstroms and Degrees)  !
 --------------------------                            --------------------------
 ! Name  Definition              Value          Derivative Info.                !
 --------------------------------------------------------------------------------
 ! R1    R(1,2)                  1.1401         -DE/DX =    0.0                 !
 ! R2    R(2,3)                  1.1928         -DE/DX =    0.0001              !
 ! A1    A(1,2,3)              123.0938         -DE/DX =    0.0002              !
 --------------------------------------------------------------------------------
 Lowest energy point so far.  Saving SCF results.
 Largest change from initial coordinates is atom    1       0.007 Angstoms.
 GradGradGradGradGradGradGradGradGradGradGradGradGradGradGradGradGradGrad

 Leave Link  103 at Wed Oct  7 16:10:38 2020, MaxMem=  2684354560 cpu:               1.9 elap:               0.7
 (Enter /udrive/faculty/rpeverati/g16/g16/l202.exe)
                          Input orientation:                          
 ---------------------------------------------------------------------
 Center     Atomic      Atomic             Coordinates (Angstroms)
 Number     Number       Type             X           Y           Z
 ---------------------------------------------------------------------
      1          1           0       -0.865028    1.231136    0.000000
      2          6           0        0.078415    0.591004    0.000000
      3          8           0        0.056280   -0.601567    0.000000
 ---------------------------------------------------------------------
                    Distance matrix (angstroms):
                    1          2          3
     1  H    0.000000
     2  C    1.140112   0.000000
     3  O    2.051246   1.192776   0.000000
 Stoichiometry    CHO(2)
 Framework group  CS[SG(CHO)]
 Deg. of freedom     3
 Full point group                 CS      NOp   2
 RotChk:  IX=0 Diff= 4.91D-18
 Largest Abelian subgroup         CS      NOp   2
 Largest concise Abelian subgroup C1      NOp   1
                         Standard orientation:                         
 ---------------------------------------------------------------------
 Center     Atomic      Atomic             Coordinates (Angstroms)
 Number     Number       Type             X           Y           Z
 ---------------------------------------------------------------------
      1          1           0       -0.891483    1.217160    0.000000
      2          6           0        0.063677    0.594646    0.000000
      3          8           0        0.063677   -0.598130    0.000000
 ---------------------------------------------------------------------
 Rotational constants (GHZ):         674.0351684          43.7695438          41.1006104
 Leave Link  202 at Wed Oct  7 16:10:39 2020, MaxMem=  2684354560 cpu:               1.5 elap:               0.7
 (Enter /udrive/faculty/rpeverati/g16/g16/l601.exe)
 Copying SCF densities to generalized density rwf, IOpCl= 1 IROHF=0.

 **********************************************************************

            Population analysis using the SCF density.

 **********************************************************************

 Orbital symmetries:
 Alpha Orbitals:
       Occupied  (A') (A') (A') (A') (A') (A") (A') (A')
       Virtual   (A") (A') (A') (A") (A') (A') (A') (A') (A') (A")
                 (A') (A") (A") (A') (A') (A') (A") (A') (A') (A")
                 (A') (A')
 Beta  Orbitals:
       Occupied  (A') (A') (A') (A') (A') (A") (A')
       Virtual   (A') (A") (A') (A') (A") (A') (A') (A') (A') (A')
                 (A") (A') (A") (A') (A") (A') (A') (A") (A') (A')
                 (A") (A') (A')
 The electronic state is 2-A'.
 Alpha  occ. eigenvalues --  -18.83319  -9.99173  -1.00755  -0.54848  -0.43309
 Alpha  occ. eigenvalues --   -0.38215  -0.37056  -0.16901
 Alpha virt. eigenvalues --   -0.08259   0.09616   0.20799   0.47287   0.48627
 Alpha virt. eigenvalues --    0.60536   0.64067   0.75707   0.82438   0.88254
 Alpha virt. eigenvalues --    0.92787   1.42634   1.43838   1.44111   1.45147
 Alpha virt. eigenvalues --    1.62204   1.83989   1.96075   2.21763   2.46076
 Alpha virt. eigenvalues --    2.50884   2.81802
  Beta  occ. eigenvalues --  -18.82599  -9.98335  -0.99505  -0.52737  -0.41507
  Beta  occ. eigenvalues --   -0.37408  -0.33392
  Beta virt. eigenvalues --   -0.10580  -0.06484   0.12007   0.22197   0.48512
  Beta virt. eigenvalues --    0.53105   0.62000   0.66084   0.78014   0.83754
  Beta virt. eigenvalues --    0.88736   0.95168   1.43716   1.46380   1.46670
  Beta virt. eigenvalues --    1.47607   1.64251   1.86793   1.98860   2.24398
  Beta virt. eigenvalues --    2.47415   2.54422   2.82764
          Condensed to atoms (all electrons):
               1          2          3
     1  H    0.695723   0.197327  -0.043884
     2  C    0.197327   5.219683   0.524639
     3  O   -0.043884   0.524639   7.728430
          Atomic-Atomic Spin Densities.
               1          2          3
     1  H    0.334156  -0.145315  -0.016331
     2  C   -0.145315   0.847533  -0.132198
     3  O   -0.016331  -0.132198   0.405999
 Mulliken charges and spin densities:
               1          2
     1  H    0.150834   0.172510
     2  C    0.058351   0.570020
     3  O   -0.209185   0.257470
 Sum of Mulliken charges =   0.00000   1.00000
 Mulliken charges and spin densities with hydrogens summed into heavy atoms:
               1          2
     2  C    0.209185   0.742530
     3  O   -0.209185   0.257470
 Electronic spatial extent (au):  <R**2>=             50.7666
 Charge=              0.0000 electrons
 Dipole moment (field-independent basis, Debye):
    X=             -0.8742    Y=              1.1066    Z=              0.0000  Tot=              1.4103
 Quadrupole moment (field-independent basis, Debye-Ang):
   XX=            -11.1329   YY=            -11.3562   ZZ=            -10.6502
   XY=             -0.9606   XZ=              0.0000   YZ=              0.0000
 Traceless Quadrupole moment (field-independent basis, Debye-Ang):
   XX=             -0.0864   YY=             -0.3098   ZZ=              0.3962
   XY=             -0.9606   XZ=              0.0000   YZ=              0.0000
 Octapole moment (field-independent basis, Debye-Ang**2):
  XXX=             -0.6486  YYY=             -2.8596  ZZZ=              0.0000  XYY=             -1.3497
  XXY=             -0.9443  XXZ=              0.0000  XZZ=             -0.0611  YZZ=             -1.0260
  YYZ=              0.0000  XYZ=              0.0000
 Hexadecapole moment (field-independent basis, Debye-Ang**3):
 XXXX=            -13.9451 YYYY=            -38.9760 ZZZZ=             -8.4969 XXXY=              1.6766
 XXXZ=              0.0000 YYYX=              0.7941 YYYZ=              0.0000 ZZZX=              0.0000
 ZZZY=              0.0000 XXYY=             -8.6628 XXZZ=             -3.8199 YYZZ=             -7.8326
 XXYZ=              0.0000 YYXZ=              0.0000 ZZXY=              0.7476
 N-N= 2.614397716779D+01 E-N=-3.194671100761D+02  KE= 1.130434573946D+02
                          Isotropic Fermi Contact Couplings
        Atom                 a.u.       MegaHertz       Gauss      10(-4) cm-1
     1  H(1)               0.07901     353.17358     126.02112     117.80603
     2  C(13)              0.37649     423.24497     151.02433     141.17933
     3  O(17)              0.05501     -33.34974     -11.90002     -11.12428
 --------------------------------------------------------
       Center         ----  Spin Dipole Couplings  ----
                      3XX-RR        3YY-RR        3ZZ-RR
 --------------------------------------------------------
     1   Atom        0.018457      0.008574     -0.027031
     2   Atom        0.350655     -0.082614     -0.268040
     3   Atom        1.261113     -0.519684     -0.741428
 --------------------------------------------------------
                        XY            XZ            YZ
 --------------------------------------------------------
     1   Atom       -0.026053      0.000000      0.000000
     2   Atom        0.380158      0.000000      0.000000
     3   Atom        0.480416      0.000000      0.000000
 --------------------------------------------------------


 ---------------------------------------------------------------------------------
              Anisotropic Spin Dipole Couplings in Principal Axis System
 ---------------------------------------------------------------------------------

       Atom             a.u.   MegaHertz   Gauss  10(-4) cm-1        Axes

              Baa    -0.0270   -14.423    -5.146    -4.811  0.0000  0.0000  1.0000
     1 H(1)   Bbb    -0.0130    -6.937    -2.475    -2.314  0.6378  0.7702  0.0000
              Bcc     0.0400    21.360     7.622     7.125  0.7702 -0.6378  0.0000
 
              Baa    -0.3035   -40.731   -14.534   -13.586 -0.5024  0.8646  0.0000
     2 C(13)  Bbb    -0.2680   -35.968   -12.834   -11.998  0.0000  0.0000  1.0000
              Bcc     0.5716    76.699    27.368    25.584  0.8646  0.5024  0.0000
 
              Baa    -0.7414    53.649    19.143    17.895  0.0000  0.0000  1.0000
     3 O(17)  Bbb    -0.6410    46.384    16.551    15.472 -0.2449  0.9696  0.0000
              Bcc     1.3824  -100.033   -35.694   -33.367  0.9696  0.2449  0.0000
 

 ---------------------------------------------------------------------------------

 No NMR shielding tensors so no spin-rotation constants.
 Leave Link  601 at Wed Oct  7 16:10:41 2020, MaxMem=  2684354560 cpu:               5.1 elap:               1.1
 (Enter /udrive/faculty/rpeverati/g16/g16/l9999.exe)

 Test job not archived.
 1\1\GINC-NODE56\FOpt\UPBEPBE\6-31G(d)\C1H1O1(2)\RPEVERATI\07-Oct-2020\
 0\\#P Opt(MaxCyc=100) PBEPBE/6-31G* 5D 7F Integral=UltraFineGrid SCF=(
 NoSymm,XQC,MaxCyc=120) IOp(1/33=1)\\TS search on BH76.\\0,2\H,-0.86502
 79772,1.2311362454,0.\C,0.0784153883,0.5910042232,0.\O,0.0562803034,-0
 .601566773,0.\\Version=ES64L-G16RevA.03\State=2-A'\HF=-113.7205604\S2=
 0.751621\S2-1=0.\S2A=0.750002\RMSD=2.487e-09\RMSF=5.845e-05\Dipole=-0.
 335811,0.4416952,0.\Quadrupole=-0.0908264,-0.2037719,0.2945983,-0.7167
 576,0.,0.\PG=CS [SG(C1H1O1)]\\@


 REALITY IS FOR PEOPLE WHO CAN'T FACE SCIENCE FICTION.
 Job cpu time:       0 days  0 hours  2 minutes 47.1 seconds.
 Elapsed time:       0 days  0 hours  0 minutes 33.0 seconds.
 File lengths (MBytes):  RWF=      5 Int=      0 D2E=      0 Chk=      1 Scr=      1
 Normal termination of Gaussian 16 at Wed Oct  7 16:10:42 2020.
