 Entering Gaussian System, Link 0=g16
 Input=MN_93_RKT19_BH76_PBE_631Gs.in
 Output=MN_93_RKT19_BH76_PBE_631Gs.log
 Initial command:
 /udrive/faculty/rpeverati/g16/g16/l1.exe "/udrive/scratch-directories/gaussian09/rpeverati/Gau-20379.inp" -scrdir="/udrive/scratch-directories/gaussian09/rpeverati/"
 Entering Link 1 = /udrive/faculty/rpeverati/g16/g16/l1.exe PID=     20391.
  
 Copyright (c) 1988,1990,1992,1993,1995,1998,2003,2009,2016,
            Gaussian, Inc.  All Rights Reserved.
  
 This is part of the Gaussian(R) 16 program.  It is based on
 the Gaussian(R) 09 system (copyright 2009, Gaussian, Inc.),
 the Gaussian(R) 03 system (copyright 2003, Gaussian, Inc.),
 the Gaussian(R) 98 system (copyright 1998, Gaussian, Inc.),
 the Gaussian(R) 94 system (copyright 1995, Gaussian, Inc.),
 the Gaussian 92(TM) system (copyright 1992, Gaussian, Inc.),
 the Gaussian 90(TM) system (copyright 1990, Gaussian, Inc.),
 the Gaussian 88(TM) system (copyright 1988, Gaussian, Inc.),
 the Gaussian 86(TM) system (copyright 1986, Carnegie Mellon
 University), and the Gaussian 82(TM) system (copyright 1983,
 Carnegie Mellon University). Gaussian is a federally registered
 trademark of Gaussian, Inc.
  
 This software contains proprietary and confidential information,
 including trade secrets, belonging to Gaussian, Inc.
  
 This software is provided under written license and may be
 used, copied, transmitted, or stored only in accord with that
 written license.
  
 The following legend is applicable only to US Government
 contracts under FAR:
  
                    RESTRICTED RIGHTS LEGEND
  
 Use, reproduction and disclosure by the US Government is
 subject to restrictions as set forth in subparagraphs (a)
 and (c) of the Commercial Computer Software - Restricted
 Rights clause in FAR 52.227-19.
  
 Gaussian, Inc.
 340 Quinnipiac St., Bldg. 40, Wallingford CT 06492
  
  
 ---------------------------------------------------------------
 Warning -- This program may not be used in any manner that
 competes with the business of Gaussian, Inc. or will provide
 assistance to any competitor of Gaussian, Inc.  The licensee
 of this program is prohibited from giving any competitor of
 Gaussian, Inc. access to this program.  By using this program,
 the user acknowledges that Gaussian, Inc. is engaged in the
 business of creating and licensing software in the field of
 computational chemistry and represents and warrants to the
 licensee that it is not a competitor of Gaussian, Inc. and that
 it will not use this program in any manner prohibited above.
 ---------------------------------------------------------------
  

 Cite this work as:
 Gaussian 16, Revision A.03,
 M. J. Frisch, G. W. Trucks, H. B. Schlegel, G. E. Scuseria, 
 M. A. Robb, J. R. Cheeseman, G. Scalmani, V. Barone, 
 G. A. Petersson, H. Nakatsuji, X. Li, M. Caricato, A. V. Marenich, 
 J. Bloino, B. G. Janesko, R. Gomperts, B. Mennucci, H. P. Hratchian, 
 J. V. Ortiz, A. F. Izmaylov, J. L. Sonnenberg, D. Williams-Young, 
 F. Ding, F. Lipparini, F. Egidi, J. Goings, B. Peng, A. Petrone, 
 T. Henderson, D. Ranasinghe, V. G. Zakrzewski, J. Gao, N. Rega, 
 G. Zheng, W. Liang, M. Hada, M. Ehara, K. Toyota, R. Fukuda, 
 J. Hasegawa, M. Ishida, T. Nakajima, Y. Honda, O. Kitao, H. Nakai, 
 T. Vreven, K. Throssell, J. A. Montgomery, Jr., J. E. Peralta, 
 F. Ogliaro, M. J. Bearpark, J. J. Heyd, E. N. Brothers, K. N. Kudin, 
 V. N. Staroverov, T. A. Keith, R. Kobayashi, J. Normand, 
 K. Raghavachari, A. P. Rendell, J. C. Burant, S. S. Iyengar, 
 J. Tomasi, M. Cossi, J. M. Millam, M. Klene, C. Adamo, R. Cammi, 
 J. W. Ochterski, R. L. Martin, K. Morokuma, O. Farkas, 
 J. B. Foresman, and D. J. Fox, Gaussian, Inc., Wallingford CT, 2016.
 
 ******************************************
 Gaussian 16:  ES64L-G16RevA.03 25-Dec-2016
                 7-Oct-2020 
 ******************************************
 %NoSave
 %nproc=12
 Will use up to   12 processors via shared memory.
 %mem=20GB
 %chk=MN_93_RKT19_BH76_PBE_631Gs
 ----------------------------------------------------------------------
 #P Opt(TS,MaxCyc=50,NoEigenTest,MaxStep=10,AddRedundant) PBEPBE/6-31G*
  5D 7F Integral=UltraFineGrid SCF=(NoSymm,XQC,MaxCyc=120) IOp(1/33=1)
 ----------------------------------------------------------------------
 1/5=1,6=50,8=10,11=1,18=120,26=4,33=1,38=1/1,3;
 2/9=110,12=2,17=6,18=5,40=1/2;
 3/5=1,6=6,7=1,8=11,11=2,25=1,30=1,71=1,74=1009,75=-5/1,2,3;
 4/9=2/1;
 5/5=2,7=120,8=3,13=1,38=5/2,8;
 6/7=2,8=2,9=2,10=2,28=1/1;
 7//1,2,3,16;
 1/5=1,6=50,8=10,11=1,18=20,26=4,33=1/3(2);
 2/9=110/2;
 99//99;
 2/9=110/2;
 3/5=1,6=6,7=1,8=11,11=2,25=1,30=1,71=1,74=1009,75=-5/1,2,3;
 4/5=5,9=2,16=3,69=1/1;
 5/5=2,7=120,8=3,13=1,38=5/2,8;
 7//1,2,3,16;
 1/5=1,6=50,8=10,11=1,18=20,26=4,33=1/3(-5);
 2/9=110/2;
 6/7=2,8=2,9=2,10=2,19=2,28=1/1;
 99/9=1/99;
 Leave Link    1 at Wed Oct  7 16:12:43 2020, MaxMem=  2684354560 cpu:              10.2 elap:               1.1
 (Enter /udrive/faculty/rpeverati/g16/g16/l101.exe)
 ONIOM data not found on unit 2.
 ------------------
 TS search on BH76.
 ------------------
 TstMul:  ICh=     0
 TstMul:  Mul=     3
 TstMul:  ICh=     0
 TstMul:  Mul=     3
 Symbolic Z-matrix:
 Charge =  0 Multiplicity = 3
 C                    -1.39499  -0.44966   0.0007 
 C                    -0.43575   0.71406   0.00203 
 N                     1.92757  -0.37835   0.00304 
 H                    -1.20009  -1.12095  -0.83569 
 H                    -1.3221   -1.02788   0.92177 
 H                    -2.42871  -0.10535  -0.08933 
 H                    -0.41769   1.30848  -0.9072 
 H                    -0.44113   1.3291    0.89747 
 H                     0.8285    0.18059  -0.02856 
 H                     2.47259   0.49807   0.00391 
 
 RdStrC is calling ZToCFu for IStruc=1 NZ=    10.
 PrtBox:  NBox=     2 Levels=  1 BoxLen=    8.00 SMaxX=        9.26
          Shift=            4.589600            2.118290            1.714360
 Box      1 Number                   0 centers from      1 to      8:
 Box      2 Number                   4 centers from      9 to     10:
 After GenITR:
 ITRead=  0  0  0  0  0  0  0  0  0  0
 MicOpt= -1 -1 -1 -1 -1 -1 -1 -1 -1 -1
 Add virtual bond connecting atoms H9         and N3         Dist= 2.33D+00.
 Add virtual bond connecting atoms H9         and C2         Dist= 2.59D+00.
 The following ModRedundant input section has been read:
 
 ITRead=  0  0  0  0  0  0  0  0  0  0
 MicOpt= -1 -1 -1 -1 -1 -1 -1 -1 -1 -1
 NAtoms=     10 NQM=       10 NQMF=       0 NMMI=      0 NMMIF=      0
                NMic=       0 NMicF=      0.
                    Isotopes and Nuclear Properties:
 (Nuclear quadrupole moments (NQMom) in fm**2, nuclear magnetic moments (NMagM)
  in nuclear magnetons)

  Atom         1           2           3           4           5           6           7           8           9          10
 IAtWgt=          12          12          14           1           1           1           1           1           1           1
 AtmWgt=  12.0000000  12.0000000  14.0030740   1.0078250   1.0078250   1.0078250   1.0078250   1.0078250   1.0078250   1.0078250
 NucSpn=           0           0           2           1           1           1           1           1           1           1
 AtZEff=   0.0000000   0.0000000   0.0000000   0.0000000   0.0000000   0.0000000   0.0000000   0.0000000   0.0000000   0.0000000
 NQMom=    0.0000000   0.0000000   2.0440000   0.0000000   0.0000000   0.0000000   0.0000000   0.0000000   0.0000000   0.0000000
 NMagM=    0.0000000   0.0000000   0.4037610   2.7928460   2.7928460   2.7928460   2.7928460   2.7928460   2.7928460   2.7928460
 AtZNuc=   6.0000000   6.0000000   7.0000000   1.0000000   1.0000000   1.0000000   1.0000000   1.0000000   1.0000000   1.0000000
 No MM parameters found.
 Leave Link  101 at Wed Oct  7 16:12:44 2020, MaxMem=  2684354560 cpu:              13.4 elap:               1.3
 (Enter /udrive/faculty/rpeverati/g16/g16/l103.exe)

 GradGradGradGradGradGradGradGradGradGradGradGradGradGradGradGradGradGrad
 Berny optimization.
 Optmz: redundant internal coordinate code flag= 1
 Initialization pass.
                           ----------------------------
                           !    Initial Parameters    !
                           ! (Angstroms and Degrees)  !
 --------------------------                            --------------------------
 ! Name  Definition              Value          Derivative Info.                !
 --------------------------------------------------------------------------------
 ! R1    R(1,2)                  1.5081         estimate D2E/DX2                !
 ! R2    R(1,4)                  1.09           estimate D2E/DX2                !
 ! R3    R(1,5)                  1.09           estimate D2E/DX2                !
 ! R4    R(1,6)                  1.0933         estimate D2E/DX2                !
 ! R5    R(2,7)                  1.0864         estimate D2E/DX2                !
 ! R6    R(2,8)                  1.0863         estimate D2E/DX2                !
 ! R7    R(2,9)                  1.3725         estimate D2E/DX2                !
 ! R8    R(3,9)                  1.2334         estimate D2E/DX2                !
 ! R9    R(3,10)                 1.0321         estimate D2E/DX2                !
 ! A1    A(2,1,4)              111.233          estimate D2E/DX2                !
 ! A2    A(2,1,5)              111.4739         estimate D2E/DX2                !
 ! A3    A(2,1,6)              111.0061         estimate D2E/DX2                !
 ! A4    A(4,1,5)              108.0442         estimate D2E/DX2                !
 ! A5    A(4,1,6)              107.4467         estimate D2E/DX2                !
 ! A6    A(5,1,6)              107.4513         estimate D2E/DX2                !
 ! A7    A(1,2,7)              115.596          estimate D2E/DX2                !
 ! A8    A(1,2,8)              115.7501         estimate D2E/DX2                !
 ! A9    A(1,2,9)              106.6148         estimate D2E/DX2                !
 ! A10   A(7,2,8)              112.3431         estimate D2E/DX2                !
 ! A11   A(7,2,9)              100.2936         estimate D2E/DX2                !
 ! A12   A(8,2,9)              104.0627         estimate D2E/DX2                !
 ! A13   A(9,3,10)              94.9196         estimate D2E/DX2                !
 ! A14   L(2,9,3,4,-1)         177.2196         estimate D2E/DX2                !
 ! A15   L(2,9,3,4,-2)         184.7082         estimate D2E/DX2                !
 ! D1    D(4,1,2,7)             56.4461         estimate D2E/DX2                !
 ! D2    D(4,1,2,8)           -169.2031         estimate D2E/DX2                !
 ! D3    D(4,1,2,9)            -54.0236         estimate D2E/DX2                !
 ! D4    D(5,1,2,7)            177.1061         estimate D2E/DX2                !
 ! D5    D(5,1,2,8)            -48.5431         estimate D2E/DX2                !
 ! D6    D(5,1,2,9)             66.6364         estimate D2E/DX2                !
 ! D7    D(6,1,2,7)            -63.141          estimate D2E/DX2                !
 ! D8    D(6,1,2,8)             71.2099         estimate D2E/DX2                !
 ! D9    D(6,1,2,9)           -173.6106         estimate D2E/DX2                !
 ! D10   D(1,2,3,10)           180.0            estimate D2E/DX2                !
 ! D11   D(7,2,3,10)            59.0055         estimate D2E/DX2                !
 ! D12   D(8,2,3,10)           -58.1187         estimate D2E/DX2                !
 --------------------------------------------------------------------------------
 Maximum allowed force set to 1.00D+20.
 Trust Radius=1.00D-01 FncErr=1.00D-07 GrdErr=1.00D-06 EigMax=2.50D+02 EigMin=1.00D-04
 Number of steps in this run=     50 maximum allowed number of steps=    100.
 Search for a saddle point of order  1.
 GradGradGradGradGradGradGradGradGradGradGradGradGradGradGradGradGradGrad

 Leave Link  103 at Wed Oct  7 16:12:45 2020, MaxMem=  2684354560 cpu:               2.0 elap:               0.6
 (Enter /udrive/faculty/rpeverati/g16/g16/l202.exe)
                          Input orientation:                          
 ---------------------------------------------------------------------
 Center     Atomic      Atomic             Coordinates (Angstroms)
 Number     Number       Type             X           Y           Z
 ---------------------------------------------------------------------
      1          6           0       -1.394985   -0.449661    0.000703
      2          6           0       -0.435746    0.714061    0.002027
      3          7           0        1.927570   -0.378352    0.003036
      4          1           0       -1.200089   -1.120951   -0.835687
      5          1           0       -1.322096   -1.027884    0.921774
      6          1           0       -2.428712   -0.105352   -0.089334
      7          1           0       -0.417688    1.308481   -0.907200
      8          1           0       -0.441127    1.329097    0.897469
      9          1           0        0.828501    0.180593   -0.028561
     10          1           0        2.472591    0.498073    0.003910
 ---------------------------------------------------------------------
                    Distance matrix (angstroms):
                    1          2          3          4          5
     1  C    0.000000
     2  C    1.508108   0.000000
     3  N    3.323321   2.603581   0.000000
     4  H    1.090029   2.157140   3.322223   0.000000
     5  H    1.089966   2.160075   3.438939   1.764147   0.000000
     6  H    1.093273   2.156779   4.365805   1.760113   1.760114
     7  H    2.206912   1.086441   3.028890   2.553312   3.101887
     8  H    2.208623   1.086331   3.053870   3.095576   2.516358
     9  H    2.311270   1.372532   1.233439   2.541780   2.643600
    10  H    3.982004   2.916347   1.032071   4.100578   4.191739
                    6          7          8          9         10
     6  H    0.000000
     7  H    2.590761   0.000000
     8  H    2.642332   1.804939   0.000000
     9  H    3.270305   1.896609   1.946420   0.000000
    10  H    4.939189   3.136972   3.158924   1.674778   0.000000
 Stoichiometry    C2H7N(3)
 Framework group  C1[X(C2H7N)]
 Deg. of freedom    24
 Full point group                 C1      NOp   1
 Largest Abelian subgroup         C1      NOp   1
 Largest concise Abelian subgroup C1      NOp   1
                         Standard orientation:                         
 ---------------------------------------------------------------------
 Center     Atomic      Atomic             Coordinates (Angstroms)
 Number     Number       Type             X           Y           Z
 ---------------------------------------------------------------------
      1          6           0       -1.394985   -0.449660    0.000703
      2          6           0       -0.435745    0.714062    0.002027
      3          7           0        1.927571   -0.378352    0.003036
      4          1           0       -1.200089   -1.120950   -0.835687
      5          1           0       -1.322096   -1.027884    0.921774
      6          1           0       -2.428711   -0.105351   -0.089334
      7          1           0       -0.417687    1.308481   -0.907200
      8          1           0       -0.441126    1.329098    0.897469
      9          1           0        0.828502    0.180593   -0.028561
     10          1           0        2.472592    0.498073    0.003910
 ---------------------------------------------------------------------
 Rotational constants (GHZ):          25.6019284           5.1971850           4.5710827
 Leave Link  202 at Wed Oct  7 16:12:46 2020, MaxMem=  2684354560 cpu:               1.4 elap:               0.5
 (Enter /udrive/faculty/rpeverati/g16/g16/l301.exe)
 Standard basis: 6-31G(d) (5D, 7F)
 Ernie: Thresh=  0.10000D-02 Tol=  0.10000D-05 Strict=F.
 There are    59 symmetry adapted cartesian basis functions of A   symmetry.
 There are    56 symmetry adapted basis functions of A   symmetry.
    56 basis functions,   112 primitive gaussians,    59 cartesian basis functions
    14 alpha electrons       12 beta electrons
       nuclear repulsion energy        71.8572017085 Hartrees.
 IExCor= 1009 DFT=T Ex=PBE Corr=PBE ExCW=0 ScaHFX=  0.000000
 ScaDFX=  1.000000  1.000000  1.000000  1.000000 ScalE2=  1.000000  1.000000
 IRadAn=      5 IRanWt=     -1 IRanGd=            0 ICorTp=0 IEmpDi=  4
 NAtoms=   10 NActive=   10 NUniq=   10 SFac= 1.00D+00 NAtFMM=   60 NAOKFM=F Big=F
 Integral buffers will be    131072 words long.
 Raffenetti 2 integral format.
 Two-electron integral symmetry is turned on.
 Leave Link  301 at Wed Oct  7 16:12:47 2020, MaxMem=  2684354560 cpu:               2.0 elap:               0.6
 (Enter /udrive/faculty/rpeverati/g16/g16/l302.exe)
 NPDir=0 NMtPBC=     1 NCelOv=     1 NCel=       1 NClECP=     1 NCelD=      1
         NCelK=      1 NCelE2=     1 NClLst=     1 CellRange=     0.0.
 One-electron integrals computed using PRISM.
 One-electron integral symmetry used in STVInt
 NBasis=    56 RedAO= T EigKep=  6.88D-03  NBF=    56
 NBsUse=    56 1.00D-06 EigRej= -1.00D+00 NBFU=    56
 Precomputing XC quadrature grid using
 IXCGrd= 4 IRadAn=           5 IRanWt=          -1 IRanGd=           0 AccXCQ= 0.00D+00.
 Generated NRdTot=       0 NPtTot=           0 NUsed=           0 NTot=          32
 NSgBfM=    59    59    59    59    59 MxSgAt=    10 MxSgA2=    10.
 Leave Link  302 at Wed Oct  7 16:12:48 2020, MaxMem=  2684354560 cpu:               3.9 elap:               0.6
 (Enter /udrive/faculty/rpeverati/g16/g16/l303.exe)
 DipDrv:  MaxL=1.
 Leave Link  303 at Wed Oct  7 16:12:49 2020, MaxMem=  2684354560 cpu:               1.9 elap:               0.4
 (Enter /udrive/faculty/rpeverati/g16/g16/l401.exe)
 SCF N**3 symmetry information disabled.
 ExpMin= 1.61D-01 ExpMax= 4.17D+03 ExpMxC= 6.27D+02 IAcc=3 IRadAn=         5 AccDes= 0.00D+00
 Harris functional with IExCor= 1009 and IRadAn=       5 diagonalized for initial guess.
 HarFok:  IExCor= 1009 AccDes= 0.00D+00 IRadAn=         5 IDoV= 1 UseB2=F ITyADJ=14
 ICtDFT=  3500011 ScaDFX=  1.000000  1.000000  1.000000  1.000000
 FoFCou: FMM=F IPFlag=           0 FMFlag=      100000 FMFlg1=           0
         NFxFlg=           0 DoJE=T BraDBF=F KetDBF=T FulRan=T
         wScrn=  0.000000 ICntrl=       500 IOpCl=  0 I1Cent=   200000004 NGrid=           0
         NMat0=    1 NMatS0=      1 NMatT0=    0 NMatD0=    1 NMtDS0=    0 NMtDT0=    0
 Petite list used in FoFCou.
 Harris En= -134.855170744367    
 JPrj=0 DoOrth=F DoCkMO=F.
 Initial guess <Sx>= 0.0000 <Sy>= 0.0000 <Sz>= 1.0000 <S**2>= 2.0000 S= 1.0000
 Leave Link  401 at Wed Oct  7 16:12:50 2020, MaxMem=  2684354560 cpu:               7.4 elap:               1.0
 (Enter /udrive/faculty/rpeverati/g16/g16/l502.exe)
 Keep J ints in memory in canonical form, NReq=11833192.
 FoFCou: FMM=F IPFlag=           0 FMFlag=           0 FMFlg1=           0
         NFxFlg=           0 DoJE=F BraDBF=F KetDBF=F FulRan=T
         wScrn=  0.000000 ICntrl=       600 IOpCl=  0 I1Cent=           0 NGrid=           0
         NMat0=    1 NMatS0=   1596 NMatT0=    0 NMatD0=    1 NMtDS0=    0 NMtDT0=    0
 Symmetry not used in FoFCou.
 Two-electron integral symmetry not used.
 UHF open shell SCF:
 Using DIIS extrapolation, IDIIS=  1040.
 NGot=  2684354560 LenX=  2683071566 LenY=  2683067644
 Requested convergence on RMS density matrix=1.00D-08 within 120 cycles.
 Requested convergence on MAX density matrix=1.00D-06.
 Requested convergence on             energy=1.00D-06.
 No special actions if energy rises.
 Integral accuracy reduced to 1.0D-05 until final iterations.

 Cycle   1  Pass 0  IDiag  1:
 E= -134.722554600336    
 DIIS: error= 5.54D-02 at cycle   1 NSaved=   1.
 NSaved= 1 IEnMin= 1 EnMin= -134.722554600336     IErMin= 1 ErrMin= 5.54D-02
 ErrMax= 5.54D-02  0.00D+00 EMaxC= 1.00D-01 BMatC= 3.52D-01 BMatP= 3.52D-01
 IDIUse=3 WtCom= 4.46D-01 WtEn= 5.54D-01
 Coeff-Com:  0.100D+01
 Coeff-En:   0.100D+01
 Coeff:      0.100D+01
 Gap=     0.227 Goal=   None    Shift=    0.000
 Gap=     0.111 Goal=   None    Shift=    0.000
 GapD=    0.111 DampG=1.000 DampE=0.500 DampFc=0.5000 IDamp=-1.
 Damping current iteration by 5.00D-01
 RMSDP=1.40D-02 MaxDP=1.46D-01              OVMax= 2.10D-01

 Cycle   2  Pass 0  IDiag  1:
 E= -134.753818755317     Delta-E=       -0.031264154980 Rises=F Damp=T
 DIIS: error= 1.14D-02 at cycle   2 NSaved=   2.
 NSaved= 2 IEnMin= 2 EnMin= -134.753818755317     IErMin= 2 ErrMin= 1.14D-02
 ErrMax= 1.14D-02  0.00D+00 EMaxC= 1.00D-01 BMatC= 3.28D-02 BMatP= 3.52D-01
 IDIUse=3 WtCom= 8.86D-01 WtEn= 1.14D-01
 Coeff-Com:  0.200D+00 0.800D+00
 Coeff-En:   0.327D+00 0.673D+00
 Coeff:      0.214D+00 0.786D+00
 Gap=     0.254 Goal=   None    Shift=    0.000
 Gap=     0.222 Goal=   None    Shift=    0.000
 RMSDP=3.17D-03 MaxDP=3.73D-02 DE=-3.13D-02 OVMax= 1.80D-01

 Cycle   3  Pass 0  IDiag  1:
 E= -134.819291536426     Delta-E=       -0.065472781110 Rises=F Damp=F
 DIIS: error= 1.46D-02 at cycle   3 NSaved=   3.
 NSaved= 3 IEnMin= 3 EnMin= -134.819291536426     IErMin= 2 ErrMin= 1.14D-02
 ErrMax= 1.46D-02  0.00D+00 EMaxC= 1.00D-01 BMatC= 1.85D-02 BMatP= 3.28D-02
 IDIUse=3 WtCom= 8.54D-01 WtEn= 1.46D-01
 Coeff-Com:  0.101D+00 0.468D+00 0.431D+00
 Coeff-En:   0.000D+00 0.000D+00 0.100D+01
 Coeff:      0.864D-01 0.400D+00 0.514D+00
 Gap=     0.249 Goal=   None    Shift=    0.000
 Gap=     0.126 Goal=   None    Shift=    0.000
 RMSDP=2.13D-03 MaxDP=3.14D-02 DE=-6.55D-02 OVMax= 8.61D-02

 Cycle   4  Pass 0  IDiag  1:
 E= -134.822635488300     Delta-E=       -0.003343951874 Rises=F Damp=F
 DIIS: error= 7.90D-03 at cycle   4 NSaved=   4.
 NSaved= 4 IEnMin= 4 EnMin= -134.822635488300     IErMin= 4 ErrMin= 7.90D-03
 ErrMax= 7.90D-03  0.00D+00 EMaxC= 1.00D-01 BMatC= 6.81D-03 BMatP= 1.85D-02
 IDIUse=3 WtCom= 9.21D-01 WtEn= 7.90D-02
 Coeff-Com:  0.942D-02 0.424D-01 0.370D+00 0.578D+00
 Coeff-En:   0.000D+00 0.000D+00 0.311D+00 0.689D+00
 Coeff:      0.867D-02 0.390D-01 0.366D+00 0.587D+00
 Gap=     0.246 Goal=   None    Shift=    0.000
 Gap=     0.130 Goal=   None    Shift=    0.000
 RMSDP=8.15D-04 MaxDP=1.27D-02 DE=-3.34D-03 OVMax= 3.05D-02

 Cycle   5  Pass 0  IDiag  1:
 E= -134.824485474896     Delta-E=       -0.001849986596 Rises=F Damp=F
 DIIS: error= 7.10D-04 at cycle   5 NSaved=   5.
 NSaved= 5 IEnMin= 5 EnMin= -134.824485474896     IErMin= 5 ErrMin= 7.10D-04
 ErrMax= 7.10D-04  0.00D+00 EMaxC= 1.00D-01 BMatC= 1.12D-04 BMatP= 6.81D-03
 IDIUse=3 WtCom= 9.93D-01 WtEn= 7.10D-03
 Coeff-Com: -0.517D-02-0.232D-01 0.932D-01 0.214D+00 0.722D+00
 Coeff-En:   0.000D+00 0.000D+00 0.000D+00 0.000D+00 0.100D+01
 Coeff:     -0.513D-02-0.231D-01 0.925D-01 0.212D+00 0.724D+00
 Gap=     0.245 Goal=   None    Shift=    0.000
 Gap=     0.130 Goal=   None    Shift=    0.000
 RMSDP=1.17D-04 MaxDP=1.66D-03 DE=-1.85D-03 OVMax= 2.28D-03

 Cycle   6  Pass 0  IDiag  1:
 E= -134.824511205996     Delta-E=       -0.000025731100 Rises=F Damp=F
 DIIS: error= 3.66D-04 at cycle   6 NSaved=   6.
 NSaved= 6 IEnMin= 6 EnMin= -134.824511205996     IErMin= 6 ErrMin= 3.66D-04
 ErrMax= 3.66D-04  0.00D+00 EMaxC= 1.00D-01 BMatC= 2.31D-05 BMatP= 1.12D-04
 IDIUse=3 WtCom= 9.96D-01 WtEn= 3.66D-03
 Coeff-Com: -0.354D-02-0.160D-01 0.904D-02 0.417D-01 0.359D+00 0.610D+00
 Coeff-En:   0.000D+00 0.000D+00 0.000D+00 0.000D+00 0.389D-01 0.961D+00
 Coeff:     -0.353D-02-0.160D-01 0.901D-02 0.416D-01 0.358D+00 0.611D+00
 Gap=     0.246 Goal=   None    Shift=    0.000
 Gap=     0.130 Goal=   None    Shift=    0.000
 RMSDP=4.80D-05 MaxDP=7.93D-04 DE=-2.57D-05 OVMax= 8.62D-04

 Cycle   7  Pass 0  IDiag  1:
 E= -134.824517014591     Delta-E=       -0.000005808595 Rises=F Damp=F
 DIIS: error= 8.11D-05 at cycle   7 NSaved=   7.
 NSaved= 7 IEnMin= 7 EnMin= -134.824517014591     IErMin= 7 ErrMin= 8.11D-05
 ErrMax= 8.11D-05  0.00D+00 EMaxC= 1.00D-01 BMatC= 1.54D-06 BMatP= 2.31D-05
 IDIUse=1 WtCom= 1.00D+00 WtEn= 0.00D+00
 Coeff-Com: -0.146D-03-0.878D-03-0.960D-02-0.204D-01-0.132D-02 0.209D+00
 Coeff-Com:  0.823D+00
 Coeff:     -0.146D-03-0.878D-03-0.960D-02-0.204D-01-0.132D-02 0.209D+00
 Coeff:      0.823D+00
 Gap=     0.246 Goal=   None    Shift=    0.000
 Gap=     0.130 Goal=   None    Shift=    0.000
 RMSDP=1.57D-05 MaxDP=1.77D-04 DE=-5.81D-06 OVMax= 3.58D-04

 Cycle   8  Pass 0  IDiag  1:
 E= -134.824517471095     Delta-E=       -0.000000456504 Rises=F Damp=F
 DIIS: error= 1.89D-05 at cycle   8 NSaved=   8.
 NSaved= 8 IEnMin= 8 EnMin= -134.824517471095     IErMin= 8 ErrMin= 1.89D-05
 ErrMax= 1.89D-05  0.00D+00 EMaxC= 1.00D-01 BMatC= 5.99D-08 BMatP= 1.54D-06
 IDIUse=1 WtCom= 1.00D+00 WtEn= 0.00D+00
 Coeff-Com:  0.902D-04 0.420D-03-0.350D-02-0.789D-02-0.168D-01 0.354D-01
 Coeff-Com:  0.255D+00 0.737D+00
 Coeff:      0.902D-04 0.420D-03-0.350D-02-0.789D-02-0.168D-01 0.354D-01
 Coeff:      0.255D+00 0.737D+00
 Gap=     0.246 Goal=   None    Shift=    0.000
 Gap=     0.130 Goal=   None    Shift=    0.000
 RMSDP=3.94D-06 MaxDP=4.69D-05 DE=-4.57D-07 OVMax= 5.89D-05

 Initial convergence to 1.0D-05 achieved.  Increase integral accuracy.
 Cycle   9  Pass 1  IDiag  1:
 E= -134.824528015039     Delta-E=       -0.000010543944 Rises=F Damp=F
 DIIS: error= 4.57D-06 at cycle   1 NSaved=   1.
 NSaved= 1 IEnMin= 1 EnMin= -134.824528015039     IErMin= 1 ErrMin= 4.57D-06
 ErrMax= 4.57D-06  0.00D+00 EMaxC= 1.00D-01 BMatC= 4.98D-09 BMatP= 4.98D-09
 IDIUse=1 WtCom= 1.00D+00 WtEn= 0.00D+00
 Coeff-Com:  0.100D+01
 Coeff:      0.100D+01
 Gap=     0.246 Goal=   None    Shift=    0.000
 Gap=     0.130 Goal=   None    Shift=    0.000
 RMSDP=3.94D-06 MaxDP=4.69D-05 DE=-1.05D-05 OVMax= 5.41D-05

 Cycle  10  Pass 1  IDiag  1:
 E= -134.824528015287     Delta-E=       -0.000000000249 Rises=F Damp=F
 DIIS: error= 5.39D-06 at cycle   2 NSaved=   2.
 NSaved= 2 IEnMin= 2 EnMin= -134.824528015287     IErMin= 1 ErrMin= 4.57D-06
 ErrMax= 5.39D-06  0.00D+00 EMaxC= 1.00D-01 BMatC= 5.51D-09 BMatP= 4.98D-09
 IDIUse=1 WtCom= 1.00D+00 WtEn= 0.00D+00
 Coeff-Com:  0.515D+00 0.485D+00
 Coeff:      0.515D+00 0.485D+00
 Gap=     0.246 Goal=   None    Shift=    0.000
 Gap=     0.130 Goal=   None    Shift=    0.000
 RMSDP=1.00D-06 MaxDP=1.23D-05 DE=-2.49D-10 OVMax= 4.14D-05

 Cycle  11  Pass 1  IDiag  1:
 E= -134.824528016481     Delta-E=       -0.000000001193 Rises=F Damp=F
 DIIS: error= 3.13D-06 at cycle   3 NSaved=   3.
 NSaved= 3 IEnMin= 3 EnMin= -134.824528016481     IErMin= 3 ErrMin= 3.13D-06
 ErrMax= 3.13D-06  0.00D+00 EMaxC= 1.00D-01 BMatC= 1.40D-09 BMatP= 4.98D-09
 IDIUse=1 WtCom= 1.00D+00 WtEn= 0.00D+00
 Coeff-Com:  0.204D+00 0.328D+00 0.467D+00
 Coeff:      0.204D+00 0.328D+00 0.467D+00
 Gap=     0.246 Goal=   None    Shift=    0.000
 Gap=     0.130 Goal=   None    Shift=    0.000
 RMSDP=4.29D-07 MaxDP=4.96D-06 DE=-1.19D-09 OVMax= 1.53D-05

 Cycle  12  Pass 1  IDiag  1:
 E= -134.824528016863     Delta-E=       -0.000000000382 Rises=F Damp=F
 DIIS: error= 5.53D-07 at cycle   4 NSaved=   4.
 NSaved= 4 IEnMin= 4 EnMin= -134.824528016863     IErMin= 4 ErrMin= 5.53D-07
 ErrMax= 5.53D-07  0.00D+00 EMaxC= 1.00D-01 BMatC= 6.60D-11 BMatP= 1.40D-09
 IDIUse=1 WtCom= 1.00D+00 WtEn= 0.00D+00
 Coeff-Com: -0.436D-01 0.596D-02 0.179D+00 0.859D+00
 Coeff:     -0.436D-01 0.596D-02 0.179D+00 0.859D+00
 Gap=     0.246 Goal=   None    Shift=    0.000
 Gap=     0.130 Goal=   None    Shift=    0.000
 RMSDP=1.27D-07 MaxDP=1.43D-06 DE=-3.82D-10 OVMax= 2.28D-06

 Cycle  13  Pass 1  IDiag  1:
 E= -134.824528016885     Delta-E=       -0.000000000022 Rises=F Damp=F
 DIIS: error= 1.34D-07 at cycle   5 NSaved=   5.
 NSaved= 5 IEnMin= 5 EnMin= -134.824528016885     IErMin= 5 ErrMin= 1.34D-07
 ErrMax= 1.34D-07  0.00D+00 EMaxC= 1.00D-01 BMatC= 3.37D-12 BMatP= 6.60D-11
 IDIUse=1 WtCom= 1.00D+00 WtEn= 0.00D+00
 Coeff-Com: -0.239D-01-0.193D-01 0.196D-01 0.242D+00 0.781D+00
 Coeff:     -0.239D-01-0.193D-01 0.196D-01 0.242D+00 0.781D+00
 Gap=     0.246 Goal=   None    Shift=    0.000
 Gap=     0.130 Goal=   None    Shift=    0.000
 RMSDP=3.03D-08 MaxDP=3.53D-07 DE=-2.23D-11 OVMax= 5.43D-07

 Cycle  14  Pass 1  IDiag  1:
 E= -134.824528016886     Delta-E=       -0.000000000001 Rises=F Damp=F
 DIIS: error= 8.72D-08 at cycle   6 NSaved=   6.
 NSaved= 6 IEnMin= 6 EnMin= -134.824528016886     IErMin= 6 ErrMin= 8.72D-08
 ErrMax= 8.72D-08  0.00D+00 EMaxC= 1.00D-01 BMatC= 1.34D-12 BMatP= 3.37D-12
 IDIUse=1 WtCom= 1.00D+00 WtEn= 0.00D+00
 Coeff-Com: -0.570D-02-0.121D-01-0.185D-01-0.124D-01 0.422D+00 0.627D+00
 Coeff:     -0.570D-02-0.121D-01-0.185D-01-0.124D-01 0.422D+00 0.627D+00
 Gap=     0.246 Goal=   None    Shift=    0.000
 Gap=     0.130 Goal=   None    Shift=    0.000
 RMSDP=1.13D-08 MaxDP=1.59D-07 DE=-9.66D-13 OVMax= 2.43D-07

 Cycle  15  Pass 1  IDiag  1:
 E= -134.824528016886     Delta-E=       -0.000000000000 Rises=F Damp=F
 DIIS: error= 1.86D-08 at cycle   7 NSaved=   7.
 NSaved= 7 IEnMin= 7 EnMin= -134.824528016886     IErMin= 7 ErrMin= 1.86D-08
 ErrMax= 1.86D-08  0.00D+00 EMaxC= 1.00D-01 BMatC= 6.69D-14 BMatP= 1.34D-12
 IDIUse=1 WtCom= 1.00D+00 WtEn= 0.00D+00
 Coeff-Com: -0.189D-03-0.348D-02-0.871D-02-0.284D-01 0.103D+00 0.251D+00
 Coeff-Com:  0.687D+00
 Coeff:     -0.189D-03-0.348D-02-0.871D-02-0.284D-01 0.103D+00 0.251D+00
 Coeff:      0.687D+00
 Gap=     0.246 Goal=   None    Shift=    0.000
 Gap=     0.130 Goal=   None    Shift=    0.000
 RMSDP=2.76D-09 MaxDP=4.09D-08 DE=-2.56D-13 OVMax= 4.45D-08

 SCF Done:  E(UPBE-PBE) =  -134.824528017     A.U. after   15 cycles
            NFock= 15  Conv=0.28D-08     -V/T= 2.0049
 <Sx>= 0.0000 <Sy>= 0.0000 <Sz>= 1.0000 <S**2>= 2.0067 S= 1.0022
 <L.S>= 0.000000000000E+00
 KE= 1.341682779071D+02 PE=-4.571531085162D+02 EE= 1.163031008836D+02
 Annihilation of the first spin contaminant:
 S**2 before annihilation     2.0067,   after     2.0000
 Leave Link  502 at Wed Oct  7 16:12:55 2020, MaxMem=  2684354560 cpu:              54.9 elap:               5.1
 (Enter /udrive/faculty/rpeverati/g16/g16/l508.exe)
 QCSCF skips out because SCF is already converged.
 Leave Link  508 at Wed Oct  7 16:12:56 2020, MaxMem=  2684354560 cpu:               0.3 elap:               0.4
 (Enter /udrive/faculty/rpeverati/g16/g16/l601.exe)
 Copying SCF densities to generalized density rwf, IOpCl= 1 IROHF=0.

 **********************************************************************

            Population analysis using the SCF density.

 **********************************************************************

 Orbital symmetries:
 Alpha Orbitals:
       Occupied  (A) (A) (A) (A) (A) (A) (A) (A) (A) (A) (A) (A)
                 (A) (A)
       Virtual   (A) (A) (A) (A) (A) (A) (A) (A) (A) (A) (A) (A)
                 (A) (A) (A) (A) (A) (A) (A) (A) (A) (A) (A) (A)
                 (A) (A) (A) (A) (A) (A) (A) (A) (A) (A) (A) (A)
                 (A) (A) (A) (A) (A) (A)
 Beta  Orbitals:
       Occupied  (A) (A) (A) (A) (A) (A) (A) (A) (A) (A) (A) (A)
       Virtual   (A) (A) (A) (A) (A) (A) (A) (A) (A) (A) (A) (A)
                 (A) (A) (A) (A) (A) (A) (A) (A) (A) (A) (A) (A)
                 (A) (A) (A) (A) (A) (A) (A) (A) (A) (A) (A) (A)
                 (A) (A) (A) (A) (A) (A) (A) (A)
 The electronic state is 3-A.
 Alpha  occ. eigenvalues --  -14.02249  -9.89568  -9.88103  -0.75720  -0.68476
 Alpha  occ. eigenvalues --   -0.55508  -0.40884  -0.39900  -0.34999  -0.33657
 Alpha  occ. eigenvalues --   -0.31034  -0.29553  -0.25133  -0.17209
 Alpha virt. eigenvalues --    0.07364   0.09749   0.12264   0.12664   0.14479
 Alpha virt. eigenvalues --    0.16843   0.20463   0.25932   0.45305   0.48686
 Alpha virt. eigenvalues --    0.50941   0.55224   0.56799   0.62082   0.66100
 Alpha virt. eigenvalues --    0.69952   0.73965   0.80098   0.82863   0.83670
 Alpha virt. eigenvalues --    0.86237   0.87554   0.90180   0.91409   1.06080
 Alpha virt. eigenvalues --    1.30150   1.40420   1.45701   1.48599   1.59754
 Alpha virt. eigenvalues --    1.60829   1.61329   1.77101   1.84989   1.88103
 Alpha virt. eigenvalues --    2.00723   2.15970   2.17947   2.22627   2.28978
 Alpha virt. eigenvalues --    2.30357   2.52311
  Beta  occ. eigenvalues --  -13.99542  -9.88696  -9.88128  -0.69963  -0.66764
  Beta  occ. eigenvalues --   -0.54282  -0.39512  -0.38700  -0.33738  -0.32967
  Beta  occ. eigenvalues --   -0.30727  -0.25719
  Beta virt. eigenvalues --   -0.12713  -0.10760   0.08216   0.10605   0.12837
  Beta virt. eigenvalues --    0.13073   0.14796   0.17349   0.21170   0.28389
  Beta virt. eigenvalues --    0.45811   0.49695   0.51712   0.58205   0.59585
  Beta virt. eigenvalues --    0.63308   0.70113   0.75229   0.76017   0.81268
  Beta virt. eigenvalues --    0.83246   0.84923   0.87780   0.88298   0.91576
  Beta virt. eigenvalues --    0.92007   1.08385   1.33212   1.42070   1.48409
  Beta virt. eigenvalues --    1.51906   1.65372   1.67486   1.71318   1.81876
  Beta virt. eigenvalues --    1.87123   1.88899   2.03987   2.16721   2.23480
  Beta virt. eigenvalues --    2.23703   2.30351   2.33713   2.53730
          Condensed to atoms (all electrons):
               1          2          3          4          5          6
     1  C    5.058563   0.364691   0.002759   0.381109   0.381648   0.375771
     2  C    0.364691   5.380795  -0.114010  -0.035347  -0.034154  -0.035274
     3  N    0.002759  -0.114010   7.253001   0.001689   0.000995  -0.000074
     4  H    0.381109  -0.035347   0.001689   0.537571  -0.028474  -0.031801
     5  H    0.381648  -0.034154   0.000995  -0.028474   0.537965  -0.031819
     6  H    0.375771  -0.035274  -0.000074  -0.031801  -0.031819   0.551465
     7  H   -0.035065   0.361750   0.001080  -0.003048   0.004589  -0.003262
     8  H   -0.034428   0.365674   0.001423   0.004578  -0.004516  -0.001748
     9  H   -0.020121   0.195585   0.135366  -0.004090  -0.002712   0.002412
    10  H    0.000148   0.014856   0.210339  -0.000037  -0.000021  -0.000008
               7          8          9         10
     1  C   -0.035065  -0.034428  -0.020121   0.000148
     2  C    0.361750   0.365674   0.195585   0.014856
     3  N    0.001080   0.001423   0.135366   0.210339
     4  H   -0.003048   0.004578  -0.004090  -0.000037
     5  H    0.004589  -0.004516  -0.002712  -0.000021
     6  H   -0.003262  -0.001748   0.002412  -0.000008
     7  H    0.547311  -0.032613  -0.015386  -0.000467
     8  H   -0.032613   0.541401  -0.014649  -0.000430
     9  H   -0.015386  -0.014649   0.495197  -0.039942
    10  H   -0.000467  -0.000430  -0.039942   0.530799
          Atomic-Atomic Spin Densities.
               1          2          3          4          5          6
     1  C   -0.014613  -0.039058   0.005275   0.004731   0.003464   0.008627
     2  C   -0.039058   0.766135  -0.115356  -0.007382  -0.004916  -0.010955
     3  N    0.005275  -0.115356   1.690795   0.001561   0.001026  -0.000302
     4  H    0.004731  -0.007382   0.001561   0.012329   0.001570  -0.005936
     5  H    0.003464  -0.004916   0.001026   0.001570   0.007190  -0.004580
     6  H    0.008627  -0.010955  -0.000302  -0.005936  -0.004580   0.050292
     7  H    0.003686  -0.017914   0.003772   0.000933   0.000271  -0.001909
     8  H    0.003404  -0.017084   0.003078   0.000355   0.000723  -0.001670
     9  H   -0.001259   0.036711  -0.040468  -0.000242  -0.000215   0.000088
    10  H   -0.000204   0.005857  -0.015816  -0.000033  -0.000020   0.000010
               7          8          9         10
     1  C    0.003686   0.003404  -0.001259  -0.000204
     2  C   -0.017914  -0.017084   0.036711   0.005857
     3  N    0.003772   0.003078  -0.040468  -0.015816
     4  H    0.000933   0.000355  -0.000242  -0.000033
     5  H    0.000271   0.000723  -0.000215  -0.000020
     6  H   -0.001909  -0.001670   0.000088   0.000010
     7  H   -0.008347   0.003553   0.000999  -0.000354
     8  H    0.003553  -0.009388   0.000950  -0.000310
     9  H    0.000999   0.000950  -0.078993   0.007744
    10  H   -0.000354  -0.000310   0.007744  -0.040206
 Mulliken charges and spin densities:
               1          2
     1  C   -0.475075  -0.025947
     2  C   -0.464566   0.596037
     3  N   -0.492568   1.533565
     4  H    0.177852   0.007886
     5  H    0.176497   0.004513
     6  H    0.174339   0.033665
     7  H    0.175110  -0.015310
     8  H    0.175308  -0.016391
     9  H    0.268340  -0.074687
    10  H    0.284762  -0.043332
 Sum of Mulliken charges =   0.00000   2.00000
 Mulliken charges and spin densities with hydrogens summed into heavy atoms:
               1          2
     1  C    0.053613   0.020117
     2  C   -0.114147   0.564337
     3  N    0.060534   1.415546
 Electronic spatial extent (au):  <R**2>=            295.6281
 Charge=             -0.0000 electrons
 Dipole moment (field-independent basis, Debye):
    X=             -0.7455    Y=              1.6075    Z=             -0.0322  Tot=              1.7722
 Quadrupole moment (field-independent basis, Debye-Ang):
   XX=            -20.9917   YY=            -21.7117   ZZ=            -20.5119
   XY=              3.7089   XZ=             -0.0512   YZ=              0.0221
 Traceless Quadrupole moment (field-independent basis, Debye-Ang):
   XX=              0.0801   YY=             -0.6399   ZZ=              0.5598
   XY=              3.7089   XZ=             -0.0512   YZ=              0.0221
 Octapole moment (field-independent basis, Debye-Ang**2):
  XXX=              2.1291  YYY=              1.2773  ZZZ=              0.1252  XYY=             -0.9214
  XXY=              7.7913  XXZ=             -0.0918  XZZ=              0.3176  YZZ=              0.3142
  YYZ=             -0.0190  XYZ=              0.0394
 Hexadecapole moment (field-independent basis, Debye-Ang**3):
 XXXX=           -269.4566 YYYY=            -76.9402 ZZZZ=            -32.8802 XXXY=             17.6155
 XXXZ=              0.3933 YYYX=              3.8316 YYYZ=              0.2635 ZZZX=             -0.2970
 ZZZY=             -0.0986 XXYY=            -63.6856 XXZZ=            -53.2943 YYZZ=            -16.0988
 XXYZ=             -0.1232 YYXZ=             -0.1055 ZZXY=              0.8819
 N-N= 7.185720170852D+01 E-N=-4.571531083420D+02  KE= 1.341682779071D+02
                          Isotropic Fermi Contact Couplings
        Atom                 a.u.       MegaHertz       Gauss      10(-4) cm-1
     1  C(13)             -0.01198      -6.73565      -2.40345      -2.24677
     2  C(13)              0.16573      93.15613      33.24042      31.07354
     3  N(14)              0.17030      27.51211       9.81700       9.17705
     4  H(1)               0.00387       8.64634       3.08523       2.88411
     5  H(1)               0.00226       5.05170       1.80257       1.68506
     6  H(1)               0.01806      40.36880      14.40459      13.46558
     7  H(1)              -0.00409      -9.13903      -3.26103      -3.04845
     8  H(1)              -0.00423      -9.45711      -3.37453      -3.15455
     9  H(1)              -0.02722     -60.84553     -21.71120     -20.29588
    10  H(1)              -0.01941     -43.37176     -15.47612     -14.46726
 --------------------------------------------------------
       Center         ----  Spin Dipole Couplings  ----
                      3XX-RR        3YY-RR        3ZZ-RR
 --------------------------------------------------------
     1   Atom        0.031384     -0.010467     -0.020917
     2   Atom        0.483390     -0.153921     -0.329470
     3   Atom       -0.353043     -1.144525      1.497568
     4   Atom        0.006367      0.000890     -0.007257
     5   Atom        0.006776     -0.000302     -0.006474
     6   Atom        0.012921     -0.003563     -0.009358
     7   Atom       -0.006008     -0.010783      0.016791
     8   Atom       -0.006214     -0.008847      0.015061
     9   Atom        0.221574     -0.090841     -0.130733
    10   Atom       -0.017122      0.092501     -0.075379
 --------------------------------------------------------
                        XY            XZ            YZ
 --------------------------------------------------------
     1   Atom        0.008941      0.000632      0.000194
     2   Atom       -0.387309      0.015219     -0.007203
     3   Atom       -0.773381     -0.038292      0.012825
     4   Atom        0.008947      0.006631      0.006923
     5   Atom        0.008330     -0.006870     -0.006694
     6   Atom        0.002321      0.001189     -0.000220
     7   Atom       -0.019340     -0.000796     -0.040325
     8   Atom       -0.020318      0.000202      0.040623
     9   Atom       -0.175908      0.000923     -0.000619
    10   Atom        0.136285     -0.000769      0.000723
 --------------------------------------------------------


 ---------------------------------------------------------------------------------
              Anisotropic Spin Dipole Couplings in Principal Axis System
 ---------------------------------------------------------------------------------

       Atom             a.u.   MegaHertz   Gauss  10(-4) cm-1        Axes

              Baa    -0.0209    -2.808    -1.002    -0.937 -0.0104 -0.0096  0.9999
     1 C(13)  Bbb    -0.0123    -1.650    -0.589    -0.550 -0.2006  0.9796  0.0074
              Bcc     0.0332     4.458     1.591     1.487  0.9796  0.2005  0.0122
 
              Baa    -0.3368   -45.197   -16.127   -15.076  0.4270  0.9043  0.0021
     2 C(13)  Bbb    -0.3298   -44.250   -15.789   -14.760 -0.0162  0.0054  0.9999
              Bcc     0.6666    89.447    31.917    29.836  0.9041 -0.4269  0.0169
 
              Baa    -1.6176   -62.386   -22.261   -20.810  0.5218  0.8531  0.0029
     3 N(14)  Bbb     0.1188     4.584     1.636     1.529  0.8527 -0.5217  0.0285
              Bcc     1.4987    57.802    20.625    19.281 -0.0259  0.0124  0.9996
 
              Baa    -0.0114    -6.074    -2.167    -2.026 -0.1271 -0.4154  0.9007
     4 H(1)   Bbb    -0.0053    -2.849    -1.017    -0.950 -0.6700  0.7056  0.2309
              Bcc     0.0167     8.924     3.184     2.977  0.7314  0.5741  0.3680
 
              Baa    -0.0109    -5.830    -2.080    -1.945  0.1279  0.4550  0.8813
     5 H(1)   Bbb    -0.0053    -2.827    -1.009    -0.943 -0.6468  0.7119 -0.2736
              Bcc     0.0162     8.657     3.089     2.888  0.7518  0.5350 -0.3854
 
              Baa    -0.0094    -5.038    -1.798    -1.681 -0.0593  0.0607  0.9964
     6 H(1)   Bbb    -0.0039    -2.058    -0.734    -0.686 -0.1320  0.9889 -0.0681
              Bcc     0.0133     7.096     2.532     2.367  0.9895  0.1355  0.0506
 
              Baa    -0.0463   -24.716    -8.819    -8.244  0.3824  0.7764  0.5009
     7 H(1)   Bbb    -0.0015    -0.805    -0.287    -0.269  0.9012 -0.1937 -0.3877
              Bcc     0.0478    25.521     9.106     8.513  0.2040 -0.5997  0.7738
 
              Baa    -0.0462   -24.664    -8.801    -8.227  0.3917  0.7663 -0.5092
     8 H(1)   Bbb    -0.0020    -1.084    -0.387    -0.362  0.8916 -0.1794  0.4158
              Bcc     0.0483    25.748     9.188     8.589 -0.2273  0.6169  0.7535
 
              Baa    -0.1699   -90.645   -32.344   -30.236  0.4099  0.9121  0.0048
     9 H(1)   Bbb    -0.1307   -69.754   -24.890   -23.267 -0.0043 -0.0033  1.0000
              Bcc     0.3006   160.398    57.234    53.503  0.9121 -0.4099  0.0025
 
              Baa    -0.1092   -58.283   -20.797   -19.441  0.8282 -0.5596  0.0307
    10 H(1)   Bbb    -0.0753   -40.202   -14.345   -13.410 -0.0258  0.0167  0.9995
              Bcc     0.1846    98.485    35.142    32.851  0.5598  0.8286  0.0006
 

 ---------------------------------------------------------------------------------

 No NMR shielding tensors so no spin-rotation constants.
 Leave Link  601 at Wed Oct  7 16:12:57 2020, MaxMem=  2684354560 cpu:              11.1 elap:               1.3
 (Enter /udrive/faculty/rpeverati/g16/g16/l701.exe)
 ... and contract with generalized density number  0.
 Compute integral first derivatives.
 Leave Link  701 at Wed Oct  7 16:12:59 2020, MaxMem=  2684354560 cpu:               4.1 elap:               0.8
 (Enter /udrive/faculty/rpeverati/g16/g16/l702.exe)
 L702 exits ... SP integral derivatives will be done elsewhere.
 Leave Link  702 at Wed Oct  7 16:13:00 2020, MaxMem=  2684354560 cpu:               2.6 elap:               0.7
 (Enter /udrive/faculty/rpeverati/g16/g16/l703.exe)
 Integral derivatives from FoFJK, PRISM(SPDF).
 Compute integral first derivatives, UseDBF=F ICtDFT=           0.
 Calling FoFJK, ICntrl=      2527 FMM=F ISym2X=0 I1Cent= 0 IOpClX= 0 NMat=1 NMatS=1 NMatT=0.
 FoFJK:  IHMeth= 1 ICntrl=    2527 DoSepK=F KAlg= 0 I1Cent=           0 FoldK=F
 IRaf=         0 NMat=       1 IRICut=       1 DoRegI=T DoRafI=F ISym2E= 0 IDoP0=0 IntGTp=1.
 FoFCou: FMM=F IPFlag=           0 FMFlag=      100000 FMFlg1=         800
         NFxFlg=           0 DoJE=F BraDBF=F KetDBF=F FulRan=T
         wScrn=  0.000000 ICntrl=      2527 IOpCl=  0 I1Cent=           0 NGrid=           0
         NMat0=    1 NMatS0=      1 NMatT0=    0 NMatD0=    1 NMtDS0=    0 NMtDT0=    0
 Symmetry not used in FoFCou.
 Leave Link  703 at Wed Oct  7 16:13:01 2020, MaxMem=  2684354560 cpu:              13.1 elap:               1.6
 (Enter /udrive/faculty/rpeverati/g16/g16/l716.exe)
 Dipole        =-2.93297721D-01 6.32436944D-01-1.26869307D-02
 ***** Axes restored to original set *****
 -------------------------------------------------------------------
 Center     Atomic                   Forces (Hartrees/Bohr)
 Number     Number              X              Y              Z
 -------------------------------------------------------------------
      1        6           0.007682629    0.006037400    0.000356560
      2        6           0.001994611   -0.006768278   -0.002161149
      3        7          -0.001559363   -0.008645399   -0.001050380
      4        1           0.001053686   -0.005618290   -0.006843442
      5        1           0.000663257   -0.004770817    0.007132570
      6        1          -0.009107085    0.002943241   -0.000734415
      7        1          -0.001697022    0.006300343   -0.007997549
      8        1           0.000164713    0.005671020    0.007632103
      9        1          -0.011967811   -0.005615683    0.003282552
     10        1           0.012772385    0.010466463    0.000383150
 -------------------------------------------------------------------
 Cartesian Forces:  Max     0.012772385 RMS     0.006135684
 Leave Link  716 at Wed Oct  7 16:13:02 2020, MaxMem=  2684354560 cpu:               2.4 elap:               0.7
 (Enter /udrive/faculty/rpeverati/g16/g16/l103.exe)

 GradGradGradGradGradGradGradGradGradGradGradGradGradGradGradGradGradGrad
 Berny optimization.
 Optmz: redundant internal coordinate code flag= 1
 FormGI is forming the generalized inverse of G from B-inverse, IUseBI=4.
 Internal  Forces:  Max     0.015633054 RMS     0.005062869
 Search for a saddle point.
 Step number   1 out of a maximum of   50
 All quantities printed in internal units (Hartrees-Bohrs-Radians)
 Swapping is turned off.
 Second derivative matrix not updated -- first step.
 The second derivative matrix:
                          R1        R2        R3        R4        R5
           R1           0.31541
           R2           0.00000   0.34809
           R3           0.00000   0.00000   0.34817
           R4           0.00000   0.00000   0.00000   0.34437
           R5           0.00000   0.00000   0.00000   0.00000   0.35227
           R6           0.00000   0.00000   0.00000   0.00000   0.00000
           R7           0.00000   0.00000   0.00000   0.00000   0.00000
           R8           0.00000   0.00000   0.00000   0.00000   0.00000
           R9           0.00000   0.00000   0.00000   0.00000   0.00000
           A1           0.00000   0.00000   0.00000   0.00000   0.00000
           A2           0.00000   0.00000   0.00000   0.00000   0.00000
           A3           0.00000   0.00000   0.00000   0.00000   0.00000
           A4           0.00000   0.00000   0.00000   0.00000   0.00000
           A5           0.00000   0.00000   0.00000   0.00000   0.00000
           A6           0.00000   0.00000   0.00000   0.00000   0.00000
           A7           0.00000   0.00000   0.00000   0.00000   0.00000
           A8           0.00000   0.00000   0.00000   0.00000   0.00000
           A9           0.00000   0.00000   0.00000   0.00000   0.00000
           A10          0.00000   0.00000   0.00000   0.00000   0.00000
           A11          0.00000   0.00000   0.00000   0.00000   0.00000
           A12          0.00000   0.00000   0.00000   0.00000   0.00000
           A13          0.00000   0.00000   0.00000   0.00000   0.00000
           A14          0.00000   0.00000   0.00000   0.00000   0.00000
           A15          0.00000   0.00000   0.00000   0.00000   0.00000
           D1           0.00000   0.00000   0.00000   0.00000   0.00000
           D2           0.00000   0.00000   0.00000   0.00000   0.00000
           D3           0.00000   0.00000   0.00000   0.00000   0.00000
           D4           0.00000   0.00000   0.00000   0.00000   0.00000
           D5           0.00000   0.00000   0.00000   0.00000   0.00000
           D6           0.00000   0.00000   0.00000   0.00000   0.00000
           D7           0.00000   0.00000   0.00000   0.00000   0.00000
           D8           0.00000   0.00000   0.00000   0.00000   0.00000
           D9           0.00000   0.00000   0.00000   0.00000   0.00000
           D10          0.00000   0.00000   0.00000   0.00000   0.00000
           D11          0.00000   0.00000   0.00000   0.00000   0.00000
           D12          0.00000   0.00000   0.00000   0.00000   0.00000
                          R6        R7        R8        R9        A1
           R6           0.35240
           R7           0.00000   0.15393
           R8           0.00000   0.00000   0.22377
           R9           0.00000   0.00000   0.00000   0.42467
           A1           0.00000   0.00000   0.00000   0.00000   0.16000
           A2           0.00000   0.00000   0.00000   0.00000   0.00000
           A3           0.00000   0.00000   0.00000   0.00000   0.00000
           A4           0.00000   0.00000   0.00000   0.00000   0.00000
           A5           0.00000   0.00000   0.00000   0.00000   0.00000
           A6           0.00000   0.00000   0.00000   0.00000   0.00000
           A7           0.00000   0.00000   0.00000   0.00000   0.00000
           A8           0.00000   0.00000   0.00000   0.00000   0.00000
           A9           0.00000   0.00000   0.00000   0.00000   0.00000
           A10          0.00000   0.00000   0.00000   0.00000   0.00000
           A11          0.00000   0.00000   0.00000   0.00000   0.00000
           A12          0.00000   0.00000   0.00000   0.00000   0.00000
           A13          0.00000   0.00000   0.00000   0.00000   0.00000
           A14          0.00000   0.00000   0.00000   0.00000   0.00000
           A15          0.00000   0.00000   0.00000   0.00000   0.00000
           D1           0.00000   0.00000   0.00000   0.00000   0.00000
           D2           0.00000   0.00000   0.00000   0.00000   0.00000
           D3           0.00000   0.00000   0.00000   0.00000   0.00000
           D4           0.00000   0.00000   0.00000   0.00000   0.00000
           D5           0.00000   0.00000   0.00000   0.00000   0.00000
           D6           0.00000   0.00000   0.00000   0.00000   0.00000
           D7           0.00000   0.00000   0.00000   0.00000   0.00000
           D8           0.00000   0.00000   0.00000   0.00000   0.00000
           D9           0.00000   0.00000   0.00000   0.00000   0.00000
           D10          0.00000   0.00000   0.00000   0.00000   0.00000
           D11          0.00000   0.00000   0.00000   0.00000   0.00000
           D12          0.00000   0.00000   0.00000   0.00000   0.00000
                          A2        A3        A4        A5        A6
           A2           0.16000
           A3           0.00000   0.16000
           A4           0.00000   0.00000   0.16000
           A5           0.00000   0.00000   0.00000   0.16000
           A6           0.00000   0.00000   0.00000   0.00000   0.16000
           A7           0.00000   0.00000   0.00000   0.00000   0.00000
           A8           0.00000   0.00000   0.00000   0.00000   0.00000
           A9           0.00000   0.00000   0.00000   0.00000   0.00000
           A10          0.00000   0.00000   0.00000   0.00000   0.00000
           A11          0.00000   0.00000   0.00000   0.00000   0.00000
           A12          0.00000   0.00000   0.00000   0.00000   0.00000
           A13          0.00000   0.00000   0.00000   0.00000   0.00000
           A14          0.00000   0.00000   0.00000   0.00000   0.00000
           A15          0.00000   0.00000   0.00000   0.00000   0.00000
           D1           0.00000   0.00000   0.00000   0.00000   0.00000
           D2           0.00000   0.00000   0.00000   0.00000   0.00000
           D3           0.00000   0.00000   0.00000   0.00000   0.00000
           D4           0.00000   0.00000   0.00000   0.00000   0.00000
           D5           0.00000   0.00000   0.00000   0.00000   0.00000
           D6           0.00000   0.00000   0.00000   0.00000   0.00000
           D7           0.00000   0.00000   0.00000   0.00000   0.00000
           D8           0.00000   0.00000   0.00000   0.00000   0.00000
           D9           0.00000   0.00000   0.00000   0.00000   0.00000
           D10          0.00000   0.00000   0.00000   0.00000   0.00000
           D11          0.00000   0.00000   0.00000   0.00000   0.00000
           D12          0.00000   0.00000   0.00000   0.00000   0.00000
                          A7        A8        A9        A10       A11
           A7           0.16000
           A8           0.00000   0.16000
           A9           0.00000   0.00000   0.16000
           A10          0.00000   0.00000   0.00000   0.16000
           A11          0.00000   0.00000   0.00000   0.00000   0.16000
           A12          0.00000   0.00000   0.00000   0.00000   0.00000
           A13          0.00000   0.00000   0.00000   0.00000   0.00000
           A14          0.00000   0.00000   0.00000   0.00000   0.00000
           A15          0.00000   0.00000   0.00000   0.00000   0.00000
           D1           0.00000   0.00000   0.00000   0.00000   0.00000
           D2           0.00000   0.00000   0.00000   0.00000   0.00000
           D3           0.00000   0.00000   0.00000   0.00000   0.00000
           D4           0.00000   0.00000   0.00000   0.00000   0.00000
           D5           0.00000   0.00000   0.00000   0.00000   0.00000
           D6           0.00000   0.00000   0.00000   0.00000   0.00000
           D7           0.00000   0.00000   0.00000   0.00000   0.00000
           D8           0.00000   0.00000   0.00000   0.00000   0.00000
           D9           0.00000   0.00000   0.00000   0.00000   0.00000
           D10          0.00000   0.00000   0.00000   0.00000   0.00000
           D11          0.00000   0.00000   0.00000   0.00000   0.00000
           D12          0.00000   0.00000   0.00000   0.00000   0.00000
                          A12       A13       A14       A15       D1
           A12          0.16000
           A13          0.00000   0.16000
           A14          0.00000   0.00000   0.00230
           A15          0.00000   0.00000   0.00000   0.00230
           D1           0.00000   0.00000   0.00000   0.00000   0.00659
           D2           0.00000   0.00000   0.00000   0.00000   0.00000
           D3           0.00000   0.00000   0.00000   0.00000   0.00000
           D4           0.00000   0.00000   0.00000   0.00000   0.00000
           D5           0.00000   0.00000   0.00000   0.00000   0.00000
           D6           0.00000   0.00000   0.00000   0.00000   0.00000
           D7           0.00000   0.00000   0.00000   0.00000   0.00000
           D8           0.00000   0.00000   0.00000   0.00000   0.00000
           D9           0.00000   0.00000   0.00000   0.00000   0.00000
           D10          0.00000   0.00000   0.00000   0.00000   0.00000
           D11          0.00000   0.00000   0.00000   0.00000   0.00000
           D12          0.00000   0.00000   0.00000   0.00000   0.00000
                          D2        D3        D4        D5        D6
           D2           0.00659
           D3           0.00000   0.00659
           D4           0.00000   0.00000   0.00659
           D5           0.00000   0.00000   0.00000   0.00659
           D6           0.00000   0.00000   0.00000   0.00000   0.00659
           D7           0.00000   0.00000   0.00000   0.00000   0.00000
           D8           0.00000   0.00000   0.00000   0.00000   0.00000
           D9           0.00000   0.00000   0.00000   0.00000   0.00000
           D10          0.00000   0.00000   0.00000   0.00000   0.00000
           D11          0.00000   0.00000   0.00000   0.00000   0.00000
           D12          0.00000   0.00000   0.00000   0.00000   0.00000
                          D7        D8        D9        D10       D11
           D7           0.00659
           D8           0.00000   0.00659
           D9           0.00000   0.00000   0.00659
           D10          0.00000   0.00000   0.00000   0.00230
           D11          0.00000   0.00000   0.00000   0.00000   0.00230
           D12          0.00000   0.00000   0.00000   0.00000   0.00000
                          D12
           D12          0.00230
 ITU=  0
 Eigenvectors of the second derivative matrix:
                           1         2         3         4         5
     Eigenvalues --     0.00230   0.00230   0.00230   0.00659   0.04441
   1         R1         0.00000  -0.00000  -0.00000   0.00000  -0.00000
   2         R2         0.00000   0.00000  -0.00000  -0.00000   0.00002
   3         R3         0.00000  -0.00000  -0.00000   0.00000   0.00000
   4         R4         0.00000  -0.00000   0.00000  -0.00000   0.00000
   5         R5        -0.00000  -0.00000  -0.00000   0.00000   0.00000
   6         R6         0.00000   0.00000   0.00000   0.00000   0.00000
   7         R7         0.00000   0.00000  -0.00000  -0.00000  -0.00014
   8         R8         0.00000   0.00000   0.00000   0.00000   0.00007
   9         R9        -0.00000   0.00000   0.00000  -0.00000  -0.00000
  10         A1         0.00000  -0.00000  -0.00000   0.00000  -0.00005
  11         A2        -0.00000  -0.00000   0.00000  -0.00000   0.00001
  12         A3        -0.00000   0.00000  -0.00000   0.00000   0.00002
  13         A4         0.00000   0.00000   0.00000  -0.00000  -0.00001
  14         A5        -0.00000   0.00000  -0.00000   0.00000  -0.00000
  15         A6        -0.00000  -0.00000   0.00000  -0.00000   0.00003
  16         A7        -0.00000  -0.00000  -0.00000   0.00002   0.11493
  17         A8         0.00000  -0.00000   0.00000  -0.00002   0.08062
  18         A9         0.00000   0.00000   0.00000   0.00000  -0.22932
  19         A10        0.00000  -0.00000  -0.00000  -0.00001   0.29928
  20         A11       -0.00000  -0.00000  -0.00000   0.00001  -0.18448
  21         A12        0.00000   0.00000   0.00000  -0.00001  -0.22591
  22         A13        0.00000  -0.00000  -0.00000   0.00000  -0.00000
  23         A14       -0.31446  -0.10523   0.93426  -0.00012   0.01311
  24         A15       -0.93886  -0.01788  -0.31826  -0.00017  -0.00906
  25         D1        -0.00000   0.00000   0.00000   0.33334  -0.33658
  26         D2         0.00000   0.00000   0.00000   0.33334   0.36334
  27         D3         0.00000   0.00000   0.00000   0.33332  -0.02675
  28         D4         0.00000   0.00000   0.00000   0.33334  -0.33662
  29         D5         0.00000   0.00000   0.00000   0.33334   0.36330
  30         D6         0.00000   0.00000   0.00000   0.33332  -0.02679
  31         D7        -0.00000   0.00000   0.00000   0.33334  -0.33655
  32         D8         0.00000   0.00000   0.00000   0.33334   0.36337
  33         D9         0.00000   0.00000   0.00000   0.33332  -0.02673
  34         D10       -0.13606   0.56810   0.05912   0.00122   0.02440
  35         D11        0.02092   0.58555  -0.03929  -0.00087   0.07106
  36         D12        0.02670   0.56833   0.14435  -0.00035  -0.09547
                           6         7         8         9        10
     Eigenvalues --     0.05630   0.05640   0.05713   0.11488   0.13254
   1         R1         0.00008   0.00001   0.00000  -0.00013   0.00032
   2         R2        -0.00002  -0.00000  -0.00000   0.00029  -0.00009
   3         R3        -0.00000  -0.00000   0.00000  -0.00000   0.00000
   4         R4        -0.00000   0.00000   0.00000   0.00000  -0.00000
   5         R5         0.00000  -0.00000   0.00000   0.00000  -0.00000
   6         R6        -0.00000  -0.00000  -0.00000   0.00000   0.00000
   7         R7        -0.00043  -0.00007  -0.00001  -0.00359  -0.00588
   8         R8         0.00017   0.00003   0.00001   0.00118   0.00094
   9         R9         0.00000   0.00000   0.00000   0.00000   0.00000
  10         A1        -0.01735   0.13909  -0.16836  -0.00160   0.00346
  11         A2        -0.01956   0.07554   0.20427   0.00013  -0.00030
  12         A3         0.03695  -0.21363  -0.03536   0.00030  -0.00070
  13         A4        -0.06881   0.39621   0.06667   0.00068  -0.00130
  14         A5         0.03676  -0.14241  -0.38906   0.00102  -0.00208
  15         A6         0.03303  -0.26051   0.31933  -0.00045   0.00075
  16         A7         0.19779   0.03307   0.00635  -0.40975   0.54118
  17         A8        -0.21641  -0.03622  -0.00724  -0.37083  -0.55790
  18         A9         0.01446   0.00240   0.00048  -0.10919  -0.00469
  19         A10       -0.01801  -0.00297  -0.00048   0.52154   0.00939
  20         A11        0.36424   0.06125   0.01262   0.24797  -0.31479
  21         A12       -0.31376  -0.05279  -0.01073   0.25074   0.34891
  22         A13       -0.00000  -0.00000   0.00000   0.00000  -0.00000
  23         A14       -0.01461  -0.00239  -0.00032   0.06548  -0.01697
  24         A15       -0.03842  -0.00633  -0.00112  -0.02226  -0.04719
  25         D1         0.25719  -0.26038  -0.23801   0.03049  -0.03828
  26         D2         0.20754  -0.26867  -0.23978  -0.03060  -0.04166
  27         D3        -0.29281  -0.35276  -0.25680   0.00091   0.07804
  28         D4         0.14419   0.39188  -0.12892   0.03035  -0.03777
  29         D5         0.09453   0.38360  -0.13069  -0.03074  -0.04114
  30         D6        -0.40582   0.29950  -0.14772   0.00077   0.07855
  31         D7         0.19777  -0.03092   0.38748   0.03006  -0.03749
  32         D8         0.14812  -0.03920   0.38571  -0.03103  -0.04086
  33         D9        -0.35223  -0.12330   0.36868   0.00048   0.07883
  34         D10        0.25428   0.04187   0.00722  -0.01152   0.31027
  35         D11       -0.12575  -0.02062  -0.00305   0.37705  -0.14854
  36         D12       -0.12853  -0.02125  -0.00417  -0.36553  -0.16173
                          11        12        13        14        15
     Eigenvalues --     0.15393   0.16000   0.16000   0.16000   0.16000
   1         R1         0.00000   0.00000  -0.00000  -0.00000  -0.00000
   2         R2         0.00000   0.00000   0.00000  -0.00000  -0.00000
   3         R3         0.00000  -0.00000  -0.00000  -0.00000   0.00000
   4         R4        -0.00000  -0.00000   0.00000   0.00000  -0.00000
   5         R5        -0.00000  -0.00000   0.00000  -0.00000  -0.00000
   6         R6         0.00000  -0.00000  -0.00000   0.00000  -0.00000
   7         R7         0.99997   0.00000  -0.00000  -0.00000   0.00000
   8         R8         0.00000  -0.00000  -0.00000   0.00000   0.00000
   9         R9        -0.00000  -0.00000   0.00000  -0.00000  -0.00000
  10         A1         0.00002   0.51161   0.17515  -0.11266   0.34151
  11         A2        -0.00000  -0.19829   0.11171   0.61759  -0.36272
  12         A3        -0.00000   0.00224  -0.04388   0.41042   0.54146
  13         A4        -0.00001  -0.16951  -0.15455  -0.27114   0.01066
  14         A5        -0.00001  -0.26990  -0.06885  -0.15726  -0.46490
  15         A6         0.00000   0.10340  -0.03559  -0.54400  -0.09661
  16         A7         0.00203   0.03142  -0.15268   0.02136  -0.00728
  17         A8        -0.00584   0.04035  -0.17356   0.02353  -0.00545
  18         A9        -0.00066  -0.17113   0.76173  -0.10424   0.02758
  19         A10        0.00271  -0.05148   0.23399  -0.03219   0.00913
  20         A11       -0.00060   0.07483  -0.32784   0.04467  -0.01115
  21         A12        0.00310   0.07469  -0.33518   0.04597  -0.01251
  22         A13        0.00000  -0.73548  -0.12958  -0.16198   0.48150
  23         A14        0.00001  -0.00000   0.00000  -0.00000   0.00000
  24         A15       -0.00007  -0.00000  -0.00000  -0.00000   0.00000
  25         D1        -0.00003  -0.00000  -0.00000   0.00000  -0.00000
  26         D2        -0.00006   0.00000  -0.00000  -0.00000  -0.00000
  27         D3         0.00009   0.00000   0.00000  -0.00000  -0.00000
  28         D4        -0.00003  -0.00000   0.00000   0.00000  -0.00000
  29         D5        -0.00006  -0.00000  -0.00000   0.00000  -0.00000
  30         D6         0.00009   0.00000   0.00000   0.00000  -0.00000
  31         D7        -0.00003  -0.00000  -0.00000   0.00000  -0.00000
  32         D8        -0.00006   0.00000  -0.00000  -0.00000  -0.00000
  33         D9         0.00009   0.00000   0.00000   0.00000  -0.00000
  34         D10        0.00040   0.00000   0.00000  -0.00000   0.00000
  35         D11       -0.00001   0.00000  -0.00000   0.00000  -0.00000
  36         D12       -0.00039  -0.00000   0.00000  -0.00000   0.00000
                          16        17        18        19        20
     Eigenvalues --     0.16000   0.22377   0.31541   0.34437   0.34809
   1         R1         0.00000  -0.00000   1.00000   0.00000   0.00001
   2         R2        -0.00000  -0.00000  -0.00001  -0.00000   1.00000
   3         R3        -0.00000  -0.00000  -0.00000  -0.00000  -0.00000
   4         R4         0.00000   0.00000   0.00000  -1.00000  -0.00000
   5         R5        -0.00000   0.00000  -0.00000   0.00000  -0.00000
   6         R6         0.00000   0.00000  -0.00000  -0.00000   0.00000
   7         R7         0.00000  -0.00001   0.00000  -0.00000   0.00000
   8         R8         0.00000  -1.00000  -0.00000   0.00000  -0.00000
   9         R9        -0.00000  -0.00000  -0.00000   0.00000  -0.00000
  10         A1        -0.50396   0.00000  -0.00000  -0.00000   0.00000
  11         A2        -0.33393  -0.00000   0.00000   0.00000  -0.00000
  12         A3         0.46196  -0.00000   0.00000   0.00000  -0.00000
  13         A4         0.45143  -0.00000   0.00000   0.00000  -0.00000
  14         A5         0.02109  -0.00000   0.00000  -0.00000  -0.00000
  15         A6        -0.06952   0.00000  -0.00000  -0.00000   0.00000
  16         A7        -0.02398   0.00010  -0.00065  -0.00000   0.00051
  17         A8        -0.03175  -0.00188   0.00039  -0.00000   0.00015
  18         A9         0.13356  -0.00034  -0.00005  -0.00000   0.00013
  19         A10        0.03997   0.00133   0.00020   0.00000  -0.00051
  20         A11       -0.05863   0.00026   0.00016  -0.00000  -0.00021
  21         A12       -0.05818   0.00083  -0.00003  -0.00000  -0.00016
  22         A13       -0.42919   0.00000   0.00000  -0.00000  -0.00000
  23         A14        0.00000  -0.00007  -0.00006   0.00000   0.00009
  24         A15        0.00000   0.00014  -0.00008  -0.00000   0.00000
  25         D1        -0.00000   0.00002  -0.00006  -0.00000   0.00004
  26         D2        -0.00000   0.00011  -0.00004  -0.00000  -0.00001
  27         D3        -0.00000  -0.00013   0.00010  -0.00000  -0.00003
  28         D4        -0.00000   0.00002  -0.00006   0.00000   0.00004
  29         D5        -0.00000   0.00011  -0.00004   0.00000  -0.00001
  30         D6        -0.00000  -0.00013   0.00010   0.00000  -0.00003
  31         D7         0.00000   0.00002  -0.00006  -0.00000   0.00004
  32         D8         0.00000   0.00011  -0.00004   0.00000  -0.00001
  33         D9        -0.00000  -0.00013   0.00010   0.00000  -0.00003
  34         D10       -0.00000  -0.00069   0.00059  -0.00000  -0.00022
  35         D11        0.00000  -0.00029  -0.00045   0.00000   0.00056
  36         D12       -0.00000   0.00098  -0.00014  -0.00000  -0.00034
                          21        22        23        24
     Eigenvalues --     0.34817   0.35227   0.35240   0.42467
   1         R1        -0.00000   0.00000   0.00000  -0.00000
   2         R2        -0.00000   0.00000  -0.00000  -0.00000
   3         R3        -1.00000  -0.00000  -0.00000  -0.00000
   4         R4         0.00000   0.00000  -0.00000  -0.00000
   5         R5        -0.00000   1.00000  -0.00000   0.00000
   6         R6        -0.00000   0.00000   1.00000   0.00000
   7         R7         0.00000  -0.00000  -0.00000  -0.00000
   8         R8         0.00000   0.00000   0.00000   0.00000
   9         R9         0.00000   0.00000   0.00000  -1.00000
  10         A1         0.00000   0.00000   0.00000  -0.00000
  11         A2         0.00000  -0.00000  -0.00000   0.00000
  12         A3        -0.00000   0.00000  -0.00000  -0.00000
  13         A4        -0.00000  -0.00000  -0.00000  -0.00000
  14         A5         0.00000   0.00000  -0.00000   0.00000
  15         A6        -0.00000  -0.00000   0.00000  -0.00000
  16         A7         0.00000  -0.00000  -0.00000   0.00000
  17         A8        -0.00000   0.00000  -0.00000  -0.00000
  18         A9         0.00000  -0.00000   0.00000   0.00000
  19         A10        0.00000  -0.00000   0.00000   0.00000
  20         A11       -0.00000   0.00000   0.00000  -0.00000
  21         A12       -0.00000   0.00000  -0.00000   0.00000
  22         A13        0.00000   0.00000   0.00000   0.00000
  23         A14       -0.00000  -0.00000  -0.00000   0.00000
  24         A15       -0.00000  -0.00000   0.00000   0.00000
  25         D1         0.00000   0.00000   0.00000  -0.00000
  26         D2         0.00000  -0.00000  -0.00000   0.00000
  27         D3         0.00000   0.00000  -0.00000   0.00000
  28         D4         0.00000  -0.00000   0.00000  -0.00000
  29         D5         0.00000  -0.00000  -0.00000  -0.00000
  30         D6         0.00000   0.00000  -0.00000  -0.00000
  31         D7         0.00000  -0.00000   0.00000  -0.00000
  32         D8         0.00000  -0.00000   0.00000  -0.00000
  33         D9         0.00000  -0.00000   0.00000  -0.00000
  34         D10       -0.00000  -0.00000   0.00000  -0.00000
  35         D11       -0.00000   0.00000  -0.00000  -0.00000
  36         D12       -0.00000   0.00000  -0.00000  -0.00000
 Eigenvalue     1 is   2.30D-03 should be less than     0.000000 Eigenvector:
                          A15       A14       D10       D12       D11
   1                   -0.93886  -0.31446  -0.13606   0.02670   0.02092
                          D6        R7        A13       D5        D7
   1                    0.00000   0.00000   0.00000   0.00000  -0.00000
 RLam0= 3.25D-03.
 Iter=   1 RLamda= 0.00000000D+00 Sum=-1.39342077D-02.
 Iter=   2 RLamda=-1.39342077D-02 Sum=-4.43840371D-03.
 Iter=   3 RLamda=-4.43840371D-03 Sum=-6.72141729D-03.
 Iter=   4 RLamda=-6.72141729D-03 Sum=-5.75424777D-03.
 Iter=   5 RLamda=-5.75424777D-03 Sum=-6.09891317D-03.
 Iter=   6 RLamda=-6.09891317D-03 Sum=-5.96728237D-03.
 Iter=   7 RLamda=-5.96728237D-03 Sum=-6.01629792D-03.
 Iter=   8 RLamda=-6.01629792D-03 Sum=-5.99787034D-03.
 Iter=   9 RLamda=-5.99787034D-03 Sum=-6.00477352D-03.
 Iter=  10 RLamda=-6.00477352D-03 Sum=-6.00218404D-03.
 Iter=  11 RLamda=-6.00218404D-03 Sum=-6.00315490D-03.
 Iter=  12 RLamda=-6.00315490D-03 Sum=-6.00279083D-03.
 Iter=  13 RLamda=-6.00279083D-03 Sum=-6.00292735D-03.
 Iter=  14 RLamda=-6.00292735D-03 Sum=-6.00287616D-03.
 Iter=  15 RLamda=-6.00287616D-03 Sum=-6.00289535D-03.
 Iter=  16 RLamda=-6.00289535D-03 Sum=-6.00288815D-03.
 RFO step:  Lambda0=3.248002421D-03 Lambda=-6.00289535D-03.
 Linear search not attempted -- option 19 set.
 Maximum step size (   0.100) exceeded in Quadratic search.
    -- Step size scaled by   0.118
 Iteration  1 RMS(Cart)=  0.03438528 RMS(Int)=  0.00113010
 Iteration  2 RMS(Cart)=  0.00180507 RMS(Int)=  0.00006973
 Iteration  3 RMS(Cart)=  0.00000217 RMS(Int)=  0.00006972
 Iteration  4 RMS(Cart)=  0.00000000 RMS(Int)=  0.00006972
 ITry= 1 IFail=0 DXMaxC= 8.55D-02 DCOld= 1.00D+10 DXMaxT= 1.00D-01 DXLimC= 3.00D+00 Rises=F
 Variable       Old X    -DE/DX   Delta X   Delta X   Delta X     New X
                                 (Linear)    (Quad)   (Total)
    R1        2.84991   0.00090   0.00000   0.00033   0.00033   2.85024
    R2        2.05986   0.00886   0.00000   0.00296   0.00296   2.06281
    R3        2.05974   0.00860   0.00000   0.00287   0.00287   2.06261
    R4        2.06599   0.00960   0.00000   0.00324   0.00324   2.06922
    R5        2.05308   0.01011   0.00000   0.00334   0.00334   2.05641
    R6        2.05287   0.00950   0.00000   0.00313   0.00313   2.05600
    R7        2.59371   0.00075   0.00000   0.00055   0.00055   2.59427
    R8        2.33086   0.00915   0.00000   0.00471   0.00471   2.33557
    R9        1.95033   0.01563   0.00000   0.00429   0.00429   1.95462
    A1        1.94138   0.00066   0.00000   0.00049   0.00049   1.94187
    A2        1.94559   0.00004   0.00000   0.00005   0.00005   1.94564
    A3        1.93742  -0.00003   0.00000  -0.00006  -0.00006   1.93736
    A4        1.88573  -0.00031   0.00000  -0.00016  -0.00016   1.88557
    A5        1.87530  -0.00037   0.00000  -0.00029  -0.00029   1.87501
    A6        1.87538  -0.00004   0.00000  -0.00006  -0.00006   1.87532
    A7        2.01753  -0.00032   0.00000  -0.00002  -0.00018   2.01735
    A8        2.02022   0.00055   0.00000  -0.00016  -0.00008   2.02014
    A9        1.86078  -0.00284   0.00000  -0.00197  -0.00199   1.85879
   A10        1.96076  -0.00033   0.00000  -0.00018  -0.00012   1.96064
   A11        1.75045   0.00270   0.00000   0.00299   0.00301   1.75347
   A12        1.81624   0.00042   0.00000  -0.00039  -0.00037   1.81586
   A13        1.65666   0.01038   0.00000   0.00739   0.00739   1.66405
   A14        3.09306   0.00420   0.00000   0.08896   0.08893   3.18199
   A15        3.22377  -0.00327   0.00000   0.04388   0.04384   3.26761
    D1        0.98517   0.00038   0.00000  -0.00027  -0.00030   0.98487
    D2       -2.95315   0.00011   0.00000  -0.00077  -0.00078  -2.95393
    D3       -0.94289  -0.00098   0.00000  -0.00267  -0.00263  -0.94552
    D4        3.09108   0.00046   0.00000  -0.00011  -0.00013   3.09095
    D5       -0.84724   0.00019   0.00000  -0.00061  -0.00062  -0.84786
    D6        1.16302  -0.00090   0.00000  -0.00250  -0.00247   1.16056
    D7       -1.10202   0.00042   0.00000  -0.00019  -0.00021  -1.10223
    D8        1.24285   0.00015   0.00000  -0.00068  -0.00070   1.24215
    D9       -3.03008  -0.00094   0.00000  -0.00258  -0.00254  -3.03262
   D10        3.14159   0.00005   0.00000   0.01343   0.01370  -3.12790
   D11        1.02984   0.00017   0.00000  -0.00519  -0.00543   1.02441
   D12       -1.01436   0.00023   0.00000   0.00667   0.00665  -1.00771
         Item               Value     Threshold  Converged?
 Maximum Force            0.015633     0.000450     NO 
 RMS     Force            0.005063     0.000300     NO 
 Maximum Displacement     0.085530     0.001800     NO 
 RMS     Displacement     0.034892     0.001200     NO 
 Predicted change in Energy=-5.531217D-04
 Lowest energy point so far.  Saving SCF results.
 Largest change from initial coordinates is atom   10       0.055 Angstoms.
 GradGradGradGradGradGradGradGradGradGradGradGradGradGradGradGradGradGrad

 Leave Link  103 at Wed Oct  7 16:13:04 2020, MaxMem=  2684354560 cpu:               6.0 elap:               1.3
 (Enter /udrive/faculty/rpeverati/g16/g16/l202.exe)
                          Input orientation:                          
 ---------------------------------------------------------------------
 Center     Atomic      Atomic             Coordinates (Angstroms)
 Number     Number       Type             X           Y           Z
 ---------------------------------------------------------------------
      1          6           0       -1.405413   -0.448321    0.000743
      2          6           0       -0.426492    0.699084   -0.008897
      3          7           0        1.953366   -0.358704    0.027154
      4          1           0       -1.238002   -1.118576   -0.844426
      5          1           0       -1.325047   -1.034485    0.917964
      6          1           0       -2.436220   -0.085344   -0.067674
      7          1           0       -0.415400    1.299755   -0.916237
      8          1           0       -0.405022    1.309565    0.891420
      9          1           0        0.826948    0.141798   -0.063413
     10          1           0        2.459500    0.543334    0.031501
 ---------------------------------------------------------------------
                    Distance matrix (angstroms):
                    1          2          3          4          5
     1  C    0.000000
     2  C    1.508284   0.000000
     3  N    3.360079   2.604600   0.000000
     4  H    1.091594   2.158829   3.394391   0.000000
     5  H    1.091486   2.161419   3.463844   1.766541   0.000000
     6  H    1.094987   2.158191   4.399112   1.762566   1.762684
     7  H    2.208337   1.088207   3.041633   2.555417   3.104904
     8  H    2.210034   1.087989   3.015307   3.098852   2.518277
     9  H    2.309934   1.372826   1.235930   2.542153   2.641557
    10  H    3.990223   2.890474   1.034341   4.147374   4.195012
                    6          7          8          9         10
     6  H    0.000000
     7  H    2.592735   0.000000
     8  H    2.644125   1.807713   0.000000
     9  H    3.271067   1.900422   1.947598   0.000000
    10  H    4.936917   3.120165   3.087403   1.683884   0.000000
 Stoichiometry    C2H7N(3)
 Framework group  C1[X(C2H7N)]
 Deg. of freedom    24
 Full point group                 C1      NOp   1
 RotChk:  IX=0 Diff= 2.88D-02
 Largest Abelian subgroup         C1      NOp   1
 Largest concise Abelian subgroup C1      NOp   1
                         Standard orientation:                         
 ---------------------------------------------------------------------
 Center     Atomic      Atomic             Coordinates (Angstroms)
 Number     Number       Type             X           Y           Z
 ---------------------------------------------------------------------
      1          6           0       -1.415388   -0.436700    0.001660
      2          6           0       -0.425568    0.701357    0.002304
      3          7           0        1.944203   -0.379442    0.001947
      4          1           0       -1.261250   -1.094875   -0.855442
      5          1           0       -1.333291   -1.038235    0.908720
      6          1           0       -2.443168   -0.062892   -0.052497
      7          1           0       -0.415994    1.316370   -0.895394
      8          1           0       -0.390972    1.297090    0.912043
      9          1           0        0.821966    0.133130   -0.071378
     10          1           0        2.459021    0.517560    0.016537
 ---------------------------------------------------------------------
 Rotational constants (GHZ):          26.1730186           5.1118683           4.5234497
 Leave Link  202 at Wed Oct  7 16:13:05 2020, MaxMem=  2684354560 cpu:               1.3 elap:               0.4
 (Enter /udrive/faculty/rpeverati/g16/g16/l301.exe)
 Standard basis: 6-31G(d) (5D, 7F)
 Ernie: Thresh=  0.10000D-02 Tol=  0.10000D-05 Strict=F.
 There are    59 symmetry adapted cartesian basis functions of A   symmetry.
 There are    56 symmetry adapted basis functions of A   symmetry.
    56 basis functions,   112 primitive gaussians,    59 cartesian basis functions
[...]
  21         A12       -0.00899   0.00303  -0.00991  -0.00263
  22         A13       -0.00380  -0.00000   0.00029  -0.06855
  23         A14       -0.00831  -0.00343  -0.00440  -0.00941
  24         A15        0.00321  -0.00523   0.00139   0.00348
  25         D1        -0.00244   0.00189  -0.01323   0.00008
  26         D2        -0.00603   0.00187   0.00701  -0.00047
  27         D3        -0.00424  -0.00687  -0.00326  -0.00026
  28         D4         0.00601   0.00181  -0.00694   0.00050
  29         D5         0.00242   0.00179   0.01331  -0.00005
  30         D6         0.00422  -0.00695   0.00304   0.00016
  31         D7         0.00180   0.00427  -0.01007   0.00030
  32         D8        -0.00178   0.00425   0.01018  -0.00025
  33         D9         0.00001  -0.00449  -0.00009  -0.00004
  34         D10        0.00007   0.01814  -0.00026  -0.00013
  35         D11       -0.01694  -0.00868  -0.00260  -0.00062
  36         D12        0.01685  -0.00871   0.00291   0.00078
 Eigenvalue     1 is  -2.11D-02 should be greater than     0.000000 Eigenvector:
                          R7        R8        D5        D1        D8
   1                   -0.81022   0.50908  -0.10601   0.10596  -0.09937
                          D7        D2        D4        A9        A12
   1                    0.09934  -0.09275   0.09270   0.07241   0.06544
 Angle between quadratic step and forces=  81.96 degrees.
 Linear search not attempted -- first point.
 Iteration  1 RMS(Cart)=  0.00015050 RMS(Int)=  0.00000003
 Iteration  2 RMS(Cart)=  0.00000003 RMS(Int)=  0.00000000
 ITry= 1 IFail=0 DXMaxC= 6.61D-04 DCOld= 1.00D+10 DXMaxT= 3.00D-01 DXLimC= 3.00D+00 Rises=F
 Variable       Old X    -DE/DX   Delta X   Delta X   Delta X     New X
                                 (Linear)    (Quad)   (Total)
    R1        2.84501   0.00000   0.00000   0.00000   0.00000   2.84501
    R2        2.08570  -0.00000   0.00000  -0.00000  -0.00000   2.08570
    R3        2.08570  -0.00000   0.00000  -0.00000  -0.00000   2.08570
    R4        2.09781  -0.00000   0.00000  -0.00000  -0.00000   2.09780
    R5        2.07885   0.00000   0.00000   0.00000   0.00000   2.07885
    R6        2.07885   0.00000   0.00000   0.00000   0.00000   2.07885
    R7        2.75870   0.00000   0.00000   0.00009   0.00009   2.75880
    R8        2.25595   0.00000   0.00000  -0.00003  -0.00003   2.25592
    R9        1.98343  -0.00000   0.00000  -0.00000  -0.00000   1.98343
    A1        1.94979  -0.00000   0.00000  -0.00000  -0.00000   1.94979
    A2        1.94978   0.00000   0.00000   0.00000   0.00000   1.94978
    A3        1.94153  -0.00000   0.00000  -0.00001  -0.00001   1.94152
    A4        1.88398   0.00000   0.00000   0.00000   0.00000   1.88399
    A5        1.86725   0.00000   0.00000   0.00001   0.00001   1.86726
    A6        1.86725   0.00000   0.00000   0.00000   0.00000   1.86726
    A7        2.03104  -0.00000   0.00000  -0.00000  -0.00000   2.03104
    A8        2.03104   0.00000   0.00000  -0.00000  -0.00000   2.03104
    A9        1.82154   0.00000   0.00000   0.00002   0.00002   1.82156
   A10        1.96536   0.00000   0.00000  -0.00000  -0.00000   1.96536
   A11        1.78423   0.00000   0.00000   0.00001   0.00001   1.78424
   A12        1.78426  -0.00000   0.00000  -0.00002  -0.00002   1.78424
   A13        1.74991  -0.00000   0.00000  -0.00002  -0.00002   1.74990
   A14        3.23723   0.00000   0.00000   0.00007   0.00007   3.23730
   A15        3.08550   0.00000   0.00000   0.00009   0.00009   3.08559
    D1        0.89472   0.00000   0.00000  -0.00001  -0.00001   0.89471
    D2       -3.00713  -0.00000   0.00000  -0.00003  -0.00003  -3.00716
    D3       -1.05619  -0.00000   0.00000  -0.00004  -0.00004  -1.05623
    D4        3.00717   0.00000   0.00000  -0.00001  -0.00001   3.00716
    D5       -0.89469   0.00000   0.00000  -0.00002  -0.00002  -0.89471
    D6        1.05625  -0.00000   0.00000  -0.00003  -0.00003   1.05622
    D7       -1.19065   0.00000   0.00000  -0.00001  -0.00001  -1.19066
    D8        1.19068   0.00000   0.00000  -0.00002  -0.00002   1.19066
    D9       -3.14156  -0.00000   0.00000  -0.00004  -0.00004   3.14159
   D10        3.14102   0.00000   0.00000   0.00050   0.00050   3.14152
   D11        1.00969   0.00000   0.00000   0.00047   0.00047   1.01017
   D12       -1.01080   0.00000   0.00000   0.00048   0.00048  -1.01031
         Item               Value     Threshold  Converged?
 Maximum Force            0.000004     0.000450     YES
 RMS     Force            0.000001     0.000300     YES
 Maximum Displacement     0.000661     0.001800     YES
 RMS     Displacement     0.000151     0.001200     YES
 Predicted change in Energy=-4.978062D-10
 Optimization completed.
    -- Stationary point found.
                           ----------------------------
                           !   Optimized Parameters   !
                           ! (Angstroms and Degrees)  !
 --------------------------                            --------------------------
 ! Name  Definition              Value          Derivative Info.                !
 --------------------------------------------------------------------------------
 ! R1    R(1,2)                  1.5055         -DE/DX =    0.0                 !
 ! R2    R(1,4)                  1.1037         -DE/DX =    0.0                 !
 ! R3    R(1,5)                  1.1037         -DE/DX =    0.0                 !
 ! R4    R(1,6)                  1.1101         -DE/DX =    0.0                 !
 ! R5    R(2,7)                  1.1001         -DE/DX =    0.0                 !
 ! R6    R(2,8)                  1.1001         -DE/DX =    0.0                 !
 ! R7    R(2,9)                  1.4598         -DE/DX =    0.0                 !
 ! R8    R(3,9)                  1.1938         -DE/DX =    0.0                 !
 ! R9    R(3,10)                 1.0496         -DE/DX =    0.0                 !
 ! A1    A(2,1,4)              111.7145         -DE/DX =    0.0                 !
 ! A2    A(2,1,5)              111.7143         -DE/DX =    0.0                 !
 ! A3    A(2,1,6)              111.2415         -DE/DX =    0.0                 !
 ! A4    A(4,1,5)              107.9444         -DE/DX =    0.0                 !
 ! A5    A(4,1,6)              106.9856         -DE/DX =    0.0                 !
 ! A6    A(5,1,6)              106.9856         -DE/DX =    0.0                 !
 ! A7    A(1,2,7)              116.3701         -DE/DX =    0.0                 !
 ! A8    A(1,2,8)              116.3701         -DE/DX =    0.0                 !
 ! A9    A(1,2,9)              104.3664         -DE/DX =    0.0                 !
 ! A10   A(7,2,8)              112.6069         -DE/DX =    0.0                 !
 ! A11   A(7,2,9)              102.2288         -DE/DX =    0.0                 !
 ! A12   A(8,2,9)              102.2304         -DE/DX =    0.0                 !
 ! A13   A(9,3,10)             100.2626         -DE/DX =    0.0                 !
 ! A14   L(2,9,3,4,-1)         185.4797         -DE/DX =    0.0                 !
 ! A15   L(2,9,3,4,-2)         176.786          -DE/DX =    0.0                 !
 ! D1    D(4,1,2,7)             51.2637         -DE/DX =    0.0                 !
 ! D2    D(4,1,2,8)           -172.2961         -DE/DX =    0.0                 !
 ! D3    D(4,1,2,9)            -60.5153         -DE/DX =    0.0                 !
 ! D4    D(5,1,2,7)            172.2979         -DE/DX =    0.0                 !
 ! D5    D(5,1,2,8)            -51.2619         -DE/DX =    0.0                 !
 ! D6    D(5,1,2,9)             60.5189         -DE/DX =    0.0                 !
 ! D7    D(6,1,2,7)            -68.2192         -DE/DX =    0.0                 !
 ! D8    D(6,1,2,8)             68.221          -DE/DX =    0.0                 !
 ! D9    D(6,1,2,9)            180.0018         -DE/DX =    0.0                 !
 ! D10   D(1,2,3,10)           179.967          -DE/DX =    0.0                 !
 ! D11   D(7,2,3,10)            57.8512         -DE/DX =    0.0                 !
 ! D12   D(8,2,3,10)           -57.9143         -DE/DX =    0.0                 !
 --------------------------------------------------------------------------------
 GradGradGradGradGradGradGradGradGradGradGradGradGradGradGradGradGradGrad

 Leave Link  103 at Wed Oct  7 16:23:21 2020, MaxMem=  2684354560 cpu:               4.8 elap:               0.9
 (Enter /udrive/faculty/rpeverati/g16/g16/l9999.exe)

 ----------------------------------------------------------------------

 Electric dipole moment (input orientation):
 (Debye = 10**-18 statcoulomb cm , SI units = C m)
                  (au)            (Debye)         (10**-30 SI)
   Tot        0.721093D+00      0.183284D+01      0.611369D+01
   x         -0.369934D+00     -0.940278D+00     -0.313643D+01
   y          0.618754D+00      0.157272D+01      0.524602D+01
   z         -0.163678D-01     -0.416028D-01     -0.138772D+00

 Dipole polarizability, Alpha (input orientation).
 (esu units = cm**3 , SI units = C**2 m**2 J**-1)
 Alpha(0;0):
               (au)            (10**-24 esu)      (10**-40 SI)
   iso        0.381199D+02      0.564879D+01      0.628513D+01
   aniso      0.273160D+02      0.404782D+01      0.450380D+01
   xx         0.557031D+02      0.825435D+01      0.918420D+01
   yx        -0.252497D+01     -0.374162D+00     -0.416311D+00
   yy         0.325381D+02      0.482165D+01      0.536481D+01
   zx         0.379620D+00      0.562539D-01      0.625909D-01
   zy        -0.154067D+00     -0.228304D-01     -0.254022D-01
   zz         0.261186D+02      0.387038D+01      0.430637D+01

 ----------------------------------------------------------------------

 Dipole orientation:
     6         -2.34804650         -1.40789533          0.66041292
     6         -0.03743506         -0.02624885          1.58031013
     7          2.48514526          1.48453153         -2.47324899
     1         -3.57611132         -0.17651719         -0.49097966
     1         -1.84445894         -3.07171208         -0.49208495
     1         -3.50758004         -2.10203751          2.26491976
     1         -0.36697216          1.79161490          2.53341704
     1          1.40863504         -1.17705799          2.53223045
     1          1.25959147          0.75049524         -0.72725111
     1          3.97312200          2.37542274         -1.51084230

 Electric dipole moment (dipole orientation):
 (Debye = 10**-18 statcoulomb cm , SI units = C m)
                  (au)            (Debye)         (10**-30 SI)
   Tot        0.721093D+00      0.183284D+01      0.611369D+01
   x          0.000000D+00      0.000000D+00      0.000000D+00
   y          0.000000D+00      0.000000D+00      0.000000D+00
   z          0.721093D+00      0.183284D+01      0.611369D+01

 Dipole polarizability, Alpha (dipole orientation).
 (esu units = cm**3 , SI units = C**2 m**2 J**-1)
 Alpha(0;0):
               (au)            (10**-24 esu)      (10**-40 SI)
   iso        0.381199D+02      0.564879D+01      0.628513D+01
   aniso      0.273160D+02      0.404782D+01      0.450380D+01
   xx         0.417682D+02      0.618941D+01      0.688664D+01
   yx         0.937274D+01      0.138890D+01      0.154536D+01
   yy         0.317222D+02      0.470075D+01      0.523029D+01
   zx        -0.978106D+01     -0.144940D+01     -0.161268D+01
   zy        -0.585696D+01     -0.867912D+00     -0.965683D+00
   zz         0.408694D+02      0.605622D+01      0.673845D+01

 ----------------------------------------------------------------------

 Test job not archived.
 1\1\GINC-NODE53\Freq\UPBEPBE\6-31G(d)\C2H7N1(3)\RPEVERATI\07-Oct-2020\
 0\\#P Freq PBEPBE/6-31G* 5D 7F Integral=UltraFineGrid SCF=(NoSymm,XQC,
 MaxCyc=120) IOp(1/33=1) Geom=Check Guess=Read\\TS search on BH76.\\0,3
 \C,-1.4227902681,-0.4435260615,-0.0060841248\C,-0.4497502739,0.7052311
 549,-0.0172258563\N,1.9862133117,-0.3369582317,0.0302797934\H,-1.29155
 81872,-1.0983753876,-0.8847842041\H,-1.3117770217,-1.0639333916,0.8999
 696846\H,-2.4721893083,-0.081927664,-0.0249513509\H,-0.4026148214,1.29
 66890522,-0.9435827904\H,-0.4233297475,1.3319825795,0.8864693489\H,0.8
 633654883,0.0679451754,0.0099049478\H,2.5126490679,0.5709773576,0.0181
 404105\\Version=ES64L-G16RevA.03\State=3-A\HF=-134.826295\S2=2.006872\
 S2-1=0.\S2A=2.000024\RMSD=1.081e-09\RMSF=1.135e-06\ZeroPoint=0.0772263
 \Thermal=0.0830433\Dipole=-0.369934,0.6187542,-0.0163678\DipoleDeriv=-
 0.1555997,-0.05807,-0.0011201,0.0830284,0.0313739,0.0011709,-0.0038649
 ,-0.0004145,0.0439221,0.5672131,-0.0936626,0.0067103,-0.0012624,0.0955
 761,0.0006661,0.0049387,-0.0003673,0.1302853,-0.1195762,0.0547694,0.00
 26356,0.1794976,-0.0266498,-0.0065231,0.0001713,-0.0079052,-0.4573863,
 0.0759565,0.0047519,0.0266495,-0.0429991,-0.0191891,-0.088658,0.014191
 8,-0.0998027,-0.0521875,0.0767978,0.0015298,-0.0237688,-0.0454334,-0.0
 119894,0.0860893,-0.0094819,0.0983025,-0.060221,-0.1691698,0.0354767,-
 0.0035973,-0.033651,0.0334698,0.0006843,-0.0022672,0.0014597,0.0882503
 ,-0.0321206,0.0061969,-0.0081298,-0.0159822,-0.0427954,0.0806801,0.036
 4027,0.0773713,-0.0679873,-0.0314755,0.0082717,0.0086302,-0.0155322,-0
 .0489169,-0.0817869,-0.0350455,-0.0779527,-0.0624635,-0.4249632,0.1654
 556,-0.0098558,0.084897,0.08064,0.0026697,-0.0082297,0.0035528,0.16849
 53,0.2129375,-0.1247194,0.0018462,-0.1925626,-0.0915192,0.0050076,0.00
 31848,0.0057561,0.2692925\Polar=55.7030881,-2.5249686,32.5380934,0.379
 62,-0.1540669,26.1185971\Quadrupole=-0.2475413,-0.2798376,0.5273789,2.
 9267683,-0.0665845,0.0485805\PG=C01 [X(C2H7N1)]\NImag=1\\0.47191323,-0
 .02172260,0.49829701,-0.00045943,0.00074194,0.54950273,-0.11304419,-0.
 07659637,0.00111215,0.19535102,-0.08785463,-0.15514296,0.00044032,0.13
 014704,0.44311896,0.00132853,0.00056737,-0.08076015,-0.00675648,0.0039
 3439,0.57054200,0.00750636,0.00153398,0.00005752,-0.07980436,0.0387050
 0,-0.00174591,0.20914350,-0.00267582,-0.00031631,-0.00002753,0.0290038
 1,-0.01194315,0.00072959,0.11158640,0.31722293,0.00013844,0.00001989,-
 0.00016206,-0.00155056,0.00083434,0.00870287,0.00000480,-0.00486796,0.
 00873486,-0.04675541,0.02054881,0.02748954,0.00046255,-0.01355067,-0.0
 1966404,-0.00026828,0.00046872,0.00040927,0.05207572,0.01964492,-0.133
 17701,-0.11853244,0.00211515,-0.01392519,-0.01983751,-0.00068391,0.000
 50996,0.00007034,-0.01791800,0.14426772,0.02734479,-0.11760416,-0.2105
 9822,-0.00217320,0.00019959,0.00151088,-0.00059196,0.00032022,0.000021
 61,-0.02929770,0.13166731,0.22526664,-0.04558296,0.01691470,-0.0243707
 0,-0.00003652,-0.01278128,0.02014575,-0.00027259,0.00045969,-0.0004337
 4,-0.00089993,-0.00283685,0.00408476,0.05082481,0.01599619,-0.12417320
 ,0.11557640,0.00174058,-0.01315022,0.02045679,-0.00065880,0.00049405,-
 0.00010366,-0.00264454,0.01165409,-0.01562826,-0.01390428,0.13422309,-
 0.02419070,0.11466910,-0.22077546,0.00207230,0.00007766,0.00123466,0.0
 0061103,-0.00032776,0.00004132,-0.00357147,0.01438749,-0.01886887,0.02
 584453,-0.12848810,0.23656305,-0.25207936,0.08409634,-0.00400150,-0.02
 272149,-0.00118771,-0.00022784,-0.00070664,0.00104514,-0.00002673,-0.0
 0392814,0.00174094,-0.00034663,-0.00336968,0.00154947,0.00020338,0.280
 14777,0.07470593,-0.06833113,0.00135216,-0.02425703,0.00545664,-0.0003
 9161,-0.00025329,0.00034670,-0.00001172,0.01710151,-0.00669117,0.00130
 031,0.01616209,-0.00638514,-0.00067612,-0.08363277,0.07611180,-0.00382
 039,0.00145860,-0.04219717,0.00021728,-0.00013014,-0.00058304,-0.00000
 184,0.00000287,-0.00012157,0.02455367,-0.00876633,0.00029720,-0.025275
 31,0.00905094,-0.00056714,0.00430949,-0.00160149,0.04230255,0.00160251
 ,-0.01257809,0.01975255,-0.02690754,-0.00925915,-0.00132813,0.00280562
 ,-0.00026865,0.00158405,0.00031490,0.00047162,-0.00073506,-0.00222368,
 -0.00324644,-0.00091304,0.00084767,0.00117130,-0.00042161,0.03006224,0
 .00192224,-0.00941705,0.01841476,-0.01755939,-0.12061882,0.12289509,-0
 .00097708,0.00003902,-0.00091593,0.00089775,0.00077500,-0.00001419,-0.
 00407346,-0.00290255,-0.00004229,-0.00047680,0.00016739,0.00017892,0.0
 1642030,0.12539917,-0.00124226,-0.00108065,0.00236479,0.00921496,0.117
 71589,-0.24161899,-0.00054544,-0.00021135,0.00007982,0.00054274,0.0003
 6632,0.00077079,-0.00019631,-0.00066486,0.00163831,-0.00000307,-0.0001
 2983,0.00014992,-0.00820136,-0.13038201,0.25359823,0.00201749,-0.01335
 728,-0.01926759,-0.02684918,-0.00639218,0.00638642,0.00282630,-0.00033
 520,-0.00151179,-0.00225007,-0.00322656,0.00095018,0.00031140,0.000507
 67,0.00070558,0.00083791,0.00118383,0.00039178,0.00168044,-0.00007286,
 -0.00051470,0.02981567,0.00237896,-0.01007225,-0.01789404,-0.01497384,
 -0.13007975,-0.12757045,-0.00097379,0.00008231,0.00089458,-0.00406640,
 -0.00287174,0.00012455,0.00087540,0.00076206,0.00003464,-0.00047186,0.
 00016563,-0.00019012,-0.00038023,0.01058019,0.01429822,0.01362155,0.13
 564979,0.00114419,0.00125898,0.00260553,-0.00383158,-0.12220039,-0.232
 21846,0.00064641,0.00020323,0.00001492,0.00026565,0.00076615,0.0016337
 6,-0.00058747,-0.00035477,0.00078733,0.00003697,0.00015609,0.00016116,
 0.00093537,-0.01534835,-0.01650698,0.00267035,0.13527998,0.24359362,-0
 .02529968,0.00100972,-0.00030603,0.07574469,-0.03838740,0.00187445,-0.
 03073615,-0.01480174,0.00012850,0.00100143,0.00049366,0.00062634,0.001
 00130,0.00046751,-0.00062160,0.00060893,-0.00235027,0.00004597,-0.0083
 5827,0.00390831,0.00130236,-0.00854119,0.00395981,-0.00163806,0.006248
 07,-0.00336678,0.00257080,-0.00008773,-0.02876390,-0.00587958,-0.00069
 085,0.01205420,-0.02811157,0.00037530,-0.00089930,-0.00049374,-0.00042
 570,-0.00088435,-0.00047405,0.00042318,-0.00260095,-0.00102198,0.00000
 114,0.00789526,-0.00419419,0.00008996,0.00826627,-0.00437682,0.0002468
 0,0.03531615,0.04150692,-0.00022029,-0.00003800,-0.00000616,0.00167951
 ,-0.00079523,-0.02476342,-0.00040094,0.00007882,-0.01584073,-0.0006075
 8,-0.00007283,-0.00001512,0.00066526,0.00010166,-0.00003463,0.00005066
 ,0.00000418,0.00056617,-0.00991387,0.00494277,-0.00050294,0.00941990,-
 0.00470151,-0.00013355,-0.00104452,0.00031491,0.03768620,-0.00027799,0
 .00015079,-0.00000650,-0.00219499,0.00056098,-0.00001277,-0.11049377,-
 0.12448236,0.00125776,0.00024722,0.00019902,0.00013847,0.00024784,0.00
 019264,-0.00014001,0.00036303,0.00016871,0.00000096,0.00017611,0.00001
 097,-0.00035691,0.00015123,0.00003042,0.00035817,-0.01166913,-0.027016
 61,0.00037186,0.12345046,0.00097158,-0.00023791,0.00001617,-0.00085606
 ,0.00216407,-0.00009279,-0.16033270,-0.27832394,0.00370484,0.00006211,
 -0.00004792,0.00006034,0.00006832,-0.00004812,-0.00005780,-0.00006178,
 0.00018126,-0.00000437,-0.00022591,0.00017183,-0.00000170,-0.00019524,
 0.00016057,-0.00000771,0.01038425,0.00047421,0.00016522,0.15018543,0.2
 7550593,-0.00002289,0.00000694,0.00002618,0.00001562,-0.00007643,-0.00
 204634,0.00196633,0.00409986,-0.00147103,-0.00012007,-0.00004848,-0.00
 001866,0.00012322,0.00005389,-0.00001856,0.00000528,-0.00000197,-0.000
 00807,-0.00075891,0.00027124,0.00002705,0.00076988,-0.00027585,0.00006
 268,-0.00036742,-0.00024701,0.00304417,-0.00161105,-0.00378218,0.00040
 258\\0.00000235,0.00000196,-0.00000009,0.00000192,-0.00000176,0.000001
 60,-0.00000251,0.00000153,-0.00000008,-0.00000038,-0.00000020,-0.00000
 021,-0.00000035,-0.00000002,0.00000026,-0.00000099,-0.00000035,-0.0000
 0004,0.00000152,-0.00000037,-0.00000003,-0.00000052,0.00000003,-0.0000
 0023,-0.00000204,-0.00000002,-0.00000105,0.00000100,-0.00000080,-0.000
 00014\\\@


 THIS CURIOUS WORLD WHICH WE INHABIT IS MORE WONDERFUL THAN IT IS CONVENIENT;
 MORE BEAUTIFUL THAN IT IS USEFUL;
 IT IS MORE TO BE ADMIRED THAN IT IS TO BE USED.

                                                                 -- THOREAU
 Job cpu time:       0 days  0 hours  5 minutes 35.2 seconds.
 Elapsed time:       0 days  0 hours  0 minutes 37.3 seconds.
 File lengths (MBytes):  RWF=     13 Int=      0 D2E=      0 Chk=      2 Scr=      1
 Normal termination of Gaussian 16 at Wed Oct  7 16:23:23 2020.
