 Entering Gaussian System, Link 0=g16
 Input=MN_92_RKT18_BH76_PBE_631Gs.in
 Output=MN_92_RKT18_BH76_PBE_631Gs.log
 Initial command:
 /udrive/faculty/rpeverati/g16/g16/l1.exe "/udrive/scratch-directories/gaussian09/rpeverati/Gau-33003.inp" -scrdir="/udrive/scratch-directories/gaussian09/rpeverati/"
 Entering Link 1 = /udrive/faculty/rpeverati/g16/g16/l1.exe PID=     33004.
  
 Copyright (c) 1988,1990,1992,1993,1995,1998,2003,2009,2016,
            Gaussian, Inc.  All Rights Reserved.
  
 This is part of the Gaussian(R) 16 program.  It is based on
 the Gaussian(R) 09 system (copyright 2009, Gaussian, Inc.),
 the Gaussian(R) 03 system (copyright 2003, Gaussian, Inc.),
 the Gaussian(R) 98 system (copyright 1998, Gaussian, Inc.),
 the Gaussian(R) 94 system (copyright 1995, Gaussian, Inc.),
 the Gaussian 92(TM) system (copyright 1992, Gaussian, Inc.),
 the Gaussian 90(TM) system (copyright 1990, Gaussian, Inc.),
 the Gaussian 88(TM) system (copyright 1988, Gaussian, Inc.),
 the Gaussian 86(TM) system (copyright 1986, Carnegie Mellon
 University), and the Gaussian 82(TM) system (copyright 1983,
 Carnegie Mellon University). Gaussian is a federally registered
 trademark of Gaussian, Inc.
  
 This software contains proprietary and confidential information,
 including trade secrets, belonging to Gaussian, Inc.
  
 This software is provided under written license and may be
 used, copied, transmitted, or stored only in accord with that
 written license.
  
 The following legend is applicable only to US Government
 contracts under FAR:
  
                    RESTRICTED RIGHTS LEGEND
  
 Use, reproduction and disclosure by the US Government is
 subject to restrictions as set forth in subparagraphs (a)
 and (c) of the Commercial Computer Software - Restricted
 Rights clause in FAR 52.227-19.
  
 Gaussian, Inc.
 340 Quinnipiac St., Bldg. 40, Wallingford CT 06492
  
  
 ---------------------------------------------------------------
 Warning -- This program may not be used in any manner that
 competes with the business of Gaussian, Inc. or will provide
 assistance to any competitor of Gaussian, Inc.  The licensee
 of this program is prohibited from giving any competitor of
 Gaussian, Inc. access to this program.  By using this program,
 the user acknowledges that Gaussian, Inc. is engaged in the
 business of creating and licensing software in the field of
 computational chemistry and represents and warrants to the
 licensee that it is not a competitor of Gaussian, Inc. and that
 it will not use this program in any manner prohibited above.
 ---------------------------------------------------------------
  

 Cite this work as:
 Gaussian 16, Revision A.03,
 M. J. Frisch, G. W. Trucks, H. B. Schlegel, G. E. Scuseria, 
 M. A. Robb, J. R. Cheeseman, G. Scalmani, V. Barone, 
 G. A. Petersson, H. Nakatsuji, X. Li, M. Caricato, A. V. Marenich, 
 J. Bloino, B. G. Janesko, R. Gomperts, B. Mennucci, H. P. Hratchian, 
 J. V. Ortiz, A. F. Izmaylov, J. L. Sonnenberg, D. Williams-Young, 
 F. Ding, F. Lipparini, F. Egidi, J. Goings, B. Peng, A. Petrone, 
 T. Henderson, D. Ranasinghe, V. G. Zakrzewski, J. Gao, N. Rega, 
 G. Zheng, W. Liang, M. Hada, M. Ehara, K. Toyota, R. Fukuda, 
 J. Hasegawa, M. Ishida, T. Nakajima, Y. Honda, O. Kitao, H. Nakai, 
 T. Vreven, K. Throssell, J. A. Montgomery, Jr., J. E. Peralta, 
 F. Ogliaro, M. J. Bearpark, J. J. Heyd, E. N. Brothers, K. N. Kudin, 
 V. N. Staroverov, T. A. Keith, R. Kobayashi, J. Normand, 
 K. Raghavachari, A. P. Rendell, J. C. Burant, S. S. Iyengar, 
 J. Tomasi, M. Cossi, J. M. Millam, M. Klene, C. Adamo, R. Cammi, 
 J. W. Ochterski, R. L. Martin, K. Morokuma, O. Farkas, 
 J. B. Foresman, and D. J. Fox, Gaussian, Inc., Wallingford CT, 2016.
 
 ******************************************
 Gaussian 16:  ES64L-G16RevA.03 25-Dec-2016
                 7-Oct-2020 
 ******************************************
 %NoSave
 %nproc=12
 Will use up to   12 processors via shared memory.
 %mem=20GB
 %chk=MN_92_RKT18_BH76_PBE_631Gs
 ----------------------------------------------------------------------
 #P Opt(TS,MaxCyc=50,NoEigenTest,MaxStep=10,AddRedundant) PBEPBE/6-31G*
  5D 7F Integral=UltraFineGrid SCF=(NoSymm,XQC,MaxCyc=120) IOp(1/33=1)
 ----------------------------------------------------------------------
 1/5=1,6=50,8=10,11=1,18=120,26=4,33=1,38=1/1,3;
 2/9=110,12=2,17=6,18=5,40=1/2;
 3/5=1,6=6,7=1,8=11,11=2,25=1,30=1,71=1,74=1009,75=-5/1,2,3;
 4/9=2/1;
 5/5=2,7=120,8=3,13=1,38=5/2,8;
 6/7=2,8=2,9=2,10=2,28=1/1;
 7//1,2,3,16;
 1/5=1,6=50,8=10,11=1,18=20,26=4,33=1/3(2);
 2/9=110/2;
 99//99;
 2/9=110/2;
 3/5=1,6=6,7=1,8=11,11=2,25=1,30=1,71=1,74=1009,75=-5/1,2,3;
 4/5=5,9=2,16=3,69=1/1;
 5/5=2,7=120,8=3,13=1,38=5/2,8;
 7//1,2,3,16;
 1/5=1,6=50,8=10,11=1,18=20,26=4,33=1/3(-5);
 2/9=110/2;
 6/7=2,8=2,9=2,10=2,19=2,28=1/1;
 99/9=1/99;
 Leave Link    1 at Wed Oct  7 16:12:31 2020, MaxMem=  2684354560 cpu:              10.0 elap:               0.9
 (Enter /udrive/faculty/rpeverati/g16/g16/l101.exe)
 ONIOM data not found on unit 2.
 ------------------
 TS search on BH76.
 ------------------
 TstMul:  ICh=     0
 TstMul:  Mul=     3
 TstMul:  ICh=     0
 TstMul:  Mul=     3
 Symbolic Z-matrix:
 Charge =  0 Multiplicity = 3
 C                    -1.19958  -0.01113  -0.00003 
 N                     1.40072   0.12986   0.00002 
 H                    -1.42666  -0.51293   0.93306 
 H                    -1.41991  -0.59138  -0.88814 
 H                    -1.52024   1.0228   -0.04578 
 H                     0.18893   0.1269    0.001 
 H                     1.57034  -0.88767  -0.00005 
 
 RdStrC is calling ZToCFu for IStruc=1 NZ=     7.
 PrtBox:  NBox=     1 Levels=  1 BoxLen=    8.00 SMaxX=        5.84
          Shift=            2.872830            1.677450            1.678350
 Box      1 Number                   0 centers from      1 to      7:
 After GenITR:
 ITRead=  0  0  0  0  0  0  0
 MicOpt= -1 -1 -1 -1 -1 -1 -1
 Add virtual bond connecting atoms H6         and N2         Dist= 2.29D+00.
 Add virtual bond connecting atoms H6         and C1         Dist= 2.64D+00.
 The following ModRedundant input section has been read:
 
 ITRead=  0  0  0  0  0  0  0
 MicOpt= -1 -1 -1 -1 -1 -1 -1
 NAtoms=      7 NQM=        7 NQMF=       0 NMMI=      0 NMMIF=      0
                NMic=       0 NMicF=      0.
                    Isotopes and Nuclear Properties:
 (Nuclear quadrupole moments (NQMom) in fm**2, nuclear magnetic moments (NMagM)
  in nuclear magnetons)

  Atom         1           2           3           4           5           6           7
 IAtWgt=          12          14           1           1           1           1           1
 AtmWgt=  12.0000000  14.0030740   1.0078250   1.0078250   1.0078250   1.0078250   1.0078250
 NucSpn=           0           2           1           1           1           1           1
 AtZEff=   0.0000000   0.0000000   0.0000000   0.0000000   0.0000000   0.0000000   0.0000000
 NQMom=    0.0000000   2.0440000   0.0000000   0.0000000   0.0000000   0.0000000   0.0000000
 NMagM=    0.0000000   0.4037610   2.7928460   2.7928460   2.7928460   2.7928460   2.7928460
 AtZNuc=   6.0000000   7.0000000   1.0000000   1.0000000   1.0000000   1.0000000   1.0000000
 No MM parameters found.
 Leave Link  101 at Wed Oct  7 16:12:32 2020, MaxMem=  2684354560 cpu:               3.7 elap:               0.5
 (Enter /udrive/faculty/rpeverati/g16/g16/l103.exe)

 GradGradGradGradGradGradGradGradGradGradGradGradGradGradGradGradGradGrad
 Berny optimization.
 Optmz: redundant internal coordinate code flag= 1
 Initialization pass.
                           ----------------------------
                           !    Initial Parameters    !
                           ! (Angstroms and Degrees)  !
 --------------------------                            --------------------------
 ! Name  Definition              Value          Derivative Info.                !
 --------------------------------------------------------------------------------
 ! R1    R(1,3)                  1.0835         estimate D2E/DX2                !
 ! R2    R(1,4)                  1.0835         estimate D2E/DX2                !
 ! R3    R(1,5)                  1.0835         estimate D2E/DX2                !
 ! R4    R(1,6)                  1.3953         estimate D2E/DX2                !
 ! R5    R(2,6)                  1.2118         estimate D2E/DX2                !
 ! R6    R(2,7)                  1.0316         estimate D2E/DX2                !
 ! A1    A(3,1,4)              114.5334         estimate D2E/DX2                !
 ! A2    A(3,1,5)              114.6001         estimate D2E/DX2                !
 ! A3    A(3,1,6)              104.6982         estimate D2E/DX2                !
 ! A4    A(4,1,5)              114.5979         estimate D2E/DX2                !
 ! A5    A(4,1,6)              104.8289         estimate D2E/DX2                !
 ! A6    A(5,1,6)              101.5452         estimate D2E/DX2                !
 ! A7    A(6,2,7)               99.3239         estimate D2E/DX2                !
 ! A8    L(1,6,2,7,-1)         174.4634         estimate D2E/DX2                !
 ! A9    L(1,6,2,7,-2)         179.8668         estimate D2E/DX2                !
 ! D1    D(3,1,2,7)             62.3573         estimate D2E/DX2                !
 ! D2    D(4,1,2,7)            -57.4187         estimate D2E/DX2                !
 ! D3    D(5,1,2,7)           -177.5008         estimate D2E/DX2                !
 --------------------------------------------------------------------------------
 Maximum allowed force set to 1.00D+20.
 Trust Radius=1.00D-01 FncErr=1.00D-07 GrdErr=1.00D-06 EigMax=2.50D+02 EigMin=1.00D-04
 Number of steps in this run=     50 maximum allowed number of steps=    100.
 Search for a saddle point of order  1.
 GradGradGradGradGradGradGradGradGradGradGradGradGradGradGradGradGradGrad

 Leave Link  103 at Wed Oct  7 16:12:33 2020, MaxMem=  2684354560 cpu:               1.0 elap:               0.4
 (Enter /udrive/faculty/rpeverati/g16/g16/l202.exe)
                          Input orientation:                          
 ---------------------------------------------------------------------
 Center     Atomic      Atomic             Coordinates (Angstroms)
 Number     Number       Type             X           Y           Z
 ---------------------------------------------------------------------
      1          6           0       -1.199576   -0.011126   -0.000030
      2          7           0        1.400716    0.129862    0.000015
      3          1           0       -1.426662   -0.512932    0.933056
      4          1           0       -1.419909   -0.591382   -0.888145
      5          1           0       -1.520236    1.022804   -0.045783
      6          1           0        0.188926    0.126896    0.001001
      7          1           0        1.570339   -0.887668   -0.000053
 ---------------------------------------------------------------------
                    Distance matrix (angstroms):
                    1          2          3          4          5
     1  C    0.000000
     2  N    2.604112   0.000000
     3  H    1.083525   3.045951   0.000000
     4  H    1.083509   3.043838   1.822902   0.000000
     5  H    1.083480   3.054735   1.823559   1.823523   0.000000
     6  H    1.395346   1.211794   1.971860   1.973539   1.930305
     7  H    2.905297   1.031572   3.161191   3.133381   3.633683
                    6          7
     6  H    0.000000
     7  H    1.713955   0.000000
 Stoichiometry    CH5N(3)
 Framework group  C1[X(CH5N)]
 Deg. of freedom    15
 Full point group                 C1      NOp   1
 Largest Abelian subgroup         C1      NOp   1
 Largest concise Abelian subgroup C1      NOp   1
                         Standard orientation:                         
 ---------------------------------------------------------------------
 Center     Atomic      Atomic             Coordinates (Angstroms)
 Number     Number       Type             X           Y           Z
 ---------------------------------------------------------------------
      1          6           0       -1.199577   -0.011126   -0.000030
      2          7           0        1.400715    0.129862    0.000015
      3          1           0       -1.426663   -0.512932    0.933056
      4          1           0       -1.419910   -0.591382   -0.888145
      5          1           0       -1.520237    1.022804   -0.045783
      6          1           0        0.188925    0.126896    0.001001
      7          1           0        1.570338   -0.887668   -0.000053
 ---------------------------------------------------------------------
 Rotational constants (GHZ):         116.4476060           9.1611211           8.9994566
 Leave Link  202 at Wed Oct  7 16:12:34 2020, MaxMem=  2684354560 cpu:               1.0 elap:               0.5
 (Enter /udrive/faculty/rpeverati/g16/g16/l301.exe)
 Standard basis: 6-31G(d) (5D, 7F)
 Ernie: Thresh=  0.10000D-02 Tol=  0.10000D-05 Strict=F.
 There are    40 symmetry adapted cartesian basis functions of A   symmetry.
 There are    38 symmetry adapted basis functions of A   symmetry.
    38 basis functions,    76 primitive gaussians,    40 cartesian basis functions
    10 alpha electrons        8 beta electrons
       nuclear repulsion energy        33.4595449307 Hartrees.
 IExCor= 1009 DFT=T Ex=PBE Corr=PBE ExCW=0 ScaHFX=  0.000000
 ScaDFX=  1.000000  1.000000  1.000000  1.000000 ScalE2=  1.000000  1.000000
 IRadAn=      5 IRanWt=     -1 IRanGd=            0 ICorTp=0 IEmpDi=  4
 NAtoms=    7 NActive=    7 NUniq=    7 SFac= 1.00D+00 NAtFMM=   60 NAOKFM=F Big=F
 Integral buffers will be    131072 words long.
 Raffenetti 2 integral format.
 Two-electron integral symmetry is turned on.
 Leave Link  301 at Wed Oct  7 16:12:35 2020, MaxMem=  2684354560 cpu:               1.7 elap:               0.6
 (Enter /udrive/faculty/rpeverati/g16/g16/l302.exe)
 NPDir=0 NMtPBC=     1 NCelOv=     1 NCel=       1 NClECP=     1 NCelD=      1
         NCelK=      1 NCelE2=     1 NClLst=     1 CellRange=     0.0.
 One-electron integrals computed using PRISM.
 One-electron integral symmetry used in STVInt
 NBasis=    38 RedAO= T EigKep=  9.06D-03  NBF=    38
 NBsUse=    38 1.00D-06 EigRej= -1.00D+00 NBFU=    38
 Precomputing XC quadrature grid using
 IXCGrd= 4 IRadAn=           5 IRanWt=          -1 IRanGd=           0 AccXCQ= 0.00D+00.
 Generated NRdTot=       0 NPtTot=           0 NUsed=           0 NTot=          32
 NSgBfM=    40    40    40    40    40 MxSgAt=     7 MxSgA2=     7.
 Leave Link  302 at Wed Oct  7 16:12:36 2020, MaxMem=  2684354560 cpu:               2.8 elap:               0.7
 (Enter /udrive/faculty/rpeverati/g16/g16/l303.exe)
 DipDrv:  MaxL=1.
 Leave Link  303 at Wed Oct  7 16:12:37 2020, MaxMem=  2684354560 cpu:               1.0 elap:               0.4
 (Enter /udrive/faculty/rpeverati/g16/g16/l401.exe)
 SCF N**3 symmetry information disabled.
 ExpMin= 1.61D-01 ExpMax= 4.17D+03 ExpMxC= 6.27D+02 IAcc=3 IRadAn=         5 AccDes= 0.00D+00
 Harris functional with IExCor= 1009 and IRadAn=       5 diagonalized for initial guess.
 HarFok:  IExCor= 1009 AccDes= 0.00D+00 IRadAn=         5 IDoV= 1 UseB2=F ITyADJ=14
 ICtDFT=  3500011 ScaDFX=  1.000000  1.000000  1.000000  1.000000
 FoFCou: FMM=F IPFlag=           0 FMFlag=      100000 FMFlg1=           0
         NFxFlg=           0 DoJE=T BraDBF=F KetDBF=T FulRan=T
         wScrn=  0.000000 ICntrl=       500 IOpCl=  0 I1Cent=   200000004 NGrid=           0
         NMat0=    1 NMatS0=      1 NMatT0=    0 NMatD0=    1 NMtDS0=    0 NMtDT0=    0
 Petite list used in FoFCou.
 Harris En= -95.5637200605332    
 JPrj=0 DoOrth=F DoCkMO=F.
 Initial guess <Sx>= 0.0000 <Sy>= 0.0000 <Sz>= 1.0000 <S**2>= 2.0000 S= 1.0000
 Leave Link  401 at Wed Oct  7 16:12:38 2020, MaxMem=  2684354560 cpu:               5.3 elap:               0.9
 (Enter /udrive/faculty/rpeverati/g16/g16/l502.exe)
 Keep J ints in memory in canonical form, NReq=10631630.
 FoFCou: FMM=F IPFlag=           0 FMFlag=           0 FMFlg1=           0
         NFxFlg=           0 DoJE=F BraDBF=F KetDBF=F FulRan=T
         wScrn=  0.000000 ICntrl=       600 IOpCl=  0 I1Cent=           0 NGrid=           0
         NMat0=    1 NMatS0=    741 NMatT0=    0 NMatD0=    1 NMtDS0=    0 NMtDT0=    0
 Symmetry not used in FoFCou.
 Two-electron integral symmetry not used.
 UHF open shell SCF:
 Using DIIS extrapolation, IDIIS=  1040.
 NGot=  2684354560 LenX=  2684075284 LenY=  2684073243
 Requested convergence on RMS density matrix=1.00D-08 within 120 cycles.
 Requested convergence on MAX density matrix=1.00D-06.
 Requested convergence on             energy=1.00D-06.
 No special actions if energy rises.
 Integral accuracy reduced to 1.0D-05 until final iterations.

 Cycle   1  Pass 0  IDiag  1:
 E= -95.5008350961161    
 DIIS: error= 5.92D-02 at cycle   1 NSaved=   1.
 NSaved= 1 IEnMin= 1 EnMin= -95.5008350961161     IErMin= 1 ErrMin= 5.92D-02
 ErrMax= 5.92D-02  0.00D+00 EMaxC= 1.00D-01 BMatC= 2.29D-01 BMatP= 2.29D-01
 IDIUse=3 WtCom= 4.08D-01 WtEn= 5.92D-01
 Coeff-Com:  0.100D+01
 Coeff-En:   0.100D+01
 Coeff:      0.100D+01
 Gap=     0.233 Goal=   None    Shift=    0.000
 Gap=     0.103 Goal=   None    Shift=    0.000
 GapD=    0.103 DampG=1.000 DampE=0.500 DampFc=0.5000 IDamp=-1.
 Damping current iteration by 5.00D-01
 RMSDP=1.57D-02 MaxDP=1.81D-01              OVMax= 2.53D-01

 Cycle   2  Pass 0  IDiag  1:
 E= -95.5211328550206     Delta-E=       -0.020297758905 Rises=F Damp=T
 DIIS: error= 1.51D-02 at cycle   2 NSaved=   2.
 NSaved= 2 IEnMin= 2 EnMin= -95.5211328550206     IErMin= 2 ErrMin= 1.51D-02
 ErrMax= 1.51D-02  0.00D+00 EMaxC= 1.00D-01 BMatC= 2.39D-02 BMatP= 2.29D-01
 IDIUse=3 WtCom= 8.49D-01 WtEn= 1.51D-01
 Coeff-Com:  0.197D+00 0.803D+00
 Coeff-En:   0.327D+00 0.673D+00
 Coeff:      0.216D+00 0.784D+00
 Gap=     0.264 Goal=   None    Shift=    0.000
 Gap=     0.126 Goal=   None    Shift=    0.000
 RMSDP=4.45D-03 MaxDP=4.78D-02 DE=-2.03D-02 OVMax= 2.19D-01

 Cycle   3  Pass 0  IDiag  1:
 E= -95.5610181430223     Delta-E=       -0.039885288002 Rises=F Damp=F
 DIIS: error= 1.65D-02 at cycle   3 NSaved=   3.
 NSaved= 3 IEnMin= 3 EnMin= -95.5610181430223     IErMin= 2 ErrMin= 1.51D-02
 ErrMax= 1.65D-02  0.00D+00 EMaxC= 1.00D-01 BMatC= 2.06D-02 BMatP= 2.39D-02
 IDIUse=3 WtCom= 8.35D-01 WtEn= 1.65D-01
 Coeff-Com:  0.932D-01 0.496D+00 0.411D+00
 Coeff-En:   0.000D+00 0.000D+00 0.100D+01
 Coeff:      0.779D-01 0.414D+00 0.508D+00
 Gap=     0.262 Goal=   None    Shift=    0.000
 Gap=     0.123 Goal=   None    Shift=    0.000
 RMSDP=3.10D-03 MaxDP=3.23D-02 DE=-3.99D-02 OVMax= 9.09D-02

 Cycle   4  Pass 0  IDiag  1:
 E= -95.5653790196302     Delta-E=       -0.004360876608 Rises=F Damp=F
 DIIS: error= 8.10D-03 at cycle   4 NSaved=   4.
 NSaved= 4 IEnMin= 4 EnMin= -95.5653790196302     IErMin= 4 ErrMin= 8.10D-03
 ErrMax= 8.10D-03  0.00D+00 EMaxC= 1.00D-01 BMatC= 5.48D-03 BMatP= 2.06D-02
 IDIUse=3 WtCom= 9.19D-01 WtEn= 8.10D-02
 Coeff-Com:  0.233D-02-0.374D-01 0.332D+00 0.703D+00
 Coeff-En:   0.000D+00 0.000D+00 0.253D+00 0.747D+00
 Coeff:      0.214D-02-0.344D-01 0.326D+00 0.706D+00
 Gap=     0.258 Goal=   None    Shift=    0.000
 Gap=     0.128 Goal=   None    Shift=    0.000
 RMSDP=1.05D-03 MaxDP=1.30D-02 DE=-4.36D-03 OVMax= 2.71D-02

 Cycle   5  Pass 0  IDiag  1:
 E= -95.5668865699642     Delta-E=       -0.001507550334 Rises=F Damp=F
 DIIS: error= 4.70D-04 at cycle   5 NSaved=   5.
 NSaved= 5 IEnMin= 5 EnMin= -95.5668865699642     IErMin= 5 ErrMin= 4.70D-04
 ErrMax= 4.70D-04  0.00D+00 EMaxC= 1.00D-01 BMatC= 3.63D-05 BMatP= 5.48D-03
 IDIUse=3 WtCom= 9.95D-01 WtEn= 4.70D-03
 Coeff-Com: -0.524D-02-0.338D-01 0.614D-01 0.183D+00 0.794D+00
 Coeff-En:   0.000D+00 0.000D+00 0.000D+00 0.000D+00 0.100D+01
 Coeff:     -0.522D-02-0.336D-01 0.611D-01 0.183D+00 0.795D+00
 Gap=     0.259 Goal=   None    Shift=    0.000
 Gap=     0.128 Goal=   None    Shift=    0.000
 RMSDP=1.23D-04 MaxDP=1.34D-03 DE=-1.51D-03 OVMax= 1.69D-03

 Cycle   6  Pass 0  IDiag  1:
 E= -95.5668971633518     Delta-E=       -0.000010593388 Rises=F Damp=F
 DIIS: error= 1.68D-04 at cycle   6 NSaved=   6.
 NSaved= 6 IEnMin= 6 EnMin= -95.5668971633518     IErMin= 6 ErrMin= 1.68D-04
 ErrMax= 1.68D-04  0.00D+00 EMaxC= 1.00D-01 BMatC= 2.95D-06 BMatP= 3.63D-05
 IDIUse=3 WtCom= 9.98D-01 WtEn= 1.68D-03
 Coeff-Com: -0.108D-02-0.154D-02-0.170D-01-0.369D-01 0.170D+00 0.887D+00
 Coeff-En:   0.000D+00 0.000D+00 0.000D+00 0.000D+00 0.000D+00 0.100D+01
 Coeff:     -0.108D-02-0.153D-02-0.170D-01-0.368D-01 0.169D+00 0.887D+00
 Gap=     0.259 Goal=   None    Shift=    0.000
 Gap=     0.128 Goal=   None    Shift=    0.000
 RMSDP=4.00D-05 MaxDP=4.00D-04 DE=-1.06D-05 OVMax= 4.88D-04

 Cycle   7  Pass 0  IDiag  1:
 E= -95.5668981906162     Delta-E=       -0.000001027264 Rises=F Damp=F
 DIIS: error= 3.51D-05 at cycle   7 NSaved=   7.
 NSaved= 7 IEnMin= 7 EnMin= -95.5668981906162     IErMin= 7 ErrMin= 3.51D-05
 ErrMax= 3.51D-05  0.00D+00 EMaxC= 1.00D-01 BMatC= 7.90D-08 BMatP= 2.95D-06
 IDIUse=1 WtCom= 1.00D+00 WtEn= 0.00D+00
 Coeff-Com:  0.247D-04 0.109D-02-0.468D-02-0.112D-01-0.590D-02 0.140D+00
 Coeff-Com:  0.880D+00
 Coeff:      0.247D-04 0.109D-02-0.468D-02-0.112D-01-0.590D-02 0.140D+00
 Coeff:      0.880D+00
 Gap=     0.259 Goal=   None    Shift=    0.000
 Gap=     0.128 Goal=   None    Shift=    0.000
 RMSDP=6.64D-06 MaxDP=7.83D-05 DE=-1.03D-06 OVMax= 1.12D-04

 Initial convergence to 1.0D-05 achieved.  Increase integral accuracy.
 Cycle   8  Pass 1  IDiag  1:
 E= -95.5668984756011     Delta-E=       -0.000000284985 Rises=F Damp=F
 DIIS: error= 7.39D-06 at cycle   1 NSaved=   1.
 NSaved= 1 IEnMin= 1 EnMin= -95.5668984756011     IErMin= 1 ErrMin= 7.39D-06
 ErrMax= 7.39D-06  0.00D+00 EMaxC= 1.00D-01 BMatC= 6.63D-09 BMatP= 6.63D-09
 IDIUse=1 WtCom= 1.00D+00 WtEn= 0.00D+00
 Coeff-Com:  0.100D+01
 Coeff:      0.100D+01
 Gap=     0.259 Goal=   None    Shift=    0.000
 Gap=     0.128 Goal=   None    Shift=    0.000
 RMSDP=6.64D-06 MaxDP=7.83D-05 DE=-2.85D-07 OVMax= 8.69D-05

 Cycle   9  Pass 1  IDiag  1:
 E= -95.5668984753165     Delta-E=        0.000000000285 Rises=F Damp=F
 DIIS: error= 1.03D-05 at cycle   2 NSaved=   2.
 NSaved= 2 IEnMin= 1 EnMin= -95.5668984756011     IErMin= 1 ErrMin= 7.39D-06
 ErrMax= 1.03D-05  0.00D+00 EMaxC= 1.00D-01 BMatC= 9.27D-09 BMatP= 6.63D-09
 IDIUse=1 WtCom= 1.00D+00 WtEn= 0.00D+00
 Coeff-Com:  0.550D+00 0.450D+00
 Coeff:      0.550D+00 0.450D+00
 Gap=     0.259 Goal=   None    Shift=    0.000
 Gap=     0.128 Goal=   None    Shift=    0.000
 RMSDP=1.95D-06 MaxDP=2.28D-05 DE= 2.85D-10 OVMax= 6.27D-05

 Cycle  10  Pass 1  IDiag  1:
 E= -95.5668984775555     Delta-E=       -0.000000002239 Rises=F Damp=F
 DIIS: error= 5.34D-06 at cycle   3 NSaved=   3.
 NSaved= 3 IEnMin= 3 EnMin= -95.5668984775555     IErMin= 3 ErrMin= 5.34D-06
 ErrMax= 5.34D-06  0.00D+00 EMaxC= 1.00D-01 BMatC= 2.30D-09 BMatP= 6.63D-09
 IDIUse=1 WtCom= 1.00D+00 WtEn= 0.00D+00
 Coeff-Com:  0.215D+00 0.314D+00 0.470D+00
 Coeff:      0.215D+00 0.314D+00 0.470D+00
 Gap=     0.259 Goal=   None    Shift=    0.000
 Gap=     0.128 Goal=   None    Shift=    0.000
 RMSDP=6.91D-07 MaxDP=6.29D-06 DE=-2.24D-09 OVMax= 1.84D-05

 Cycle  11  Pass 1  IDiag  1:
 E= -95.5668984781978     Delta-E=       -0.000000000642 Rises=F Damp=F
 DIIS: error= 7.47D-07 at cycle   4 NSaved=   4.
 NSaved= 4 IEnMin= 4 EnMin= -95.5668984781978     IErMin= 4 ErrMin= 7.47D-07
 ErrMax= 7.47D-07  0.00D+00 EMaxC= 1.00D-01 BMatC= 3.80D-11 BMatP= 2.30D-09
 IDIUse=1 WtCom= 1.00D+00 WtEn= 0.00D+00
 Coeff-Com: -0.806D-01-0.654D-01 0.218D-01 0.112D+01
 Coeff:     -0.806D-01-0.654D-01 0.218D-01 0.112D+01
 Gap=     0.259 Goal=   None    Shift=    0.000
 Gap=     0.128 Goal=   None    Shift=    0.000
 RMSDP=1.70D-07 MaxDP=2.00D-06 DE=-6.42D-10 OVMax= 2.63D-06

 Cycle  12  Pass 1  IDiag  1:
 E= -95.5668984782145     Delta-E=       -0.000000000017 Rises=F Damp=F
 DIIS: error= 2.57D-07 at cycle   5 NSaved=   5.
 NSaved= 5 IEnMin= 5 EnMin= -95.5668984782145     IErMin= 5 ErrMin= 2.57D-07
 ErrMax= 2.57D-07  0.00D+00 EMaxC= 1.00D-01 BMatC= 6.35D-12 BMatP= 3.80D-11
 IDIUse=1 WtCom= 1.00D+00 WtEn= 0.00D+00
 Coeff-Com: -0.495D-01-0.490D-01-0.173D-01 0.517D+00 0.599D+00
 Coeff:     -0.495D-01-0.490D-01-0.173D-01 0.517D+00 0.599D+00
 Gap=     0.259 Goal=   None    Shift=    0.000
 Gap=     0.128 Goal=   None    Shift=    0.000
 RMSDP=3.97D-08 MaxDP=4.44D-07 DE=-1.67D-11 OVMax= 5.42D-07

 Cycle  13  Pass 1  IDiag  1:
 E= -95.5668984782163     Delta-E=       -0.000000000002 Rises=F Damp=F
 DIIS: error= 6.52D-08 at cycle   6 NSaved=   6.
 NSaved= 6 IEnMin= 6 EnMin= -95.5668984782163     IErMin= 6 ErrMin= 6.52D-08
 ErrMax= 6.52D-08  0.00D+00 EMaxC= 1.00D-01 BMatC= 3.41D-13 BMatP= 6.35D-12
 IDIUse=1 WtCom= 1.00D+00 WtEn= 0.00D+00
 Coeff-Com: -0.164D-01-0.174D-01-0.820D-02 0.154D+00 0.262D+00 0.627D+00
 Coeff:     -0.164D-01-0.174D-01-0.820D-02 0.154D+00 0.262D+00 0.627D+00
 Gap=     0.259 Goal=   None    Shift=    0.000
 Gap=     0.128 Goal=   None    Shift=    0.000
 RMSDP=1.02D-08 MaxDP=1.01D-07 DE=-1.85D-12 OVMax= 1.37D-07

 Cycle  14  Pass 1  IDiag  1:
 E= -95.5668984782163     Delta-E=        0.000000000000 Rises=F Damp=F
 DIIS: error= 7.98D-09 at cycle   7 NSaved=   7.
 NSaved= 7 IEnMin= 6 EnMin= -95.5668984782163     IErMin= 7 ErrMin= 7.98D-09
 ErrMax= 7.98D-09  0.00D+00 EMaxC= 1.00D-01 BMatC= 1.41D-14 BMatP= 3.41D-13
 IDIUse=1 WtCom= 1.00D+00 WtEn= 0.00D+00
 Coeff-Com:  0.170D-03-0.249D-03-0.563D-03-0.631D-02 0.187D-01 0.187D+00
 Coeff-Com:  0.802D+00
 Coeff:      0.170D-03-0.249D-03-0.563D-03-0.631D-02 0.187D-01 0.187D+00
 Coeff:      0.802D+00
 Gap=     0.259 Goal=   None    Shift=    0.000
 Gap=     0.128 Goal=   None    Shift=    0.000
 RMSDP=2.31D-09 MaxDP=2.60D-08 DE= 2.84D-14 OVMax= 2.60D-08

 SCF Done:  E(UPBE-PBE) =  -95.5668984782     A.U. after   14 cycles
            NFock= 14  Conv=0.23D-08     -V/T= 2.0046
 <Sx>= 0.0000 <Sy>= 0.0000 <Sz>= 1.0000 <S**2>= 2.0068 S= 1.0023
 <L.S>= 0.000000000000E+00
 KE= 9.512938686136D+01 PE=-2.894439515141D+02 EE= 6.528812124381D+01
 Annihilation of the first spin contaminant:
 S**2 before annihilation     2.0068,   after     2.0000
 Leave Link  502 at Wed Oct  7 16:12:41 2020, MaxMem=  2684354560 cpu:              26.4 elap:               2.8
 (Enter /udrive/faculty/rpeverati/g16/g16/l508.exe)
 QCSCF skips out because SCF is already converged.
 Leave Link  508 at Wed Oct  7 16:12:42 2020, MaxMem=  2684354560 cpu:               1.0 elap:               0.4
 (Enter /udrive/faculty/rpeverati/g16/g16/l601.exe)
 Copying SCF densities to generalized density rwf, IOpCl= 1 IROHF=0.

 **********************************************************************

            Population analysis using the SCF density.

 **********************************************************************

 Orbital symmetries:
 Alpha Orbitals:
       Occupied  (A) (A) (A) (A) (A) (A) (A) (A) (A) (A)
       Virtual   (A) (A) (A) (A) (A) (A) (A) (A) (A) (A) (A) (A)
                 (A) (A) (A) (A) (A) (A) (A) (A) (A) (A) (A) (A)
                 (A) (A) (A) (A)
 Beta  Orbitals:
       Occupied  (A) (A) (A) (A) (A) (A) (A) (A)
       Virtual   (A) (A) (A) (A) (A) (A) (A) (A) (A) (A) (A) (A)
                 (A) (A) (A) (A) (A) (A) (A) (A) (A) (A) (A) (A)
                 (A) (A) (A) (A) (A) (A)
 The electronic state is 3-A.
 Alpha  occ. eigenvalues --  -14.03088  -9.89113  -0.76435  -0.62656  -0.40829
 Alpha  occ. eigenvalues --   -0.36733  -0.36601  -0.30297  -0.25931  -0.18658
 Alpha virt. eigenvalues --    0.07212   0.10480   0.14372   0.14563   0.24943
 Alpha virt. eigenvalues --    0.46992   0.47191   0.51158   0.64306   0.64797
 Alpha virt. eigenvalues --    0.68062   0.78865   0.84537   0.84713   0.85402
 Alpha virt. eigenvalues --    0.89976   1.10089   1.35792   1.56519   1.57215
 Alpha virt. eigenvalues --    1.58723   1.60102   1.60130   1.78401   2.11244
 Alpha virt. eigenvalues --    2.14498   2.16704   2.31096
  Beta  occ. eigenvalues --  -14.00356  -9.88225  -0.70002  -0.60425  -0.38101
  Beta  occ. eigenvalues --   -0.36014  -0.35811  -0.26174
  Beta virt. eigenvalues --   -0.13413  -0.11821   0.08364   0.11531   0.15001
  Beta virt. eigenvalues --    0.15180   0.27509   0.47947   0.48700   0.55272
  Beta virt. eigenvalues --    0.68451   0.69907   0.72473   0.80472   0.85366
  Beta virt. eigenvalues --    0.85432   0.87432   0.91919   1.13994   1.39793
  Beta virt. eigenvalues --    1.60437   1.61172   1.65379   1.66556   1.70804
  Beta virt. eigenvalues --    1.84851   2.14889   2.16067   2.21078   2.35611
          Condensed to atoms (all electrons):
               1          2          3          4          5          6
     1  C    5.469913  -0.103408   0.365670   0.365640   0.369378   0.188199
     2  N   -0.103408   7.223923   0.001136   0.001148   0.000906   0.147182
     3  H    0.365670   0.001136   0.507355  -0.026038  -0.025387  -0.010692
     4  H    0.365640   0.001148  -0.026038   0.508211  -0.025457  -0.010833
     5  H    0.369378   0.000906  -0.025387  -0.025457   0.492412  -0.009444
     6  H    0.188199   0.147182  -0.010692  -0.010833  -0.009444   0.439252
     7  H    0.016452   0.218623  -0.000622  -0.000677   0.000105  -0.040982
               7
     1  C    0.016452
     2  N    0.218623
     3  H   -0.000622
     4  H   -0.000677
     5  H    0.000105
     6  H   -0.040982
     7  H    0.517138
          Atomic-Atomic Spin Densities.
               1          2          3          4          5          6
     1  C    0.749218  -0.113619  -0.013452  -0.013265  -0.016621   0.032784
     2  N   -0.113619   1.702871   0.002660   0.002709   0.003532  -0.041573
     3  H   -0.013452   0.002660  -0.013452   0.002168   0.003197   0.000505
     4  H   -0.013265   0.002709   0.002168  -0.013983   0.003237   0.000521
     5  H   -0.016621   0.003532   0.003197   0.003237  -0.011180   0.000204
     6  H    0.032784  -0.041573   0.000505   0.000521   0.000204  -0.071485
     7  H    0.005312  -0.015708  -0.000216  -0.000222  -0.000137   0.007145
               7
     1  C    0.005312
     2  N   -0.015708
     3  H   -0.000216
     4  H   -0.000222
     5  H   -0.000137
     6  H    0.007145
     7  H   -0.040309
 Mulliken charges and spin densities:
               1          2
     1  C   -0.671844   0.630357
     2  N   -0.489509   1.540871
     3  H    0.188579  -0.018591
     4  H    0.188007  -0.018835
     5  H    0.197488  -0.017769
     6  H    0.297318  -0.071898
     7  H    0.289961  -0.044135
 Sum of Mulliken charges =   0.00000   2.00000
 Mulliken charges and spin densities with hydrogens summed into heavy atoms:
               1          2
     1  C   -0.097770   0.575162
     2  N    0.097770   1.424838
 Electronic spatial extent (au):  <R**2>=            159.6304
 Charge=             -0.0000 electrons
 Dipole moment (field-independent basis, Debye):
    X=             -0.9395    Y=             -1.4059    Z=              0.0005  Tot=              1.6909
 Quadrupole moment (field-independent basis, Debye-Ang):
   XX=            -16.2914   YY=            -13.8407   ZZ=            -14.1802
   XY=             -2.6488   XZ=             -0.0008   YZ=             -0.0021
 Traceless Quadrupole moment (field-independent basis, Debye-Ang):
   XX=             -1.5206   YY=              0.9301   ZZ=              0.5906
   XY=             -2.6488   XZ=             -0.0008   YZ=             -0.0021
 Octapole moment (field-independent basis, Debye-Ang**2):
  XXX=             -0.1306  YYY=             -0.9217  ZZZ=              0.0973  XYY=              0.1775
  XXY=             -4.1712  XXZ=              0.0039  XZZ=             -0.1926  YZZ=             -1.0147
  YYZ=             -0.0975  XYZ=              0.0114
 Hexadecapole moment (field-independent basis, Debye-Ang**3):
 XXXX=           -176.7098 YYYY=            -23.3156 ZZZZ=            -19.7423 XXXY=             -8.8326
 XXXZ=             -0.0053 YYYX=             -4.2042 YYYZ=              0.0038 ZZZX=             -0.1526
 ZZZY=             -0.0060 XXYY=            -29.5869 XXZZ=            -30.0781 YYZZ=             -7.2828
 XXYZ=             -0.0282 YYXZ=              0.1499 ZZXY=              0.6123
 N-N= 3.345954493075D+01 E-N=-2.894439511794D+02  KE= 9.512938686136D+01
                          Isotropic Fermi Contact Couplings
        Atom                 a.u.       MegaHertz       Gauss      10(-4) cm-1
     1  C(13)              0.16753      94.16773      33.60139      31.41097
     2  N(14)              0.16919      27.33340       9.75324       9.11744
     3  H(1)              -0.00528     -11.79571      -4.20900      -3.93463
     4  H(1)              -0.00541     -12.08619      -4.31265      -4.03152
     5  H(1)              -0.00541     -12.08531      -4.31234      -4.03122
     6  H(1)              -0.02878     -64.32043     -22.95113     -21.45499
     7  H(1)              -0.01960     -43.80570     -15.63096     -14.61201
 --------------------------------------------------------
       Center         ----  Spin Dipole Couplings  ----
                      3XX-RR        3YY-RR        3ZZ-RR
 --------------------------------------------------------
     1   Atom        0.673803     -0.338553     -0.335250
     2   Atom        0.086805     -1.585094      1.498290
     3   Atom        0.007864     -0.027929      0.020066
     4   Atom        0.007669     -0.021298      0.013629
     5   Atom        0.010301      0.036569     -0.046870
     6   Atom        0.304539     -0.171658     -0.132881
     7   Atom       -0.097034      0.173624     -0.076590
 --------------------------------------------------------
                        XY            XZ            YZ
 --------------------------------------------------------
     1   Atom        0.053587      0.000964      0.000102
     2   Atom        0.287055      0.001285      0.000019
     3   Atom        0.011994     -0.015991     -0.036465
     4   Atom        0.013143      0.014881      0.040069
     5   Atom       -0.021625      0.001080     -0.003686
     6   Atom        0.001259     -0.000147      0.000032
     7   Atom       -0.058884      0.000029      0.000019
 --------------------------------------------------------


 ---------------------------------------------------------------------------------
              Anisotropic Spin Dipole Couplings in Principal Axis System
 ---------------------------------------------------------------------------------

       Atom             a.u.   MegaHertz   Gauss  10(-4) cm-1        Axes

              Baa    -0.3414   -45.810   -16.346   -15.281 -0.0527  0.9986 -0.0084
     1 C(13)  Bbb    -0.3353   -44.987   -16.053   -15.006 -0.0014  0.0083  1.0000
              Bcc     0.6766    90.798    32.399    30.287  0.9986  0.0527  0.0010
 
              Baa    -1.6330   -62.981   -22.473   -21.008 -0.1646  0.9864  0.0001
     2 N(14)  Bbb     0.1347     5.196     1.854     1.733  0.9864  0.1646 -0.0009
              Bcc     1.4983    57.786    20.619    19.275  0.0009  0.0001  1.0000
 
              Baa    -0.0478   -25.481    -9.092    -8.500 -0.0580  0.8849  0.4621
     3 H(1)   Bbb    -0.0014    -0.768    -0.274    -0.256  0.8999 -0.1541  0.4079
              Bcc     0.0492    26.249     9.366     8.756 -0.4322 -0.4395  0.7874
 
              Baa    -0.0477   -25.452    -9.082    -8.490 -0.0557  0.8420 -0.5366
     4 H(1)   Bbb    -0.0015    -0.795    -0.284    -0.265  0.9019 -0.1882 -0.3889
              Bcc     0.0492    26.247     9.365     8.755  0.4284  0.5056  0.7489
 
              Baa    -0.0470   -25.094    -8.954    -8.371 -0.0024  0.0434  0.9991
     5 H(1)   Bbb    -0.0018    -0.987    -0.352    -0.329  0.8721  0.4890 -0.0191
              Bcc     0.0489    26.081     9.306     8.700 -0.4894  0.8712 -0.0391
 
              Baa    -0.1717   -91.590   -32.682   -30.551 -0.0026  1.0000 -0.0008
     6 H(1)   Bbb    -0.1329   -70.899   -25.299   -23.649  0.0003  0.0008  1.0000
              Bcc     0.3045   162.489    57.980    54.201  1.0000  0.0026 -0.0003
 
              Baa    -0.1093   -58.312   -20.807   -19.451  0.9790  0.2038 -0.0010
     7 H(1)   Bbb    -0.0766   -40.865   -14.581   -13.631  0.0010  0.0002  1.0000
              Bcc     0.1859    99.177    35.389    33.082 -0.2038  0.9790  0.0000
 

 ---------------------------------------------------------------------------------

 No NMR shielding tensors so no spin-rotation constants.
 Leave Link  601 at Wed Oct  7 16:12:43 2020, MaxMem=  2684354560 cpu:               4.5 elap:               0.8
 (Enter /udrive/faculty/rpeverati/g16/g16/l701.exe)
 ... and contract with generalized density number  0.
 Compute integral first derivatives.
 Leave Link  701 at Wed Oct  7 16:12:44 2020, MaxMem=  2684354560 cpu:               3.2 elap:               0.6
 (Enter /udrive/faculty/rpeverati/g16/g16/l702.exe)
 L702 exits ... SP integral derivatives will be done elsewhere.
 Leave Link  702 at Wed Oct  7 16:12:45 2020, MaxMem=  2684354560 cpu:               1.2 elap:               0.6
 (Enter /udrive/faculty/rpeverati/g16/g16/l703.exe)
 Integral derivatives from FoFJK, PRISM(SPDF).
 Compute integral first derivatives, UseDBF=F ICtDFT=           0.
 Calling FoFJK, ICntrl=      2527 FMM=F ISym2X=0 I1Cent= 0 IOpClX= 0 NMat=1 NMatS=1 NMatT=0.
 FoFJK:  IHMeth= 1 ICntrl=    2527 DoSepK=F KAlg= 0 I1Cent=           0 FoldK=F
 IRaf=         0 NMat=       1 IRICut=       1 DoRegI=T DoRafI=F ISym2E= 0 IDoP0=0 IntGTp=1.
 FoFCou: FMM=F IPFlag=           0 FMFlag=      100000 FMFlg1=         800
         NFxFlg=           0 DoJE=F BraDBF=F KetDBF=F FulRan=T
         wScrn=  0.000000 ICntrl=      2527 IOpCl=  0 I1Cent=           0 NGrid=           0
         NMat0=    1 NMatS0=      1 NMatT0=    0 NMatD0=    1 NMtDS0=    0 NMtDT0=    0
 Symmetry not used in FoFCou.
 Leave Link  703 at Wed Oct  7 16:12:46 2020, MaxMem=  2684354560 cpu:               7.2 elap:               0.9
 (Enter /udrive/faculty/rpeverati/g16/g16/l716.exe)
 Dipole        =-3.69618036D-01-5.53118911D-01 2.02215395D-04
 ***** Axes restored to original set *****
 -------------------------------------------------------------------
 Center     Atomic                   Forces (Hartrees/Bohr)
 Number     Number              X              Y              Z
 -------------------------------------------------------------------
      1        6           0.010490509   -0.000484549   -0.000009221
      2        7           0.006083991    0.011736374    0.000015841
      3        1          -0.002806687   -0.004193647    0.007791981
      4        1          -0.002801597   -0.004844418   -0.007414184
      5        1          -0.003192000    0.008423848   -0.000367155
      6        1          -0.011385457    0.003269506   -0.000020496
      7        1           0.003611241   -0.013907114    0.000003235
 -------------------------------------------------------------------
 Cartesian Forces:  Max     0.013907114 RMS     0.006493816
 Leave Link  716 at Wed Oct  7 16:12:47 2020, MaxMem=  2684354560 cpu:               1.5 elap:               0.5
 (Enter /udrive/faculty/rpeverati/g16/g16/l103.exe)

 GradGradGradGradGradGradGradGradGradGradGradGradGradGradGradGradGradGrad
 Berny optimization.
 Optmz: redundant internal coordinate code flag= 1
 FormGI is forming the generalized inverse of G from B-inverse, IUseBI=4.
 Internal  Forces:  Max     0.014311601 RMS     0.005632528
 Search for a saddle point.
 Step number   1 out of a maximum of   50
 All quantities printed in internal units (Hartrees-Bohrs-Radians)
 Swapping is turned off.
 Second derivative matrix not updated -- first step.
 The second derivative matrix:
                          R1        R2        R3        R4        R5
           R1           0.35572
           R2           0.00000   0.35574
           R3           0.00000   0.00000   0.35577
           R4           0.00000   0.00000   0.00000   0.14538
           R5           0.00000   0.00000   0.00000   0.00000   0.23824
           R6           0.00000   0.00000   0.00000   0.00000   0.00000
           A1           0.00000   0.00000   0.00000   0.00000   0.00000
           A2           0.00000   0.00000   0.00000   0.00000   0.00000
           A3           0.00000   0.00000   0.00000   0.00000   0.00000
           A4           0.00000   0.00000   0.00000   0.00000   0.00000
           A5           0.00000   0.00000   0.00000   0.00000   0.00000
           A6           0.00000   0.00000   0.00000   0.00000   0.00000
           A7           0.00000   0.00000   0.00000   0.00000   0.00000
           A8           0.00000   0.00000   0.00000   0.00000   0.00000
           A9           0.00000   0.00000   0.00000   0.00000   0.00000
           D1           0.00000   0.00000   0.00000   0.00000   0.00000
           D2           0.00000   0.00000   0.00000   0.00000   0.00000
           D3           0.00000   0.00000   0.00000   0.00000   0.00000
                          R6        A1        A2        A3        A4
           R6           0.42542
           A1           0.00000   0.16000
           A2           0.00000   0.00000   0.16000
           A3           0.00000   0.00000   0.00000   0.16000
           A4           0.00000   0.00000   0.00000   0.00000   0.16000
           A5           0.00000   0.00000   0.00000   0.00000   0.00000
           A6           0.00000   0.00000   0.00000   0.00000   0.00000
           A7           0.00000   0.00000   0.00000   0.00000   0.00000
           A8           0.00000   0.00000   0.00000   0.00000   0.00000
           A9           0.00000   0.00000   0.00000   0.00000   0.00000
           D1           0.00000   0.00000   0.00000   0.00000   0.00000
           D2           0.00000   0.00000   0.00000   0.00000   0.00000
           D3           0.00000   0.00000   0.00000   0.00000   0.00000
                          A5        A6        A7        A8        A9
           A5           0.16000
           A6           0.00000   0.16000
           A7           0.00000   0.00000   0.16000
           A8           0.00000   0.00000   0.00000   0.00230
           A9           0.00000   0.00000   0.00000   0.00000   0.00230
           D1           0.00000   0.00000   0.00000   0.00000   0.00000
           D2           0.00000   0.00000   0.00000   0.00000   0.00000
           D3           0.00000   0.00000   0.00000   0.00000   0.00000
                          D1        D2        D3
           D1           0.00230
           D2           0.00000   0.00230
           D3           0.00000   0.00000   0.00230
 ITU=  0
 Eigenvectors of the second derivative matrix:
                           1         2         3         4         5
     Eigenvalues --     0.00230   0.00230   0.00230   0.10985   0.10997
   1         R1         0.00000   0.00000   0.00000   0.00000  -0.00000
   2         R2        -0.00000  -0.00000   0.00000  -0.00000  -0.00000
   3         R3        -0.00000  -0.00000   0.00000   0.00000   0.00000
   4         R4        -0.00000  -0.00000  -0.00000  -0.00050  -0.00452
   5         R5         0.00000   0.00000  -0.00000   0.00014   0.00144
   6         R6         0.00000   0.00000  -0.00000   0.00001  -0.00000
   7         A1        -0.00000  -0.00000  -0.00000  -0.02958  -0.62902
   8         A2        -0.00000   0.00000   0.00000   0.55882   0.29210
   9         A3         0.00000   0.00000   0.00000   0.20500  -0.12154
  10         A4        -0.00000   0.00000   0.00000  -0.52953   0.34380
  11         A5        -0.00000   0.00000  -0.00000  -0.21505  -0.10280
  12         A6         0.00000  -0.00000   0.00000   0.01253   0.24131
  13         A7        -0.00000  -0.00000  -0.00000  -0.00014   0.00001
  14         A8        -0.00537  -0.00225  -0.99081   0.00736   0.07576
  15         A9        -0.98062   0.17215   0.00504   0.05248  -0.00460
  16         D1         0.06345   0.57175  -0.09981  -0.24997  -0.38309
  17         D2         0.05913   0.57251   0.09108  -0.21301   0.40527
  18         D3         0.17561   0.56186   0.00324   0.45536  -0.02141
                           6         7         8         9        10
     Eigenvalues --     0.14538   0.16000   0.16000   0.16000   0.16000
   1         R1         0.00000  -0.00000   0.00000  -0.00000   0.00000
   2         R2        -0.00000   0.00000  -0.00000  -0.00000  -0.00000
   3         R3         0.00000  -0.00000  -0.00000   0.00000   0.00000
   4         R4        -0.99999   0.00000  -0.00000   0.00000   0.00000
   5         R5        -0.00000  -0.00000  -0.00000  -0.00000   0.00000
   6         R6        -0.00000   0.00000  -0.00000  -0.00000   0.00000
   7         A1         0.00380   0.35529  -0.01153   0.24663  -0.11291
   8         A2        -0.00213   0.18215   0.36527   0.14681   0.14700
   9         A3         0.00059  -0.50964  -0.58185  -0.19486   0.39697
  10         A4        -0.00171   0.15538  -0.09586   0.25042   0.33446
  11         A5         0.00076  -0.44207   0.61074  -0.46527  -0.09374
  12         A6        -0.00146   0.03921  -0.36852  -0.18792  -0.78879
  13         A7         0.00000   0.59979  -0.09944  -0.75176   0.25537
  14         A8        -0.00010  -0.00000   0.00000   0.00000   0.00000
  15         A9        -0.00000  -0.00000  -0.00000  -0.00000  -0.00000
  16         D1         0.00054   0.00000   0.00000  -0.00000   0.00000
  17         D2        -0.00050   0.00000  -0.00000  -0.00000  -0.00000
  18         D3        -0.00004   0.00000  -0.00000   0.00000  -0.00000
                          11        12        13        14        15
     Eigenvalues --     0.23824   0.35572   0.35574   0.35577   0.42542
   1         R1         0.00000  -1.00000   0.00000   0.00000   0.00000
   2         R2         0.00000  -0.00000  -1.00000  -0.00000   0.00000
   3         R3        -0.00000   0.00000  -0.00000   1.00000   0.00000
   4         R4        -0.00001   0.00000   0.00000   0.00000   0.00000
   5         R5        -1.00000  -0.00000  -0.00000  -0.00000  -0.00000
   6         R6        -0.00000   0.00000   0.00000  -0.00000   1.00000
   7         A1        -0.00199   0.00000   0.00000   0.00000  -0.00000
   8         A2         0.00109   0.00000  -0.00000  -0.00000  -0.00002
   9         A3        -0.00032   0.00000   0.00000  -0.00000  -0.00001
  10         A4         0.00092  -0.00000  -0.00000   0.00000   0.00002
  11         A5        -0.00039   0.00000  -0.00000   0.00000   0.00001
  12         A6         0.00076  -0.00000   0.00000  -0.00000   0.00000
  13         A7        -0.00000   0.00000   0.00000   0.00000   0.00000
  14         A8        -0.00017  -0.00000  -0.00000  -0.00000   0.00000
  15         A9        -0.00000   0.00000   0.00000   0.00000   0.00000
  16         D1         0.00092   0.00000   0.00000   0.00000  -0.00001
  17         D2        -0.00086  -0.00000   0.00000  -0.00000  -0.00001
  18         D3        -0.00005   0.00000  -0.00000  -0.00000   0.00002
 Eigenvalue     1 is   2.30D-03 should be less than     0.000000 Eigenvector:
                          A9        D3        D1        D2        A8
   1                   -0.98062   0.17561   0.06345   0.05913  -0.00537
                          A3        A6        A4        A2        A7
   1                    0.00000   0.00000  -0.00000  -0.00000  -0.00000
 RLam0= 2.30D-03.
 Iter=   1 RLamda= 0.00000000D+00 Sum=-4.42665275D-03.
 Iter=   2 RLamda=-4.42665275D-03 Sum=-2.59211549D-03.
 Iter=   3 RLamda=-2.59211549D-03 Sum=-2.95460307D-03.
 Iter=   4 RLamda=-2.95460307D-03 Sum=-2.86343515D-03.
 Iter=   5 RLamda=-2.86343515D-03 Sum=-2.88518434D-03.
 Iter=   6 RLamda=-2.88518434D-03 Sum=-2.87992785D-03.
 Iter=   7 RLamda=-2.87992785D-03 Sum=-2.88119432D-03.
 Iter=   8 RLamda=-2.88119432D-03 Sum=-2.88088895D-03.
 Iter=   9 RLamda=-2.88088895D-03 Sum=-2.88096257D-03.
 Iter=  10 RLamda=-2.88096257D-03 Sum=-2.88094482D-03.
 Iter=  11 RLamda=-2.88094482D-03 Sum=-2.88094910D-03.
 RFO step:  Lambda0=2.300437129D-03 Lambda=-2.88094482D-03.
 Linear search not attempted -- option 19 set.
 Maximum step size (   0.100) exceeded in Quadratic search.
    -- Step size scaled by   0.146
 Iteration  1 RMS(Cart)=  0.03586554 RMS(Int)=  0.00156785
 Iteration  2 RMS(Cart)=  0.00179191 RMS(Int)=  0.00022246
 Iteration  3 RMS(Cart)=  0.00000336 RMS(Int)=  0.00022244
 Iteration  4 RMS(Cart)=  0.00000000 RMS(Int)=  0.00022244
 ITry= 1 IFail=0 DXMaxC= 7.69D-02 DCOld= 1.00D+10 DXMaxT= 1.00D-01 DXLimC= 3.00D+00 Rises=F
 Variable       Old X    -DE/DX   Delta X   Delta X   Delta X     New X
                                 (Linear)    (Quad)   (Total)
    R1        2.04757   0.00924   0.00000   0.00376   0.00376   2.05133
    R2        2.04753   0.00924   0.00000   0.00376   0.00376   2.05130
    R3        2.04748   0.00900   0.00000   0.00366   0.00366   2.05114
    R4        2.63682  -0.00157   0.00000  -0.00155  -0.00155   2.63527
    R5        2.28996   0.00969   0.00000   0.00587   0.00587   2.29583
    R6        1.94939   0.01431   0.00000   0.00488   0.00488   1.95427
    A1        1.99899  -0.00063   0.00000  -0.00046  -0.00056   1.99843
    A2        2.00015  -0.00087   0.00000  -0.00084  -0.00112   1.99903
    A3        1.82733   0.00125   0.00000   0.00114   0.00098   1.82831
    A4        2.00011  -0.00086   0.00000  -0.00082  -0.00043   1.99969
    A5        1.82961   0.00136   0.00000   0.00124   0.00136   1.83097
    A6        1.77230   0.00048   0.00000   0.00039   0.00041   1.77271
    A7        1.73353   0.00249   0.00000   0.00223   0.00223   1.73576
    A8        3.04496  -0.00253   0.00000  -0.07068  -0.07068   2.97428
    A9        3.13927   0.00004   0.00000  -0.06993  -0.06985   3.06942
    D1        1.08834  -0.00008   0.00000  -0.00227  -0.00244   1.08590
    D2       -1.00215   0.00007   0.00000   0.01051   0.01006  -0.99209
    D3       -3.09797  -0.00001   0.00000   0.01283   0.01343  -3.08454
         Item               Value     Threshold  Converged?
 Maximum Force            0.014312     0.000450     NO 
 RMS     Force            0.005633     0.000300     NO 
 Maximum Displacement     0.076906     0.001800     NO 
 RMS     Displacement     0.036326     0.001200     NO 
 Predicted change in Energy=-3.890600D-04
 Lowest energy point so far.  Saving SCF results.
 Largest change from initial coordinates is atom    6       0.042 Angstoms.
 GradGradGradGradGradGradGradGradGradGradGradGradGradGradGradGradGradGrad

 Leave Link  103 at Wed Oct  7 16:12:47 2020, MaxMem=  2684354560 cpu:               4.1 elap:               0.7
 (Enter /udrive/faculty/rpeverati/g16/g16/l202.exe)
                          Input orientation:                          
 ---------------------------------------------------------------------
 Center     Atomic      Atomic             Coordinates (Angstroms)
 Number     Number       Type             X           Y           Z
 ---------------------------------------------------------------------
      1          6           0       -1.191648   -0.009121    0.002918
      2          7           0        1.404702    0.120382   -0.011806
      3          1           0       -1.423236   -0.514244    0.935421
      4          1           0       -1.381167   -0.599559   -0.888022
      5          1           0       -1.541196    1.016963   -0.052772
      6          1           0        0.191397    0.167593    0.028691
      7          1           0        1.534745   -0.905559   -0.014370
 ---------------------------------------------------------------------
                    Distance matrix (angstroms):
                    1          2          3          4          5
     1  C    0.000000
     2  N    2.599619   0.000000
     3  H    1.085516   3.049135   0.000000
     4  H    1.085500   3.007846   1.825923   0.000000
     5  H    1.085418   3.079586   1.826207   1.826580   0.000000
     6  H    1.394527   1.214898   1.973348   1.975308   1.931306
     7  H    2.870038   1.034153   3.131275   3.059322   3.627530
                    6          7
     6  H    0.000000
     7  H    1.719911   0.000000
 Stoichiometry    CH5N(3)
 Framework group  C1[X(CH5N)]
 Deg. of freedom    15
 Full point group                 C1      NOp   1
 RotChk:  IX=3 Diff= 1.24D-02
 Largest Abelian subgroup         C1      NOp   1
 Largest concise Abelian subgroup C1      NOp   1
                         Standard orientation:                         
 ---------------------------------------------------------------------
 Center     Atomic      Atomic             Coordinates (Angstroms)
 Number     Number       Type             X           Y           Z
 ---------------------------------------------------------------------
      1          6           0       -1.195158   -0.011402   -0.001101
      2          7           0        1.400684    0.128701   -0.000876
      3          1           0       -1.430293   -0.512940    0.932448
      4          1           0       -1.376897   -0.606932   -0.890272
      5          1           0       -1.548550    1.012954   -0.063893
      6          1           0        0.186974    0.171120    0.032109
      7          1           0        1.534926   -0.896697    0.002347
 ---------------------------------------------------------------------
 Rotational constants (GHZ):         115.6345326           9.2048310           9.0385545
 Leave Link  202 at Wed Oct  7 16:12:48 2020, MaxMem=  2684354560 cpu:               1.3 elap:               0.4
 (Enter /udrive/faculty/rpeverati/g16/g16/l301.exe)
 Standard basis: 6-31G(d) (5D, 7F)
 Ernie: Thresh=  0.10000D-02 Tol=  0.10000D-05 Strict=F.
 There are    40 symmetry adapted cartesian basis functions of A   symmetry.
 There are    38 symmetry adapted basis functions of A   symmetry.
    38 basis functions,    76 primitive gaussians,    40 cartesian basis functions
    10 alpha electrons        8 beta electrons
       nuclear repulsion energy        33.4627013950 Hartrees.
 IExCor= 1009 DFT=T Ex=PBE Corr=PBE ExCW=0 ScaHFX=  0.000000
 ScaDFX=  1.000000  1.000000  1.000000  1.000000 ScalE2=  1.000000  1.000000
 IRadAn=      5 IRanWt=     -1 IRanGd=            0 ICorTp=0 IEmpDi=  4
 NAtoms=    7 NActive=    7 NUniq=    7 SFac= 1.00D+00 NAtFMM=   60 NAOKFM=F Big=F
 Integral buffers will be    131072 words long.
 Raffenetti 2 integral format.
 Two-electron integral symmetry is turned on.
 Leave Link  301 at Wed Oct  7 16:12:49 2020, MaxMem=  2684354560 cpu:               2.0 elap:               0.5
 (Enter /udrive/faculty/rpeverati/g16/g16/l302.exe)
 NPDir=0 NMtPBC=     1 NCelOv=     1 NCel=       1 NClECP=     1 NCelD=      1
         NCelK=      1 NCelE2=     1 NClLst=     1 CellRange=     0.0.
 One-electron integrals computed using PRISM.
 One-electron integral symmetry used in STVInt
 NBasis=    38 RedAO= T EigKep=  9.62D-03  NBF=    38
 NBsUse=    38 1.00D-06 EigRej= -1.00D+00 NBFU=    38
 Precomputing XC quadrature grid using
 IXCGrd= 4 IRadAn=           5 IRanWt=          -1 IRanGd=           0 AccXCQ= 0.00D+00.
 Generated NRdTot=       0 NPtTot=           0 NUsed=           0 NTot=          32
 NSgBfM=    40    40    40    40    40 MxSgAt=     7 MxSgA2=     7.
 Leave Link  302 at Wed Oct  7 16:12:50 2020, MaxMem=  2684354560 cpu:               3.2 elap:               0.6
 (Enter /udrive/faculty/rpeverati/g16/g16/l303.exe)
 DipDrv:  MaxL=1.
 Leave Link  303 at Wed Oct  7 16:12:51 2020, MaxMem=  2684354560 cpu:               1.2 elap:               0.4
 (Enter /udrive/faculty/rpeverati/g16/g16/l401.exe)
 Initial guess from the checkpoint file:  "MN_92_RKT18_BH76_PBE_631Gs.chk"
 SCF N**3 symmetry information disabled.
 B after Tr=    -0.000000    0.000000   -0.000000
         Rot=    0.999993    0.003544    0.001225   -0.000645 Ang=   0.44 deg.
 Guess basis will be translated and rotated to current coordinates.
 JPrj=2 DoOrth=T DoCkMO=T.
 Initial guess <Sx>= 0.0000 <Sy>= 0.0000 <Sz>= 1.0000 <S**2>= 2.0068 S= 1.0023
 Generating alternative initial guess.
 ExpMin= 1.61D-01 ExpMax= 4.17D+03 ExpMxC= 6.27D+02 IAcc=2 IRadAn=         4 AccDes= 0.00D+00
 Harris functional with IExCor= 1009 and IRadAn=       4 diagonalized for initial guess.
 HarFok:  IExCor= 1009 AccDes= 0.00D+00 IRadAn=         4 IDoV= 1 UseB2=F ITyADJ=14
 ICtDFT=  3500011 ScaDFX=  1.000000  1.000000  1.000000  1.000000
 FoFCou: FMM=F IPFlag=           0 FMFlag=      100000 FMFlg1=           0
         NFxFlg=           0 DoJE=T BraDBF=F KetDBF=T FulRan=T
         wScrn=  0.000000 ICntrl=       500 IOpCl=  0 I1Cent=   200000004 NGrid=           0
         NMat0=    1 NMatS0=      1 NMatT0=    0 NMatD0=    1 NMtDS0=    0 NMtDT0=    0
 Petite list used in FoFCou.
 Harris En= -95.5632365704897    
 Leave Link  401 at Wed Oct  7 16:12:52 2020, MaxMem=  2684354560 cpu:               6.3 elap:               0.9
 (Enter /udrive/faculty/rpeverati/g16/g16/l502.exe)
 Keep J ints in memory in canonical form, NReq=10631630.
 FoFCou: FMM=F IPFlag=           0 FMFlag=           0 FMFlg1=           0
         NFxFlg=           0 DoJE=F BraDBF=F KetDBF=F FulRan=T
         wScrn=  0.000000 ICntrl=       600 IOpCl=  0 I1Cent=           0 NGrid=           0
         NMat0=    1 NMatS0=    741 NMatT0=    0 NMatD0=    1 NMtDS0=    0 NMtDT0=    0
 Symmetry not used in FoFCou.
 Two-electron integral symmetry not used.
 UHF open shell SCF:
 Using DIIS extrapolation, IDIIS=  1040.
 NGot=  2684354560 LenX=  2684075284 LenY=  2684073243
 Requested convergence on RMS density matrix=1.00D-08 within 120 cycles.
 Requested convergence on MAX density matrix=1.00D-06.
 Requested convergence on             energy=1.00D-06.
 No special actions if energy rises.
 Integral accuracy reduced to 1.0D-05 until final iterations.

 Cycle   1  Pass 0  IDiag  1:
 E= -95.5665691598099    
 DIIS: error= 2.82D-03 at cycle   1 NSaved=   1.
 NSaved= 1 IEnMin= 1 EnMin= -95.5665691598099     IErMin= 1 ErrMin= 2.82D-03
 ErrMax= 2.82D-03  0.00D+00 EMaxC= 1.00D-01 BMatC= 1.18D-03 BMatP= 1.18D-03
 IDIUse=3 WtCom= 9.72D-01 WtEn= 2.82D-02
 Coeff-Com:  0.100D+01
 Coeff-En:   0.100D+01
 Coeff:      0.100D+01
 Gap=     0.427 Goal=   None    Shift=    0.000
 Gap=     0.541 Goal=   None    Shift=    0.000
 GapD=    0.427 DampG=2.000 DampE=1.000 DampFc=2.0000 IDamp=-1.
 RMSDP=1.17D-03 MaxDP=1.00D-02              OVMax= 1.37D-02

 Cycle   2  Pass 0  IDiag  1:
 E= -95.5671752863618     Delta-E=       -0.000606126552 Rises=F Damp=F
 DIIS: error= 2.57D-04 at cycle   2 NSaved=   2.
 NSaved= 2 IEnMin= 2 EnMin= -95.5671752863618     IErMin= 2 ErrMin= 2.57D-04
 ErrMax= 2.57D-04  0.00D+00 EMaxC= 1.00D-01 BMatC= 1.37D-05 BMatP= 1.18D-03
 IDIUse=3 WtCom= 9.97D-01 WtEn= 2.57D-03
 Coeff-Com:  0.244D-02 0.998D+00
 Coeff-En:   0.000D+00 0.100D+01
 Coeff:      0.243D-02 0.998D+00
 Gap=     0.257 Goal=   None    Shift=    0.000
 Gap=     0.128 Goal=   None    Shift=    0.000
 RMSDP=1.08D-04 MaxDP=1.05D-03 DE=-6.06D-04 OVMax= 1.33D-03

 Cycle   3  Pass 0  IDiag  1:
 E= -95.5671775799337     Delta-E=       -0.000002293572 Rises=F Damp=F
 DIIS: error= 3.31D-04 at cycle   3 NSaved=   3.
 NSaved= 3 IEnMin= 3 EnMin= -95.5671775799337     IErMin= 2 ErrMin= 2.57D-04
 ErrMax= 3.31D-04  0.00D+00 EMaxC= 1.00D-01 BMatC= 1.04D-05 BMatP= 1.37D-05
 IDIUse=3 WtCom= 9.97D-01 WtEn= 3.31D-03
 Coeff-Com: -0.426D-02 0.461D+00 0.543D+00
 Coeff-En:   0.000D+00 0.252D+00 0.748D+00
 Coeff:     -0.424D-02 0.460D+00 0.544D+00
 Gap=     0.257 Goal=   None    Shift=    0.000
 Gap=     0.128 Goal=   None    Shift=    0.000
 RMSDP=5.27D-05 MaxDP=5.61D-04 DE=-2.29D-06 OVMax= 8.20D-04

 Cycle   4  Pass 0  IDiag  1:
 E= -95.5671802137214     Delta-E=       -0.000002633788 Rises=F Damp=F
 DIIS: error= 1.06D-04 at cycle   4 NSaved=   4.
 NSaved= 4 IEnMin= 4 EnMin= -95.5671802137214     IErMin= 4 ErrMin= 1.06D-04
 ErrMax= 1.06D-04  0.00D+00 EMaxC= 1.00D-01 BMatC= 8.19D-07 BMatP= 1.04D-05
 IDIUse=3 WtCom= 9.99D-01 WtEn= 1.06D-03
 Coeff-Com: -0.625D-03-0.119D-01 0.191D+00 0.821D+00
 Coeff-En:   0.000D+00 0.000D+00 0.000D+00 0.100D+01
 Coeff:     -0.625D-03-0.118D-01 0.191D+00 0.821D+00
 Gap=     0.257 Goal=   None    Shift=    0.000
 Gap=     0.128 Goal=   None    Shift=    0.000
 RMSDP=1.92D-05 MaxDP=2.03D-04 DE=-2.63D-06 OVMax= 4.61D-04

 Cycle   5  Pass 0  IDiag  1:
 E= -95.5671802996397     Delta-E=       -0.000000085918 Rises=F Damp=F
 DIIS: error= 9.69D-05 at cycle   5 NSaved=   5.
 NSaved= 5 IEnMin= 5 EnMin= -95.5671802996397     IErMin= 5 ErrMin= 9.69D-05
 ErrMax= 9.69D-05  0.00D+00 EMaxC= 1.00D-01 BMatC= 5.75D-07 BMatP= 8.19D-07
 IDIUse=1 WtCom= 1.00D+00 WtEn= 0.00D+00
 Coeff-Com: -0.266D-03-0.483D-01 0.861D-01 0.575D+00 0.388D+00
 Coeff:     -0.266D-03-0.483D-01 0.861D-01 0.575D+00 0.388D+00
 Gap=     0.257 Goal=   None    Shift=    0.000
 Gap=     0.128 Goal=   None    Shift=    0.000
 RMSDP=1.20D-05 MaxDP=1.23D-04 DE=-8.59D-08 OVMax= 3.47D-04

 Cycle   6  Pass 0  IDiag  1:
 E= -95.5671804588263     Delta-E=       -0.000000159187 Rises=F Damp=F
 DIIS: error= 1.40D-05 at cycle   6 NSaved=   6.
 NSaved= 6 IEnMin= 6 EnMin= -95.5671804588263     IErMin= 6 ErrMin= 1.40D-05
 ErrMax= 1.40D-05  0.00D+00 EMaxC= 1.00D-01 BMatC= 2.41D-08 BMatP= 5.75D-07
 IDIUse=1 WtCom= 1.00D+00 WtEn= 0.00D+00
 Coeff-Com: -0.729D-04-0.291D-01 0.187D-01 0.213D+00 0.208D+00 0.589D+00
 Coeff:     -0.729D-04-0.291D-01 0.187D-01 0.213D+00 0.208D+00 0.589D+00
 Gap=     0.257 Goal=   None    Shift=    0.000
 Gap=     0.128 Goal=   None    Shift=    0.000
 RMSDP=2.27D-06 MaxDP=2.77D-05 DE=-1.59D-07 OVMax= 7.21D-05

 Initial convergence to 1.0D-05 achieved.  Increase integral accuracy.
 Cycle   7  Pass 1  IDiag  1:
 E= -95.5671798792617     Delta-E=        0.000000579565 Rises=F Damp=F
 DIIS: error= 2.17D-06 at cycle   1 NSaved=   1.
 NSaved= 1 IEnMin= 1 EnMin= -95.5671798792617     IErMin= 1 ErrMin= 2.17D-06
 ErrMax= 2.17D-06  0.00D+00 EMaxC= 1.00D-01 BMatC= 4.35D-10 BMatP= 4.35D-10
 IDIUse=1 WtCom= 1.00D+00 WtEn= 0.00D+00
 Coeff-Com:  0.100D+01
 Coeff:      0.100D+01
 Gap=     0.257 Goal=   None    Shift=    0.000
 Gap=     0.128 Goal=   None    Shift=    0.000
 RMSDP=2.27D-06 MaxDP=2.77D-05 DE= 5.80D-07 OVMax= 2.52D-05

 Cycle   8  Pass 1  IDiag  1:
 E= -95.5671798790096     Delta-E=        0.000000000252 Rises=F Damp=F
 DIIS: error= 4.08D-06 at cycle   2 NSaved=   2.
 NSaved= 2 IEnMin= 1 EnMin= -95.5671798792617     IErMin= 1 ErrMin= 2.17D-06
 ErrMax= 4.08D-06  0.00D+00 EMaxC= 1.00D-01 BMatC= 1.34D-09 BMatP= 4.35D-10
 IDIUse=1 WtCom= 1.00D+00 WtEn= 0.00D+00
 Coeff-Com:  0.650D+00 0.350D+00
 Coeff:      0.650D+00 0.350D+00
 Gap=     0.257 Goal=   None    Shift=    0.000
 Gap=     0.128 Goal=   None    Shift=    0.000
 RMSDP=5.78D-07 MaxDP=7.00D-06 DE= 2.52D-10 OVMax= 1.89D-05

 Cycle   9  Pass 1  IDiag  1:
 E= -95.5671798793877     Delta-E=       -0.000000000378 Rises=F Damp=F
 DIIS: error= 8.15D-07 at cycle   3 NSaved=   3.
 NSaved= 3 IEnMin= 3 EnMin= -95.5671798793877     IErMin= 3 ErrMin= 8.15D-07
 ErrMax= 8.15D-07  0.00D+00 EMaxC= 1.00D-01 BMatC= 5.41D-11 BMatP= 4.35D-10
 IDIUse=1 WtCom= 1.00D+00 WtEn= 0.00D+00
 Coeff-Com:  0.205D+00 0.189D+00 0.606D+00
 Coeff:      0.205D+00 0.189D+00 0.606D+00
 Gap=     0.257 Goal=   None    Shift=    0.000
 Gap=     0.128 Goal=   None    Shift=    0.000
 RMSDP=1.14D-07 MaxDP=1.29D-06 DE=-3.78D-10 OVMax= 2.15D-06

 Cycle  10  Pass 1  IDiag  1:
 E= -95.5671798794024     Delta-E=       -0.000000000015 Rises=F Damp=F
 DIIS: error= 1.79D-07 at cycle   4 NSaved=   4.
 NSaved= 4 IEnMin= 4 EnMin= -95.5671798794024     IErMin= 4 ErrMin= 1.79D-07
 ErrMax= 1.79D-07  0.00D+00 EMaxC= 1.00D-01 BMatC= 2.56D-12 BMatP= 5.41D-11
 IDIUse=1 WtCom= 1.00D+00 WtEn= 0.00D+00
 Coeff-Com: -0.208D-01 0.215D-01 0.192D+00 0.807D+00
 Coeff:     -0.208D-01 0.215D-01 0.192D+00 0.807D+00
 Gap=     0.257 Goal=   None    Shift=    0.000
 Gap=     0.128 Goal=   None    Shift=    0.000
 RMSDP=2.61D-08 MaxDP=3.31D-07 DE=-1.47D-11 OVMax= 4.18D-07

 Cycle  11  Pass 1  IDiag  1:
 E= -95.5671798794030     Delta-E=       -0.000000000001 Rises=F Damp=F
 DIIS: error= 8.44D-08 at cycle   5 NSaved=   5.
 NSaved= 5 IEnMin= 5 EnMin= -95.5671798794030     IErMin= 5 ErrMin= 8.44D-08
 ErrMax= 8.44D-08  0.00D+00 EMaxC= 1.00D-01 BMatC= 4.93D-13 BMatP= 2.56D-12
 IDIUse=1 WtCom= 1.00D+00 WtEn= 0.00D+00
 Coeff-Com: -0.308D-01-0.480D-02 0.317D-01 0.373D+00 0.631D+00
 Coeff:     -0.308D-01-0.480D-02 0.317D-01 0.373D+00 0.631D+00
 Gap=     0.257 Goal=   None    Shift=    0.000
 Gap=     0.128 Goal=   None    Shift=    0.000
 RMSDP=1.19D-08 MaxDP=1.35D-07 DE=-5.68D-13 OVMax= 1.88D-07

 Cycle  12  Pass 1  IDiag  1:
 E= -95.5671798794035     Delta-E=       -0.000000000000 Rises=F Damp=F
 DIIS: error= 1.49D-08 at cycle   6 NSaved=   6.
 NSaved= 6 IEnMin= 6 EnMin= -95.5671798794035     IErMin= 6 ErrMin= 1.49D-08
 ErrMax= 1.49D-08  0.00D+00 EMaxC= 1.00D-01 BMatC= 2.76D-14 BMatP= 4.93D-13
 IDIUse=1 WtCom= 1.00D+00 WtEn= 0.00D+00
 Coeff-Com: -0.500D-02-0.305D-02-0.204D-01-0.334D-01 0.168D+00 0.894D+00
 Coeff:     -0.500D-02-0.305D-02-0.204D-01-0.334D-01 0.168D+00 0.894D+00
 Gap=     0.257 Goal=   None    Shift=    0.000
 Gap=     0.128 Goal=   None    Shift=    0.000
 RMSDP=4.19D-09 MaxDP=3.67D-08 DE=-4.55D-13 OVMax= 6.99D-08

 SCF Done:  E(UPBE-PBE) =  -95.5671798794     A.U. after   12 cycles
            NFock= 12  Conv=0.42D-08     -V/T= 2.0048
 <Sx>= 0.0000 <Sy>= 0.0000 <Sz>= 1.0000 <S**2>= 2.0068 S= 1.0023
 <L.S>= 0.000000000000E+00
 KE= 9.511492068775D+01 PE=-2.894380438720D+02 EE= 6.529324190989D+01
 Annihilation of the first spin contaminant:
 S**2 before annihilation     2.0068,   after     2.0000
 Leave Link  502 at Wed Oct  7 16:12:54 2020, MaxMem=  2684354560 cpu:              23.9 elap:               2.5
 (Enter /udrive/faculty/rpeverati/g16/g16/l508.exe)
 QCSCF skips out because SCF is already converged.
 Leave Link  508 at Wed Oct  7 16:12:55 2020, MaxMem=  2684354560 cpu:               0.5 elap:               0.5
 (Enter /udrive/faculty/rpeverati/g16/g16/l701.exe)
 ... and contract with generalized density number  0.
 Compute integral first derivatives.
 Leave Link  701 at Wed Oct  7 16:12:56 2020, MaxMem=  2684354560 cpu:               2.9 elap:               0.6
 (Enter /udrive/faculty/rpeverati/g16/g16/l702.exe)
 L702 exits ... SP integral derivatives will be done elsewhere.
 Leave Link  702 at Wed Oct  7 16:12:57 2020, MaxMem=  2684354560 cpu:               1.5 elap:               0.6
 (Enter /udrive/faculty/rpeverati/g16/g16/l703.exe)
 Integral derivatives from FoFJK, PRISM(SPDF).
 Compute integral first derivatives, UseDBF=F ICtDFT=           0.
 Calling FoFJK, ICntrl=      2527 FMM=F ISym2X=0 I1Cent= 0 IOpClX= 0 NMat=1 NMatS=1 NMatT=0.
 FoFJK:  IHMeth= 1 ICntrl=    2527 DoSepK=F KAlg= 0 I1Cent=           0 FoldK=F
 IRaf=         0 NMat=       1 IRICut=       1 DoRegI=T DoRafI=F ISym2E= 0 IDoP0=0 IntGTp=1.
 FoFCou: FMM=F IPFlag=           0 FMFlag=      100000 FMFlg1=         800
         NFxFlg=           0 DoJE=F BraDBF=F KetDBF=F FulRan=T
         wScrn=  0.000000 ICntrl=      2527 IOpCl=  0 I1Cent=           0 NGrid=           0
         NMat0=    1 NMatS0=      1 NMatT0=    0 NMatD0=    1 NMtDS0=    0 NMtDT0=    0
 Symmetry not used in FoFCou.
 Leave Link  703 at Wed Oct  7 16:12:59 2020, MaxMem=  2684354560 cpu:               7.9 elap:               1.1
 (Enter /udrive/faculty/rpeverati/g16/g16/l716.exe)
 Dipole        =-3.77507255D-01-5.42816016D-01 8.89895687D-03
 ***** Axes restored to original set *****
 -------------------------------------------------------------------
 Center     Atomic                   Forces (Hartrees/Bohr)
 Number     Number              X              Y              Z
 -------------------------------------------------------------------
      1        6           0.010094934    0.000667433    0.001053538
      2        7           0.006660483    0.010347417    0.000679272
      3        1          -0.002694949   -0.003651401    0.006528271
      4        1          -0.002232748   -0.004109314   -0.006261134
      5        1          -0.003247525    0.007082962   -0.000483260
      6        1          -0.011206741    0.001455945   -0.001304431
      7        1           0.002626546   -0.011793043   -0.000212256
 -------------------------------------------------------------------
 Cartesian Forces:  Max     0.011793043 RMS     0.005839207
 Leave Link  716 at Wed Oct  7 16:13:00 2020, MaxMem=  2684354560 cpu:               2.1 elap:               0.8
 (Enter /udrive/faculty/rpeverati/g16/g16/l103.exe)

 GradGradGradGradGradGradGradGradGradGradGradGradGradGradGradGradGradGrad
 Berny optimization.
 Optmz: redundant internal coordinate code flag= 1
 Red2BG:  D1=  1.28D-01 OD1=  1.26D-01 B2RMS=  0.00D+00 IAprox=0
 FormGI is forming the generalized inverse of G from B-inverse, IUseBI=4.
 Internal  Forces:  Max     0.012011268 RMS     0.004894579
 Search for a saddle point.
 Step number   2 out of a maximum of   50
 All quantities printed in internal units (Hartrees-Bohrs-Radians)
 Swapping is turned off.
 Update second derivatives using D2CorX and points    1    2
 The second derivative matrix:
                          R1        R2        R3        R4        R5
           R1           0.35571
           R2           0.00002   0.35582
           R3          -0.00002  -0.00003   0.35575
           R4           0.00012   0.00030  -0.00002   0.14619
           R5          -0.00022  -0.00053   0.00002  -0.00141   0.24068
           R6           0.00003   0.00013  -0.00004   0.00045  -0.00081
           A1           0.00005   0.00014  -0.00001   0.00038  -0.00066
           A2           0.00004   0.00010  -0.00000   0.00026  -0.00045
           A3          -0.00008  -0.00021   0.00001  -0.00058   0.00100
           A4           0.00004   0.00011  -0.00001   0.00031  -0.00055
           A5          -0.00000   0.00001  -0.00001   0.00005  -0.00010
           A6          -0.00010  -0.00026   0.00002  -0.00072   0.00126
           A7          -0.00003  -0.00006  -0.00001  -0.00012   0.00020
           A8          -0.00027  -0.00129   0.00052  -0.00488   0.00883
           A9          -0.00005  -0.00072   0.00046  -0.00324   0.00595
           D1          -0.00000  -0.00003   0.00002  -0.00012   0.00022
           D2          -0.00001   0.00006  -0.00006   0.00035  -0.00066
           D3          -0.00005  -0.00001  -0.00007   0.00020  -0.00040
                          R6        A1        A2        A3        A4
           R6           0.42562
           A1           0.00021   0.16018
           A2           0.00015   0.00012   0.16008
           A3          -0.00032  -0.00027  -0.00018   0.16041
           A4           0.00017   0.00015   0.00010  -0.00022   0.16012
           A5           0.00002   0.00002   0.00002  -0.00004   0.00002
           A6          -0.00039  -0.00034  -0.00023   0.00051  -0.00028
           A7          -0.00008  -0.00006  -0.00004   0.00008  -0.00005
           A8          -0.00207  -0.00227  -0.00162   0.00345  -0.00187
           A9          -0.00119  -0.00150  -0.00109   0.00228  -0.00123
           D1          -0.00004  -0.00005  -0.00004   0.00008  -0.00004
           D2           0.00011   0.00016   0.00012  -0.00025   0.00013
           D3          -0.00000   0.00009   0.00007  -0.00014   0.00007
                          A5        A6        A7        A8        A9
           A5           0.16000
           A6          -0.00004   0.16064
           A7          -0.00001   0.00011   0.16001
           A8          -0.00015   0.00422   0.00093   0.02275
           A9          -0.00005   0.00276   0.00068   0.01101   0.00718
           D1          -0.00000   0.00010   0.00002   0.00041   0.00019
           D2           0.00000  -0.00030  -0.00008  -0.00093  -0.00027
           D3          -0.00002  -0.00016  -0.00007   0.00035   0.00067
                          D1        D2        D3
           D1           0.00231
           D2          -0.00001   0.00229
           D3           0.00002  -0.00012   0.00208
 ITU=  0  0
 Eigenvectors of the second derivative matrix:
                           1         2         3         4         5
     Eigenvalues --     0.00129   0.00230   0.02677   0.10921   0.11091
   1         R1         0.00025  -0.00000  -0.00070  -0.00025  -0.00015
   2         R2        -0.00015   0.00000  -0.00424  -0.00081  -0.00046
   3         R3         0.00054  -0.00000   0.00203   0.00019   0.00009
   4         R4        -0.00494   0.00000  -0.04726  -0.01293  -0.00362
   5         R5         0.00585  -0.00000   0.04816   0.00795   0.00271
   6         R6        -0.00028   0.00000  -0.00565  -0.00128  -0.00049
   7         A1        -0.00276  -0.00000  -0.02823   0.13220   0.62723
   8         A2        -0.00057  -0.00000  -0.00005  -0.58825  -0.19380
   9         A3         0.00334  -0.00000   0.03262  -0.19292   0.13625
  10         A4        -0.00201   0.00000  -0.02146   0.46305  -0.43017
  11         A5        -0.00024   0.00000  -0.00644   0.23662   0.05714
  12         A6         0.00398  -0.00000   0.03984  -0.05959  -0.22346
  13         A7         0.00125  -0.00000   0.00823   0.00671   0.00001
  14         A8         0.41110  -0.17745  -0.87882  -0.05807  -0.08296
  15         A9        -0.82015   0.34056  -0.44211  -0.07677   0.00403
  16         D1         0.22623   0.52635  -0.12884   0.31086   0.33146
  17         D2         0.14849   0.55516   0.05042   0.14752  -0.43174
  18         D3         0.29159   0.51699   0.06661  -0.44427   0.09502
                           6         7         8         9        10
     Eigenvalues --     0.14632   0.15999   0.16000   0.16000   0.16178
   1         R1         0.00053  -0.00006   0.00000  -0.00000   0.00086
   2         R2         0.00150  -0.00007   0.00000  -0.00000   0.00241
   3         R3        -0.00022  -0.00006   0.00000  -0.00000  -0.00034
   4         R4        -0.99501  -0.00002  -0.00000   0.00000  -0.08462
   5         R5        -0.01805  -0.00013  -0.00000  -0.00000  -0.03193
   6         R6         0.00174  -0.00007   0.00000  -0.00000   0.00273
   7         A1         0.01589   0.18125   0.28646  -0.16133  -0.19837
   8         A2         0.04643  -0.08893  -0.03190  -0.07763  -0.46190
   9         A3        -0.04420  -0.05296  -0.06374   0.71573   0.52082
  10         A4         0.01728   0.08968   0.23627   0.28797  -0.24263
  11         A5        -0.00593  -0.45131  -0.73113  -0.22101   0.04107
  12         A6        -0.05425   0.26573   0.15109  -0.55998   0.62316
  13         A7        -0.01116  -0.82103   0.54741  -0.10167   0.12512
  14         A8         0.03624  -0.00154   0.00000  -0.00000   0.04842
  15         A9         0.02305  -0.00147   0.00000  -0.00000   0.03080
  16         D1        -0.00265  -0.00003   0.00000  -0.00000  -0.00268
  17         D2        -0.00179   0.00020  -0.00000   0.00000  -0.00212
  18         D3         0.00187   0.00025  -0.00000   0.00000   0.00134
                          11        12        13        14        15
     Eigenvalues --     0.24130   0.35570   0.35575   0.35585   0.42564
   1         R1        -0.00211   0.92565   0.31269   0.21307   0.00053
   2         R2        -0.00543  -0.06525  -0.42280   0.90384   0.00204
   3         R3         0.00048   0.37272  -0.85057  -0.37096  -0.00063
   4         R4         0.01825   0.00040  -0.00035   0.00162   0.00178
   5         R5        -0.99808  -0.00141   0.00121  -0.00517  -0.00477
   6         R6        -0.00517  -0.00013   0.00017  -0.00226   0.99996
   7         A1         0.00563   0.00019  -0.00017   0.00079   0.00089
   8         A2         0.00991   0.00015  -0.00013   0.00053  -0.00011
   9         A3        -0.01551  -0.00030   0.00026  -0.00125  -0.00163
  10         A4         0.00944   0.00016  -0.00014   0.00072   0.00144
  11         A5         0.00015  -0.00002   0.00001   0.00008   0.00037
  12         A6        -0.01743  -0.00035   0.00031  -0.00151  -0.00167
  13         A7        -0.00323  -0.00013   0.00011  -0.00031  -0.00033
  14         A8        -0.04329   0.00005   0.00010  -0.00454  -0.00537
  15         A9        -0.02818   0.00046  -0.00026  -0.00265  -0.00298
  16         D1         0.00127   0.00001  -0.00001  -0.00011  -0.00054
  17         D2         0.00132  -0.00010   0.00007   0.00021  -0.00012
  18         D3         0.00099  -0.00019   0.00014   0.00006   0.00081
 Eigenvalue     1 is   1.29D-03 should be less than     0.000000 Eigenvector:
                          A9        A8        D3        D1        D2
   1                   -0.82015   0.41110   0.29159   0.22623   0.14849
                          R5        R4        A6        A3        A1
   1                    0.00585  -0.00494   0.00398   0.00334  -0.00276
 RLam0= 1.88D-03.
 Iter=   1 RLamda= 0.00000000D+00 Sum=-1.40489527D-03.
 Iter=   2 RLamda=-1.40489527D-03 Sum=-1.36470480D-03.
 Iter=   3 RLamda=-1.36470480D-03 Sum=-1.36549112D-03.
 Iter=   4 RLamda=-1.36549112D-03 Sum=-1.36547561D-03.
 Iter=   5 RLamda=-1.36547561D-03 Sum=-1.36547591D-03.
 RFO step:  Lambda0=1.878338495D-03 Lambda=-1.36547561D-03.
 Linear search not attempted -- option 19 set.
 Maximum step size (   0.100) exceeded in Quadratic search.
    -- Step size scaled by   0.941
 Iteration  1 RMS(Cart)=  0.05160694 RMS(Int)=  0.00237382
 Iteration  2 RMS(Cart)=  0.00304877 RMS(Int)=  0.00025848
 Iteration  3 RMS(Cart)=  0.00000880 RMS(Int)=  0.00025840
 Iteration  4 RMS(Cart)=  0.00000000 RMS(Int)=  0.00025840
 ITry= 1 IFail=0 DXMaxC= 1.13D-01 DCOld= 1.00D+10 DXMaxT= 1.00D-01 DXLimC= 3.00D+00 Rises=F
 Variable       Old X    -DE/DX   Delta X   Delta X   Delta X     New X
                                 (Linear)    (Quad)   (Total)
    R1        2.05133   0.00788   0.00000   0.02084   0.02084   2.07216
    R2        2.05130   0.00776   0.00000   0.02049   0.02049   2.07179
    R3        2.05114   0.00777   0.00000   0.02055   0.02055   2.07169
    R4        2.63527  -0.00192   0.00000  -0.01276  -0.01276   2.62251
    R5        2.29583   0.00933   0.00000   0.03722   0.03722   2.33305
    R6        1.95427   0.01201   0.00000   0.02651   0.02652   1.98078
    A1        1.99843  -0.00080   0.00000  -0.00485  -0.00522   1.99321
    A2        1.99903  -0.00088   0.00000  -0.00477  -0.00436   1.99466
    A3        1.82831   0.00150   0.00000   0.00924   0.00929   1.83760
    A4        1.99969  -0.00101   0.00000  -0.00659  -0.00678   1.99291
    A5        1.83097   0.00113   0.00000   0.00643   0.00621   1.83718
    A6        1.77271   0.00090   0.00000   0.00558   0.00570   1.77841
    A7        1.73576   0.00224   0.00000   0.01324   0.01324   1.74900
    A8        2.97428  -0.00020   0.00000   0.03002   0.02990   3.00418
    A9        3.06942   0.00128   0.00000  -0.06997  -0.07003   2.99939
    D1        1.08590  -0.00003   0.00000   0.09048   0.09117   1.17707
    D2       -0.99209  -0.00003   0.00000   0.08363   0.08348  -0.90861
    D3       -3.08454   0.00004   0.00000   0.10009   0.09956  -2.98498
         Item               Value     Threshold  Converged?
 Maximum Force            0.012011     0.000450     NO 
 RMS     Force            0.004895     0.000300     NO 
 Maximum Displacement     0.113256     0.001800     NO 
 RMS     Displacement     0.051841     0.001200     NO 
 Predicted change in Energy=-5.422613D-04
 Lowest energy point so far.  Saving SCF results.
 Largest change from initial coordinates is atom    6       0.059 Angstoms.
 GradGradGradGradGradGradGradGradGradGradGradGradGradGradGradGradGradGrad

 Leave Link  103 at Wed Oct  7 16:13:01 2020, MaxMem=  2684354560 cpu:               4.7 elap:               1.3
 (Enter /udrive/faculty/rpeverati/g16/g16/l202.exe)
                          Input orientation:                          
 ---------------------------------------------------------------------
 Center     Atomic      Atomic             Coordinates (Angstroms)
 Number     Number       Type             X           Y           Z
 ---------------------------------------------------------------------
      1          6           0       -1.195703   -0.008628    0.009513
      2          7           0        1.414227    0.127972    0.002258
[...]
 All quantities printed in internal units (Hartrees-Bohrs-Radians)
 Second derivative matrix not updated -- analytic derivatives used.
 The second derivative matrix:
                          R1        R2        R3        R4        R5
           R1           0.35022
           R2           0.00014   0.35022
           R3           0.00007   0.00007   0.35032
           R4           0.00097   0.00097   0.00105   0.02229
           R5           0.00029   0.00029  -0.00043   0.07115   0.17616
           R6           0.00021   0.00021  -0.00029   0.00163  -0.00658
           A1           0.00691   0.00691  -0.00434  -0.00710   0.00259
           A2           0.00728  -0.00428   0.00719  -0.00733   0.00288
           A3          -0.00356  -0.00567  -0.00587   0.01082  -0.00272
           A4          -0.00428   0.00728   0.00719  -0.00733   0.00288
           A5          -0.00567  -0.00356  -0.00587   0.01081  -0.00273
           A6          -0.00573  -0.00573  -0.00284   0.01081  -0.00707
           A7           0.00046   0.00046  -0.00115   0.00230   0.01729
           A8          -0.00078  -0.00077   0.00170   0.00300   0.00030
           A9           0.00104  -0.00105   0.00000  -0.00000  -0.00000
           D1          -0.00008   0.00441  -0.00426  -0.00020   0.00006
           D2          -0.00441   0.00008   0.00426   0.00020  -0.00006
           D3           0.00431  -0.00431   0.00000   0.00000   0.00000
                          R6        A1        A2        A3        A4
           R6           0.37263
           A1           0.00019   0.04420
           A2           0.00016  -0.01052   0.04708
           A3           0.00033  -0.01570  -0.01800   0.04809
           A4           0.00016  -0.01052  -0.00975  -0.00483   0.04709
           A5           0.00033  -0.01570  -0.00483   0.00447  -0.01801
           A6          -0.00146  -0.00479  -0.01629   0.00480  -0.01629
           A7           0.02074   0.00079   0.00023  -0.00118   0.00023
           A8          -0.00357  -0.00457   0.00022   0.00075   0.00024
           A9           0.00000  -0.00000   0.00251   0.00336  -0.00251
           D1          -0.00001   0.01855  -0.01926   0.00087  -0.00008
           D2           0.00001  -0.01855   0.00008   0.00000   0.01926
           D3          -0.00000  -0.00000   0.01831   0.00149  -0.01831
                          A5        A6        A7        A8        A9
           A5           0.04808
           A6           0.00480   0.04626
           A7          -0.00118   0.00050   0.13667
           A8           0.00076   0.00482   0.00067   0.02659
           A9          -0.00336   0.00001  -0.00000  -0.00000   0.01614
           D1          -0.00001  -0.00060   0.00002  -0.00037  -0.00073
           D2          -0.00087   0.00060  -0.00002   0.00037  -0.00072
           D3          -0.00149   0.00000   0.00000  -0.00000   0.00159
                          D1        D2        D3
           D1           0.01375
           D2          -0.00684   0.01375
           D3          -0.00667  -0.00667   0.01355
 ITU=  0
 Eigenvectors of the second derivative matrix:
                           1         2         3         4         5
     Eigenvalues --    -0.01211   0.00014   0.01495   0.02526   0.04171
   1         R1        -0.00949   0.00043   0.00062  -0.00290  -0.00658
   2         R2        -0.00950  -0.00043  -0.00062  -0.00290  -0.00658
   3         R3        -0.00940  -0.00000  -0.00000  -0.00231   0.01754
   4         R4         0.89948   0.00002  -0.00003   0.00463  -0.03771
   5         R5        -0.35474  -0.00001   0.00003  -0.01301  -0.00573
   6         R6        -0.01215   0.00000  -0.00000   0.00886  -0.00776
   7         A1         0.07993   0.00000   0.00000   0.05269   0.08468
   8         A2         0.07973   0.00010  -0.01986   0.01346  -0.05492
   9         A3        -0.10867  -0.03203  -0.11836   0.04357   0.38831
  10         A4         0.07974  -0.00009   0.01984   0.01323  -0.05494
  11         A5        -0.10870   0.03205   0.11865   0.04304   0.38832
  12         A6        -0.14008  -0.00003  -0.00028  -0.20922  -0.75699
  13         A7         0.02726  -0.00000   0.00002  -0.00412   0.01871
  14         A8        -0.03809  -0.00005   0.00027   0.96136  -0.24006
  15         A9         0.00005   0.00803   0.97531  -0.00024  -0.00031
  16         D1         0.00781   0.57584   0.04864   0.11124   0.16167
  17         D2        -0.00787   0.57587   0.04836  -0.11155  -0.16174
  18         D3         0.00000   0.57850  -0.12322   0.00041  -0.00000
                           6         7         8         9        10
     Eigenvalues --     0.04278   0.07670   0.07847   0.08810   0.13103
   1         R1         0.01452   0.02324   0.03266   0.03407   0.00329
   2         R2        -0.01453   0.02329  -0.03260   0.03409   0.00328
   3         R3         0.00000  -0.03232  -0.00002   0.04176  -0.00317
   4         R4         0.00007   0.03047   0.00008   0.22655   0.12051
   5         R5         0.00001  -0.02364  -0.00006  -0.09807   0.19958
   6         R6         0.00001  -0.00215  -0.00000  -0.00428   0.08752
   7         A1        -0.00002  -0.72029  -0.00065  -0.20021  -0.02101
   8         A2        -0.11430   0.30091  -0.59229  -0.35969  -0.01072
   9         A3        -0.65001   0.16439   0.21192   0.44566   0.03171
  10         A4         0.11431   0.29990   0.59263  -0.36004  -0.01073
  11         A5         0.65008   0.16464  -0.21137   0.44568   0.03167
  12         A6        -0.00004  -0.12140  -0.00002   0.47599  -0.00009
  13         A7        -0.00002   0.01947   0.00003   0.04877  -0.96709
  14         A8         0.00047   0.06704   0.00028   0.07142  -0.00392
  15         A9        -0.20509   0.00005  -0.03752  -0.00000   0.00001
  16         D1         0.09605  -0.33435   0.19307   0.04791  -0.00142
  17         D2         0.09609   0.33398   0.19354  -0.04799   0.00141
  18         D3        -0.26040   0.00033  -0.36073   0.00009  -0.00000
                          11        12        13        14        15
     Eigenvalues --     0.20809   0.35078   0.35094   0.35163   0.37462
   1         R1         0.00507  -0.70421  -0.43295   0.55978   0.01152
   2         R2         0.00507   0.70819  -0.42860   0.55810   0.01145
   3         R3        -0.00196  -0.00171   0.79107   0.60888  -0.01614
   4         R4        -0.35027   0.00001  -0.00082   0.00162  -0.00017
   5         R5        -0.90732   0.00002  -0.00523   0.00435  -0.02547
   6         R6        -0.00365  -0.00002   0.02316  -0.00300   0.99573
   7         A1         0.00146   0.00013  -0.03405   0.01865   0.00145
   8         A2        -0.00129  -0.02976   0.01592   0.02266   0.00016
   9         A3        -0.00653  -0.00375  -0.00153  -0.03238   0.00072
  10         A4        -0.00130   0.02972   0.01611   0.02259   0.00016
  11         A5        -0.00647   0.00368  -0.00152  -0.03239   0.00071
  12         A6         0.01484  -0.00006   0.00777  -0.03040  -0.00418
  13         A7        -0.23158   0.00001  -0.00430  -0.00039   0.08502
  14         A8        -0.00785  -0.00001   0.00659  -0.00025  -0.01028
  15         A9         0.00002  -0.00509  -0.00001   0.00001   0.00000
  16         D1         0.00042   0.01136  -0.01868  -0.00084   0.00041
  17         D2        -0.00042   0.01125   0.01875   0.00081  -0.00041
  18         D3        -0.00001  -0.02178  -0.00007   0.00003  -0.00000
 Eigenvalue     1 is  -1.21D-02 should be greater than     0.000000 Eigenvector:
                          R4        R5        A6        A5        A3
   1                    0.89948  -0.35474  -0.14008  -0.10870  -0.10867
                          A1        A4        A2        A8        A7
   1                    0.07993   0.07974   0.07973  -0.03809   0.02726
 Angle between quadratic step and forces=  81.19 degrees.
 Linear search not attempted -- first point.
 Iteration  1 RMS(Cart)=  0.00058433 RMS(Int)=  0.00000038
 Iteration  2 RMS(Cart)=  0.00000038 RMS(Int)=  0.00000002
 ITry= 1 IFail=0 DXMaxC= 1.63D-03 DCOld= 1.00D+10 DXMaxT= 3.00D-01 DXLimC= 3.00D+00 Rises=F
 Variable       Old X    -DE/DX   Delta X   Delta X   Delta X     New X
                                 (Linear)    (Quad)   (Total)
    R1        2.06979  -0.00000   0.00000  -0.00000  -0.00000   2.06979
    R2        2.06979  -0.00000   0.00000  -0.00000  -0.00000   2.06979
    R3        2.06993  -0.00000   0.00000  -0.00001  -0.00001   2.06992
    R4        2.95906   0.00000   0.00000   0.00015   0.00015   2.95921
    R5        2.15684   0.00001   0.00000  -0.00002  -0.00002   2.15682
    R6        1.97985   0.00000   0.00000  -0.00000  -0.00000   1.97985
    A1        2.02334   0.00000   0.00000   0.00002   0.00002   2.02336
    A2        2.02257  -0.00000   0.00000   0.00001   0.00001   2.02258
    A3        1.80266  -0.00001   0.00000  -0.00020  -0.00020   1.80246
    A4        2.02257  -0.00000   0.00000   0.00001   0.00001   2.02258
    A5        1.80252  -0.00001   0.00000  -0.00008  -0.00008   1.80244
    A6        1.72700   0.00001   0.00000   0.00023   0.00023   1.72723
    A7        1.76282   0.00000   0.00000   0.00002   0.00002   1.76284
    A8        2.94901  -0.00000   0.00000  -0.00014  -0.00014   2.94887
    A9        3.14174  -0.00000   0.00000  -0.00015  -0.00015   3.14159
    D1        1.04039  -0.00000   0.00000   0.00147   0.00147   1.04186
    D2       -1.04389   0.00000   0.00000   0.00157   0.00157  -1.04232
    D3        3.13980   0.00000   0.00000   0.00156   0.00156   3.14136
         Item               Value     Threshold  Converged?
 Maximum Force            0.000010     0.000450     YES
 RMS     Force            0.000004     0.000300     YES
 Maximum Displacement     0.001630     0.001800     YES
 RMS     Displacement     0.000584     0.001200     YES
 Predicted change in Energy=-3.409299D-09
 Optimization completed.
    -- Stationary point found.
                           ----------------------------
                           !   Optimized Parameters   !
                           ! (Angstroms and Degrees)  !
 --------------------------                            --------------------------
 ! Name  Definition              Value          Derivative Info.                !
 --------------------------------------------------------------------------------
 ! R1    R(1,3)                  1.0953         -DE/DX =    0.0                 !
 ! R2    R(1,4)                  1.0953         -DE/DX =    0.0                 !
 ! R3    R(1,5)                  1.0954         -DE/DX =    0.0                 !
 ! R4    R(1,6)                  1.5659         -DE/DX =    0.0                 !
 ! R5    R(2,6)                  1.1413         -DE/DX =    0.0                 !
 ! R6    R(2,7)                  1.0477         -DE/DX =    0.0                 !
 ! A1    A(3,1,4)              115.929          -DE/DX =    0.0                 !
 ! A2    A(3,1,5)              115.8845         -DE/DX =    0.0                 !
 ! A3    A(3,1,6)              103.2849         -DE/DX =    0.0                 !
 ! A4    A(4,1,5)              115.885          -DE/DX =    0.0                 !
 ! A5    A(4,1,6)              103.2766         -DE/DX =    0.0                 !
 ! A6    A(5,1,6)               98.9495         -DE/DX =    0.0                 !
 ! A7    A(6,2,7)              101.002          -DE/DX =    0.0                 !
 ! A8    L(1,6,2,7,-1)         168.9659         -DE/DX =    0.0                 !
 ! A9    L(1,6,2,7,-2)         180.0086         -DE/DX =    0.0                 !
 ! D1    D(3,1,2,7)             59.6098         -DE/DX =    0.0                 !
 ! D2    D(4,1,2,7)            -59.8103         -DE/DX =    0.0                 !
 ! D3    D(5,1,2,7)            179.8974         -DE/DX =    0.0                 !
 --------------------------------------------------------------------------------
 GradGradGradGradGradGradGradGradGradGradGradGradGradGradGradGradGradGrad

 Leave Link  103 at Wed Oct  7 16:17:40 2020, MaxMem=  2684354560 cpu:               3.3 elap:               0.9
 (Enter /udrive/faculty/rpeverati/g16/g16/l9999.exe)

 ----------------------------------------------------------------------

 Electric dipole moment (input orientation):
 (Debye = 10**-18 statcoulomb cm , SI units = C m)
                  (au)            (Debye)         (10**-30 SI)
   Tot        0.723477D+00      0.183889D+01      0.613389D+01
   x         -0.487917D+00     -0.124016D+01     -0.413673D+01
   y         -0.533541D+00     -0.135613D+01     -0.452355D+01
   z          0.262601D-01      0.667465D-01      0.222642D+00

 Dipole polarizability, Alpha (input orientation).
 (esu units = cm**3 , SI units = C**2 m**2 J**-1)
 Alpha(0;0):
               (au)            (10**-24 esu)      (10**-40 SI)
   iso        0.258633D+02      0.383255D+01      0.426429D+01
   aniso      0.223505D+02      0.331200D+01      0.368510D+01
   xx         0.405089D+02      0.600280D+01      0.667902D+01
   yx        -0.710044D+00     -0.105218D+00     -0.117070D+00
   yy         0.207955D+02      0.308157D+01      0.342871D+01
   zx        -0.143418D+00     -0.212523D-01     -0.236464D-01
   zy        -0.187819D+00     -0.278318D-01     -0.309671D-01
   zz         0.162856D+02      0.241328D+01      0.268514D+01

 ----------------------------------------------------------------------

 Dipole orientation:
     6         -1.31691594          1.13156417          1.62401333
     7          1.38395728         -1.22448535         -1.99409853
     1          0.17697711          2.15449208          2.62697186
     1         -2.13326260         -0.48696128          2.62300553
     1         -2.64981881          2.29895275          0.55388473
     1          0.11870277         -0.12096647         -0.64009907
     1          2.52504797         -2.21977322         -0.71851114

 Electric dipole moment (dipole orientation):
 (Debye = 10**-18 statcoulomb cm , SI units = C m)
                  (au)            (Debye)         (10**-30 SI)
   Tot        0.723477D+00      0.183889D+01      0.613389D+01
   x          0.000000D+00      0.000000D+00      0.000000D+00
   y          0.000000D+00      0.000000D+00      0.000000D+00
   z          0.723477D+00      0.183889D+01      0.613389D+01

 Dipole polarizability, Alpha (dipole orientation).
 (esu units = cm**3 , SI units = C**2 m**2 J**-1)
 Alpha(0;0):
               (au)            (10**-24 esu)      (10**-40 SI)
   iso        0.258633D+02      0.383255D+01      0.426429D+01
   aniso      0.223505D+02      0.331200D+01      0.368510D+01
   xx         0.253464D+02      0.375594D+01      0.417905D+01
   yx        -0.791121D+01     -0.117232D+01     -0.130438D+01
   yy         0.231772D+02      0.343451D+01      0.382140D+01
   zx        -0.734726D+01     -0.108875D+01     -0.121140D+01
   zy         0.640890D+01      0.949700D+00      0.105668D+01
   zz         0.290665D+02      0.430720D+01      0.479241D+01

 ----------------------------------------------------------------------

 Test job not archived.
 1\1\GINC-NODE51\Freq\UPBEPBE\6-31G(d)\C1H5N1(3)\RPEVERATI\07-Oct-2020\
 0\\#P Freq PBEPBE/6-31G* 5D 7F Integral=UltraFineGrid SCF=(NoSymm,XQC,
 MaxCyc=120) IOp(1/33=1) Geom=Check Guess=Read\\TS search on BH76.\\0,3
 \C,-1.2579864259,-0.0147746833,0.002806881\N,1.4335678754,0.1188086114
 ,-0.0222522342\H,-1.4321400412,-0.5283589693,0.9544110731\H,-1.4458448
 881,-0.6042992732,-0.9009746603\H,-1.5683325,1.0349120239,-0.037859098
 1\H,0.2944062513,0.1892345564,-0.017139448\H,1.5699275838,-0.919067906
 7,0.0210687218\\Version=ES64L-G16RevA.03\State=3-A\HF=-95.5666056\S2=2
 .007019\S2-1=0.\S2A=2.000026\RMSD=9.545e-10\RMSF=2.585e-06\ZeroPoint=0
 .0493832\Thermal=0.0540122\Dipole=-0.4879168,-0.5335412,0.0262601\Dipo
 leDeriv=0.2870917,0.0095237,-0.0024221,-0.0352519,-0.0287933,0.0015961
 ,-0.000568,0.0012903,0.003338,-0.2063189,0.0055767,-0.0021707,-0.15470
 68,0.0076486,-0.0196845,0.0046484,-0.0208409,-0.4789051,0.0026219,-0.0
 196162,0.0358636,-0.0011368,0.0311195,0.0600015,-0.0030194,0.0525476,-
 0.0413238,0.0022053,-0.0233129,-0.0347191,-0.001825,0.0214901,-0.06509
 09,0.0025894,-0.0573659,-0.031188,0.0225512,0.0655031,-0.0023793,0.003
 8267,-0.0464745,0.0045721,0.0001712,0.0041275,0.0661251,-0.408355,-0.0
 092731,0.0047637,0.1541845,0.1639227,0.0005657,-0.0021919,0.0017441,0.
 2030964,0.3002038,-0.0284013,0.0010639,0.0349093,-0.148913,0.01804,-0.
 0016298,0.0184973,0.2788573\Polar=40.5089321,-0.7100439,20.7954696,-0.
 1434179,-0.1878186,16.2856142\Quadrupole=-1.507255,0.915567,0.591688,-
 2.0282184,0.1016611,0.0008328\PG=C01 [X(C1H5N1)]\NImag=1\\0.09169409,-
 0.03892397,0.56249070,0.00511668,0.00053784,0.56851293,-0.07648907,-0.
 01117672,0.00109175,0.20642991,0.00505337,0.00211960,0.00022303,-0.044
 83200,0.38677185,0.00039115,0.00033838,0.00824609,0.00050834,-0.015778
 62,0.01024242,-0.02475226,-0.02497268,0.04989419,0.00176663,-0.0010441
 2,-0.00176660,0.02554448,-0.01790370,-0.11213585,0.11632800,-0.0003097
 8,0.00006360,-0.00032021,0.02141824,0.11109771,0.03785106,0.11538686,-
 0.26343423,0.00014801,-0.00044395,-0.00001055,-0.04329704,-0.12534405,
 0.27536570,-0.02606840,-0.03088781,-0.05097198,0.00179478,-0.00088387,
 0.00182588,0.00265107,0.00323686,0.00522490,0.02684605,-0.02287242,-0.
 13198687,-0.12675002,-0.00031863,0.00012532,0.00031386,0.00298969,0.00
 950364,0.01263207,0.02696813,0.13258047,-0.03954482,-0.12569776,-0.242
 26212,-0.00015211,0.00044480,-0.00009879,-0.00573088,-0.01462974,-0.01
 430293,0.04483390,0.13664000,0.25257640,-0.04123541,0.09328718,-0.0038
 8047,0.00401970,-0.00087386,0.00000203,0.00358686,-0.00639844,0.000710
 81,0.00370120,-0.00677014,-0.00017918,0.04252698,0.07857271,-0.3084524
 7,0.01001059,0.00148007,0.00063426,-0.00005366,0.00454923,-0.00773489,
 -0.00255384,0.00526329,-0.00934619,0.00343908,-0.08716452,0.32522083,-
 0.00327803,0.00990211,-0.05005237,-0.00009359,-0.00003547,-0.00040297,
 -0.00839193,0.02318063,0.00238774,0.00798336,-0.02212534,0.00388514,0.
 00357426,-0.01088717,0.04389616,0.07900294,0.01208939,-0.00122537,-0.0
 9998793,0.02233955,-0.00035163,-0.00910118,-0.00004374,-0.00098957,-0.
 00921270,0.00003069,0.00112541,-0.01278735,-0.00211866,0.00018328,0.05
 647046,-0.00557398,-0.01386003,-0.00016626,-0.00658234,-0.03268014,0.0
 0078184,-0.00315052,-0.00088907,0.00044323,-0.00383839,-0.00098142,-0.
 00031335,0.00870883,-0.00030587,-0.00004326,-0.02301719,0.05726862,-0.
 00046492,-0.00029293,-0.01881553,0.00087825,0.00057597,-0.01550147,0.0
 0849629,0.00080182,-0.00009826,-0.00808153,-0.00072596,0.00010484,-0.0
 0026144,0.00003833,0.00023754,0.00080662,-0.00097074,0.03075014,-0.002
 15188,0.00058461,-0.00002480,-0.03753403,0.02024092,-0.00060917,0.0003
 0440,0.00000056,0.00035184,0.00028799,-0.00002731,-0.00035232,0.000188
 02,-0.00058212,0.00002265,-0.00438424,0.03345359,-0.00137326,0.0432897
 3,0.00164799,0.00182492,-0.00018319,0.06173939,-0.35703449,0.01471841,
 0.00021016,0.00009486,-0.00012032,0.00014178,0.00010506,0.00011695,-0.
 00078905,-0.00001568,0.00000850,-0.00928003,-0.00855209,0.00057350,-0.
 05367024,0.36357743,-0.00007112,-0.00017450,-0.00219477,-0.00238066,0.
 01501423,-0.00247473,0.00079598,-0.00001646,0.00009253,-0.00081452,0.0
 0001538,0.00009747,0.00003399,0.00000667,0.00004876,0.00045127,0.00026
 854,0.00332274,0.00198506,-0.01511386,0.00110800\\0.00000614,-0.000004
 72,0.00000046,-0.00000420,0.00000311,0.00000151,-0.00000270,-0.0000006
 8,-0.00000046,-0.00000311,-0.00000057,0.00000074,0.00000423,0.00000203
 ,0.00000024,0.00000100,0.00000078,-0.00000253,-0.00000137,0.00000005,0
 .00000004\\\@


 VIRTUE IS LEARNED AT YOUR MOTHER'S KNEE,
 VICES ARE PICKED UP AT SOME OTHER JOINT.
 Job cpu time:       0 days  0 hours  2 minutes 33.7 seconds.
 Elapsed time:       0 days  0 hours  0 minutes 23.6 seconds.
 File lengths (MBytes):  RWF=      7 Int=      0 D2E=      0 Chk=      1 Scr=      1
 Normal termination of Gaussian 16 at Wed Oct  7 16:17:41 2020.
