 Entering Gaussian System, Link 0=g16
 Input=MN_90_RKT16_BH76_PBE_631Gs.in
 Output=MN_90_RKT16_BH76_PBE_631Gs.log
 Initial command:
 /udrive/faculty/rpeverati/g16/g16/l1.exe "/udrive/scratch-directories/gaussian09/rpeverati/Gau-40837.inp" -scrdir="/udrive/scratch-directories/gaussian09/rpeverati/"
 Entering Link 1 = /udrive/faculty/rpeverati/g16/g16/l1.exe PID=     40849.
  
 Copyright (c) 1988,1990,1992,1993,1995,1998,2003,2009,2016,
            Gaussian, Inc.  All Rights Reserved.
  
 This is part of the Gaussian(R) 16 program.  It is based on
 the Gaussian(R) 09 system (copyright 2009, Gaussian, Inc.),
 the Gaussian(R) 03 system (copyright 2003, Gaussian, Inc.),
 the Gaussian(R) 98 system (copyright 1998, Gaussian, Inc.),
 the Gaussian(R) 94 system (copyright 1995, Gaussian, Inc.),
 the Gaussian 92(TM) system (copyright 1992, Gaussian, Inc.),
 the Gaussian 90(TM) system (copyright 1990, Gaussian, Inc.),
 the Gaussian 88(TM) system (copyright 1988, Gaussian, Inc.),
 the Gaussian 86(TM) system (copyright 1986, Carnegie Mellon
 University), and the Gaussian 82(TM) system (copyright 1983,
 Carnegie Mellon University). Gaussian is a federally registered
 trademark of Gaussian, Inc.
  
 This software contains proprietary and confidential information,
 including trade secrets, belonging to Gaussian, Inc.
  
 This software is provided under written license and may be
 used, copied, transmitted, or stored only in accord with that
 written license.
  
 The following legend is applicable only to US Government
 contracts under FAR:
  
                    RESTRICTED RIGHTS LEGEND
  
 Use, reproduction and disclosure by the US Government is
 subject to restrictions as set forth in subparagraphs (a)
 and (c) of the Commercial Computer Software - Restricted
 Rights clause in FAR 52.227-19.
  
 Gaussian, Inc.
 340 Quinnipiac St., Bldg. 40, Wallingford CT 06492
  
  
 ---------------------------------------------------------------
 Warning -- This program may not be used in any manner that
 competes with the business of Gaussian, Inc. or will provide
 assistance to any competitor of Gaussian, Inc.  The licensee
 of this program is prohibited from giving any competitor of
 Gaussian, Inc. access to this program.  By using this program,
 the user acknowledges that Gaussian, Inc. is engaged in the
 business of creating and licensing software in the field of
 computational chemistry and represents and warrants to the
 licensee that it is not a competitor of Gaussian, Inc. and that
 it will not use this program in any manner prohibited above.
 ---------------------------------------------------------------
  

 Cite this work as:
 Gaussian 16, Revision A.03,
 M. J. Frisch, G. W. Trucks, H. B. Schlegel, G. E. Scuseria, 
 M. A. Robb, J. R. Cheeseman, G. Scalmani, V. Barone, 
 G. A. Petersson, H. Nakatsuji, X. Li, M. Caricato, A. V. Marenich, 
 J. Bloino, B. G. Janesko, R. Gomperts, B. Mennucci, H. P. Hratchian, 
 J. V. Ortiz, A. F. Izmaylov, J. L. Sonnenberg, D. Williams-Young, 
 F. Ding, F. Lipparini, F. Egidi, J. Goings, B. Peng, A. Petrone, 
 T. Henderson, D. Ranasinghe, V. G. Zakrzewski, J. Gao, N. Rega, 
 G. Zheng, W. Liang, M. Hada, M. Ehara, K. Toyota, R. Fukuda, 
 J. Hasegawa, M. Ishida, T. Nakajima, Y. Honda, O. Kitao, H. Nakai, 
 T. Vreven, K. Throssell, J. A. Montgomery, Jr., J. E. Peralta, 
 F. Ogliaro, M. J. Bearpark, J. J. Heyd, E. N. Brothers, K. N. Kudin, 
 V. N. Staroverov, T. A. Keith, R. Kobayashi, J. Normand, 
 K. Raghavachari, A. P. Rendell, J. C. Burant, S. S. Iyengar, 
 J. Tomasi, M. Cossi, J. M. Millam, M. Klene, C. Adamo, R. Cammi, 
 J. W. Ochterski, R. L. Martin, K. Morokuma, O. Farkas, 
 J. B. Foresman, and D. J. Fox, Gaussian, Inc., Wallingford CT, 2016.
 
 ******************************************
 Gaussian 16:  ES64L-G16RevA.03 25-Dec-2016
                 7-Oct-2020 
 ******************************************
 %NoSave
 %nproc=12
 Will use up to   12 processors via shared memory.
 %mem=20GB
 %chk=MN_90_RKT16_BH76_PBE_631Gs
 ----------------------------------------------------------------------
 #P Opt(TS,MaxCyc=50,NoEigenTest,MaxStep=10,AddRedundant) PBEPBE/6-31G*
  5D 7F Integral=UltraFineGrid SCF=(NoSymm,XQC,MaxCyc=120) IOp(1/33=1)
 ----------------------------------------------------------------------
 1/5=1,6=50,8=10,11=1,18=120,26=4,33=1,38=1/1,3;
 2/9=110,12=2,17=6,18=5,40=1/2;
 3/5=1,6=6,7=1,8=11,11=2,25=1,30=1,71=1,74=1009,75=-5/1,2,3;
 4/9=2/1;
 5/5=2,7=120,8=3,13=1,38=5/2,8;
 6/7=2,8=2,9=2,10=2,28=1/1;
 7//1,2,3,16;
 1/5=1,6=50,8=10,11=1,18=20,26=4,33=1/3(2);
 2/9=110/2;
 99//99;
 2/9=110/2;
 3/5=1,6=6,7=1,8=11,11=2,25=1,30=1,71=1,74=1009,75=-5/1,2,3;
 4/5=5,9=2,16=3,69=1/1;
 5/5=2,7=120,8=3,13=1,38=5/2,8;
 7//1,2,3,16;
 1/5=1,6=50,8=10,11=1,18=20,26=4,33=1/3(-5);
 2/9=110/2;
 6/7=2,8=2,9=2,10=2,19=2,28=1/1;
 99/9=1/99;
 Leave Link    1 at Wed Oct  7 16:12:21 2020, MaxMem=  2684354560 cpu:              13.8 elap:               1.3
 (Enter /udrive/faculty/rpeverati/g16/g16/l101.exe)
 ONIOM data not found on unit 2.
 ------------------
 TS search on BH76.
 ------------------
 TstMul:  ICh=     0
 TstMul:  Mul=     2
 TstMul:  ICh=     0
 TstMul:  Mul=     2
 Symbolic Z-matrix:
 Charge =  0 Multiplicity = 2
 H                     1.2621   -0.2201    0. 
 S                     0.        0.22315   0. 
 H                    -0.50058  -1.11545   0. 
 H                    -0.76152  -2.23492   0. 
 
 RdStrC is calling ZToCFu for IStruc=1 NZ=     4.
 PrtBox:  NBox=     1 Levels=  1 BoxLen=    8.00 SMaxX=        4.65
          Shift=            1.439070            4.223380            0.000000
 Box      1 Number                   0 centers from      1 to      4:
 After GenITR:
 ITRead=  0  0  0  0
 MicOpt= -1 -1 -1 -1
 Add virtual bond connecting atoms H4         and H3         Dist= 2.17D+00.
 The following ModRedundant input section has been read:
 
 ITRead=  0  0  0  0
 MicOpt= -1 -1 -1 -1
 NAtoms=      4 NQM=        4 NQMF=       0 NMMI=      0 NMMIF=      0
                NMic=       0 NMicF=      0.
                    Isotopes and Nuclear Properties:
 (Nuclear quadrupole moments (NQMom) in fm**2, nuclear magnetic moments (NMagM)
  in nuclear magnetons)

  Atom         1           2           3           4
 IAtWgt=           1          32           1           1
 AtmWgt=   1.0078250  31.9720718   1.0078250   1.0078250
 NucSpn=           1           0           1           1
 AtZEff=   0.0000000   0.0000000   0.0000000   0.0000000
 NQMom=    0.0000000   0.0000000   0.0000000   0.0000000
 NMagM=    2.7928460   0.0000000   2.7928460   2.7928460
 AtZNuc=   1.0000000  16.0000000   1.0000000   1.0000000
 No MM parameters found.
 Leave Link  101 at Wed Oct  7 16:12:22 2020, MaxMem=  2684354560 cpu:              13.4 elap:               1.3
 (Enter /udrive/faculty/rpeverati/g16/g16/l103.exe)

 GradGradGradGradGradGradGradGradGradGradGradGradGradGradGradGradGradGrad
 Berny optimization.
 Optmz: redundant internal coordinate code flag= 1
 Initialization pass.
                           ----------------------------
                           !    Initial Parameters    !
                           ! (Angstroms and Degrees)  !
 --------------------------                            --------------------------
 ! Name  Definition              Value          Derivative Info.                !
 --------------------------------------------------------------------------------
 ! R1    R(1,2)                  1.3377         estimate D2E/DX2                !
 ! R2    R(2,3)                  1.4291         estimate D2E/DX2                !
 ! R3    R(3,4)                  1.1495         estimate D2E/DX2                !
 ! A1    A(1,2,3)               91.1522         estimate D2E/DX2                !
 ! A2    L(2,3,4,1,-1)         172.6177         estimate D2E/DX2                !
 ! A3    L(2,3,4,1,-2)         180.0            estimate D2E/DX2                !
 --------------------------------------------------------------------------------
 Maximum allowed force set to 1.00D+20.
 Trust Radius=1.00D-01 FncErr=1.00D-07 GrdErr=1.00D-06 EigMax=2.50D+02 EigMin=1.00D-04
 Number of steps in this run=     50 maximum allowed number of steps=    100.
 Search for a saddle point of order  1.
 GradGradGradGradGradGradGradGradGradGradGradGradGradGradGradGradGradGrad

 Leave Link  103 at Wed Oct  7 16:12:23 2020, MaxMem=  2684354560 cpu:               1.4 elap:               0.6
 (Enter /udrive/faculty/rpeverati/g16/g16/l202.exe)
                          Input orientation:                          
 ---------------------------------------------------------------------
 Center     Atomic      Atomic             Coordinates (Angstroms)
 Number     Number       Type             X           Y           Z
 ---------------------------------------------------------------------
      1          1           0        1.262098   -0.220097    0.000000
      2         16           0        0.000000    0.223153    0.000000
      3          1           0       -0.500576   -1.115447    0.000000
      4          1           0       -0.761523   -2.234916    0.000000
 ---------------------------------------------------------------------
                    Distance matrix (angstroms):
                    1          2          3          4
     1  H    0.000000
     2  S    1.337671   0.000000
     3  H    1.977037   1.429135   0.000000
     4  H    2.855616   2.573329   1.149480   0.000000
 Stoichiometry    H3S(2)
 Framework group  CS[SG(H3S)]
 Deg. of freedom     5
 Full point group                 CS      NOp   2
 Largest Abelian subgroup         CS      NOp   2
 Largest concise Abelian subgroup C1      NOp   1
                         Standard orientation:                         
 ---------------------------------------------------------------------
 Center     Atomic      Atomic             Coordinates (Angstroms)
 Number     Number       Type             X           Y           Z
 ---------------------------------------------------------------------
      1          1           0        1.262098   -0.220096    0.000000
      2         16           0        0.000000    0.223154    0.000000
      3          1           0       -0.500576   -1.115447    0.000000
      4          1           0       -0.761522   -2.234916    0.000000
 ---------------------------------------------------------------------
 Rotational constants (GHZ):         287.8185188          61.1990371          50.4679948
 Leave Link  202 at Wed Oct  7 16:12:24 2020, MaxMem=  2684354560 cpu:               1.4 elap:               0.7
 (Enter /udrive/faculty/rpeverati/g16/g16/l301.exe)
 Standard basis: 6-31G(d) (5D, 7F)
 Ernie: Thresh=  0.10000D-02 Tol=  0.10000D-05 Strict=F.
 There are    20 symmetry adapted cartesian basis functions of A'  symmetry.
 There are     5 symmetry adapted cartesian basis functions of A"  symmetry.
 There are    19 symmetry adapted basis functions of A'  symmetry.
 There are     5 symmetry adapted basis functions of A"  symmetry.
    24 basis functions,    64 primitive gaussians,    25 cartesian basis functions
    10 alpha electrons        9 beta electrons
       nuclear repulsion energy        16.4575455250 Hartrees.
 IExCor= 1009 DFT=T Ex=PBE Corr=PBE ExCW=0 ScaHFX=  0.000000
 ScaDFX=  1.000000  1.000000  1.000000  1.000000 ScalE2=  1.000000  1.000000
 IRadAn=      5 IRanWt=     -1 IRanGd=            0 ICorTp=0 IEmpDi=  4
 NAtoms=    4 NActive=    4 NUniq=    4 SFac= 1.00D+00 NAtFMM=   60 NAOKFM=F Big=F
 Integral buffers will be    131072 words long.
 Raffenetti 2 integral format.
 Two-electron integral symmetry is turned on.
 Leave Link  301 at Wed Oct  7 16:12:26 2020, MaxMem=  2684354560 cpu:               3.7 elap:               1.0
 (Enter /udrive/faculty/rpeverati/g16/g16/l302.exe)
 NPDir=0 NMtPBC=     1 NCelOv=     1 NCel=       1 NClECP=     1 NCelD=      1
         NCelK=      1 NCelE2=     1 NClLst=     1 CellRange=     0.0.
 One-electron integrals computed using PRISM.
 One-electron integral symmetry used in STVInt
 NBasis=    24 RedAO= T EigKep=  2.35D-02  NBF=    19     5
 NBsUse=    24 1.00D-06 EigRej= -1.00D+00 NBFU=    19     5
 Precomputing XC quadrature grid using
 IXCGrd= 4 IRadAn=           5 IRanWt=          -1 IRanGd=           0 AccXCQ= 0.00D+00.
 Generated NRdTot=       0 NPtTot=           0 NUsed=           0 NTot=          32
 NSgBfM=    25    25    25    25    25 MxSgAt=     4 MxSgA2=     4.
 Leave Link  302 at Wed Oct  7 16:12:27 2020, MaxMem=  2684354560 cpu:               4.1 elap:               0.9
 (Enter /udrive/faculty/rpeverati/g16/g16/l303.exe)
 DipDrv:  MaxL=1.
 Leave Link  303 at Wed Oct  7 16:12:28 2020, MaxMem=  2684354560 cpu:               2.2 elap:               0.8
 (Enter /udrive/faculty/rpeverati/g16/g16/l401.exe)
 SCF N**3 symmetry information disabled.
 ExpMin= 1.17D-01 ExpMax= 2.19D+04 ExpMxC= 3.30D+03 IAcc=3 IRadAn=         5 AccDes= 0.00D+00
 Harris functional with IExCor= 1009 and IRadAn=       5 diagonalized for initial guess.
 HarFok:  IExCor= 1009 AccDes= 0.00D+00 IRadAn=         5 IDoV= 1 UseB2=F ITyADJ=14
 ICtDFT=  3500011 ScaDFX=  1.000000  1.000000  1.000000  1.000000
 FoFCou: FMM=F IPFlag=           0 FMFlag=      100000 FMFlg1=           0
         NFxFlg=           0 DoJE=T BraDBF=F KetDBF=T FulRan=T
         wScrn=  0.000000 ICntrl=       500 IOpCl=  0 I1Cent=   200000004 NGrid=           0
         NMat0=    1 NMatS0=      1 NMatT0=    0 NMatD0=    1 NMtDS0=    0 NMtDT0=    0
 Petite list used in FoFCou.
 Harris En= -399.621159617874    
 JPrj=0 DoOrth=F DoCkMO=F.
 Initial guess orbital symmetries:
 Alpha Orbitals:
       Occupied  (A') (A') (A') (A') (A") (A') (A') (A') (A") (A')
       Virtual   (A') (A') (A') (A') (A") (A') (A') (A') (A") (A")
                 (A') (A') (A') (A')
 Beta  Orbitals:
       Occupied  (A') (A') (A') (A') (A") (A') (A') (A') (A")
       Virtual   (A') (A') (A') (A') (A') (A") (A') (A') (A') (A")
                 (A") (A') (A') (A') (A')
 The electronic state of the initial guess is 2-A'.
 Initial guess <Sx>= 0.0000 <Sy>= 0.0000 <Sz>= 0.5000 <S**2>= 0.7500 S= 0.5000
 Leave Link  401 at Wed Oct  7 16:12:30 2020, MaxMem=  2684354560 cpu:               4.2 elap:               0.9
 (Enter /udrive/faculty/rpeverati/g16/g16/l502.exe)
 Keep J ints in memory in symmetry-blocked form, NReq=10390937.
 FoFCou: FMM=F IPFlag=           0 FMFlag=           0 FMFlg1=           0
         NFxFlg=           0 DoJE=F BraDBF=F KetDBF=F FulRan=T
         wScrn=  0.000000 ICntrl=       600 IOpCl=  0 I1Cent=           0 NGrid=           0
         NMat0=    1 NMatS0=    300 NMatT0=    0 NMatD0=    1 NMtDS0=    0 NMtDT0=    0
 Petite list used in FoFCou.
 UHF open shell SCF:
 Using DIIS extrapolation, IDIIS=  1040.
 NGot=  2684354560 LenX=  2684325898 LenY=  2684324832
 Requested convergence on RMS density matrix=1.00D-08 within 120 cycles.
 Requested convergence on MAX density matrix=1.00D-06.
 Requested convergence on             energy=1.00D-06.
 No special actions if energy rises.
 Integral accuracy reduced to 1.0D-05 until final iterations.

 Cycle   1  Pass 0  IDiag  1:
 E= -399.677382879276    
 DIIS: error= 8.09D-03 at cycle   1 NSaved=   1.
 NSaved= 1 IEnMin= 1 EnMin= -399.677382879276     IErMin= 1 ErrMin= 8.09D-03
 ErrMax= 8.09D-03  0.00D+00 EMaxC= 1.00D-01 BMatC= 6.83D-03 BMatP= 6.83D-03
 IDIUse=3 WtCom= 9.19D-01 WtEn= 8.09D-02
 Coeff-Com:  0.100D+01
 Coeff-En:   0.100D+01
 Coeff:      0.100D+01
 Gap=     0.249 Goal=   None    Shift=    0.000
 Gap=     0.040 Goal=   None    Shift=    0.000
 GapD=    0.040 DampG=0.250 DampE=1.000 DampFc=0.2500 IDamp=-1.
 Damping current iteration by 2.50D-01
 RMSDP=7.37D-03 MaxDP=7.34D-02              OVMax= 5.99D-02

 Cycle   2  Pass 0  IDiag  1:
 E= -399.678437784594     Delta-E=       -0.001054905318 Rises=F Damp=T
 DIIS: error= 5.13D-03 at cycle   2 NSaved=   2.
 NSaved= 2 IEnMin= 2 EnMin= -399.678437784594     IErMin= 2 ErrMin= 5.13D-03
 ErrMax= 5.13D-03  0.00D+00 EMaxC= 1.00D-01 BMatC= 3.31D-03 BMatP= 6.83D-03
 IDIUse=3 WtCom= 9.49D-01 WtEn= 5.13D-02
 Coeff-Com: -0.133D+01 0.233D+01
 Coeff-En:   0.000D+00 0.100D+01
 Coeff:     -0.126D+01 0.226D+01
 Gap=     0.228 Goal=   None    Shift=    0.000
 Gap=     0.058 Goal=   None    Shift=    0.000
 RMSDP=4.17D-03 MaxDP=3.45D-02 DE=-1.05D-03 OVMax= 3.99D-02

 Cycle   3  Pass 0  IDiag  1:
 E= -399.681326985668     Delta-E=       -0.002889201074 Rises=F Damp=F
 DIIS: error= 2.47D-03 at cycle   3 NSaved=   3.
 NSaved= 3 IEnMin= 3 EnMin= -399.681326985668     IErMin= 3 ErrMin= 2.47D-03
 ErrMax= 2.47D-03  0.00D+00 EMaxC= 1.00D-01 BMatC= 9.40D-04 BMatP= 3.31D-03
 IDIUse=3 WtCom= 9.75D-01 WtEn= 2.47D-02
 Coeff-Com: -0.948D+00 0.122D+01 0.733D+00
 Coeff-En:   0.000D+00 0.000D+00 0.100D+01
 Coeff:     -0.925D+00 0.119D+01 0.739D+00
 Gap=     0.227 Goal=   None    Shift=    0.000
 Gap=     0.059 Goal=   None    Shift=    0.000
 RMSDP=1.32D-03 MaxDP=1.11D-02 DE=-2.89D-03 OVMax= 1.11D-02

 Cycle   4  Pass 0  IDiag  1:
 E= -399.681694591514     Delta-E=       -0.000367605846 Rises=F Damp=F
 DIIS: error= 4.18D-04 at cycle   4 NSaved=   4.
 NSaved= 4 IEnMin= 4 EnMin= -399.681694591514     IErMin= 4 ErrMin= 4.18D-04
 ErrMax= 4.18D-04  0.00D+00 EMaxC= 1.00D-01 BMatC= 2.32D-05 BMatP= 9.40D-04
 IDIUse=3 WtCom= 9.96D-01 WtEn= 4.18D-03
 Coeff-Com: -0.184D+00 0.204D+00 0.144D+00 0.836D+00
 Coeff-En:   0.000D+00 0.000D+00 0.000D+00 0.100D+01
 Coeff:     -0.183D+00 0.203D+00 0.143D+00 0.837D+00
 Gap=     0.227 Goal=   None    Shift=    0.000
 Gap=     0.061 Goal=   None    Shift=    0.000
 RMSDP=2.56D-04 MaxDP=1.75D-03 DE=-3.68D-04 OVMax= 3.98D-03

 Cycle   5  Pass 0  IDiag  1:
 E= -399.681703116121     Delta-E=       -0.000008524607 Rises=F Damp=F
 DIIS: error= 3.16D-04 at cycle   5 NSaved=   5.
 NSaved= 5 IEnMin= 5 EnMin= -399.681703116121     IErMin= 5 ErrMin= 3.16D-04
 ErrMax= 3.16D-04  0.00D+00 EMaxC= 1.00D-01 BMatC= 9.65D-06 BMatP= 2.32D-05
 IDIUse=3 WtCom= 9.97D-01 WtEn= 3.16D-03
 Coeff-Com:  0.434D-01-0.710D-01-0.560D-01 0.392D+00 0.692D+00
 Coeff-En:   0.000D+00 0.000D+00 0.000D+00 0.375D-01 0.963D+00
 Coeff:      0.433D-01-0.708D-01-0.558D-01 0.391D+00 0.693D+00
 Gap=     0.227 Goal=   None    Shift=    0.000
 Gap=     0.061 Goal=   None    Shift=    0.000
 RMSDP=1.37D-04 MaxDP=1.11D-03 DE=-8.52D-06 OVMax= 1.26D-03

 Cycle   6  Pass 0  IDiag  1:
 E= -399.681706936469     Delta-E=       -0.000003820348 Rises=F Damp=F
 DIIS: error= 4.52D-05 at cycle   6 NSaved=   6.
 NSaved= 6 IEnMin= 6 EnMin= -399.681706936469     IErMin= 6 ErrMin= 4.52D-05
 ErrMax= 4.52D-05  0.00D+00 EMaxC= 1.00D-01 BMatC= 1.36D-07 BMatP= 9.65D-06
 IDIUse=1 WtCom= 1.00D+00 WtEn= 0.00D+00
 Coeff-Com:  0.175D-01-0.262D-01-0.211D-01 0.105D+00 0.218D+00 0.706D+00
 Coeff:      0.175D-01-0.262D-01-0.211D-01 0.105D+00 0.218D+00 0.706D+00
 Gap=     0.227 Goal=   None    Shift=    0.000
 Gap=     0.061 Goal=   None    Shift=    0.000
 RMSDP=1.52D-05 MaxDP=7.71D-05 DE=-3.82D-06 OVMax= 1.94D-04

 Cycle   7  Pass 0  IDiag  1:
 E= -399.681706988056     Delta-E=       -0.000000051586 Rises=F Damp=F
 DIIS: error= 1.30D-05 at cycle   7 NSaved=   7.
 NSaved= 7 IEnMin= 7 EnMin= -399.681706988056     IErMin= 7 ErrMin= 1.30D-05
 ErrMax= 1.30D-05  0.00D+00 EMaxC= 1.00D-01 BMatC= 1.19D-08 BMatP= 1.36D-07
 IDIUse=1 WtCom= 1.00D+00 WtEn= 0.00D+00
 Coeff-Com:  0.159D-02-0.188D-02-0.144D-02-0.307D-03 0.339D-02 0.217D+00
 Coeff-Com:  0.782D+00
 Coeff:      0.159D-02-0.188D-02-0.144D-02-0.307D-03 0.339D-02 0.217D+00
 Coeff:      0.782D+00
 Gap=     0.227 Goal=   None    Shift=    0.000
 Gap=     0.061 Goal=   None    Shift=    0.000
 RMSDP=4.02D-06 MaxDP=2.27D-05 DE=-5.16D-08 OVMax= 4.26D-05

 Initial convergence to 1.0D-05 achieved.  Increase integral accuracy.
 Cycle   8  Pass 1  IDiag  1:
 E= -399.681709563354     Delta-E=       -0.000002575299 Rises=F Damp=F
 DIIS: error= 2.08D-06 at cycle   1 NSaved=   1.
 NSaved= 1 IEnMin= 1 EnMin= -399.681709563354     IErMin= 1 ErrMin= 2.08D-06
 ErrMax= 2.08D-06  0.00D+00 EMaxC= 1.00D-01 BMatC= 4.55D-10 BMatP= 4.55D-10
 IDIUse=1 WtCom= 1.00D+00 WtEn= 0.00D+00
 Coeff-Com:  0.100D+01
 Coeff:      0.100D+01
 Gap=     0.227 Goal=   None    Shift=    0.000
 Gap=     0.061 Goal=   None    Shift=    0.000
 RMSDP=4.02D-06 MaxDP=2.27D-05 DE=-2.58D-06 OVMax= 1.01D-05

 Cycle   9  Pass 1  IDiag  1:
 E= -399.681709563478     Delta-E=       -0.000000000123 Rises=F Damp=F
 DIIS: error= 1.15D-06 at cycle   2 NSaved=   2.
 NSaved= 2 IEnMin= 2 EnMin= -399.681709563478     IErMin= 2 ErrMin= 1.15D-06
 ErrMax= 1.15D-06  0.00D+00 EMaxC= 1.00D-01 BMatC= 1.78D-10 BMatP= 4.55D-10
 IDIUse=1 WtCom= 1.00D+00 WtEn= 0.00D+00
 Coeff-Com:  0.362D+00 0.638D+00
 Coeff:      0.362D+00 0.638D+00
 Gap=     0.227 Goal=   None    Shift=    0.000
 Gap=     0.061 Goal=   None    Shift=    0.000
 RMSDP=6.65D-07 MaxDP=4.66D-06 DE=-1.23D-10 OVMax= 7.44D-06

 Cycle  10  Pass 1  IDiag  1:
 E= -399.681709563537     Delta-E=       -0.000000000059 Rises=F Damp=F
 DIIS: error= 4.31D-07 at cycle   3 NSaved=   3.
 NSaved= 3 IEnMin= 3 EnMin= -399.681709563537     IErMin= 3 ErrMin= 4.31D-07
 ErrMax= 4.31D-07  0.00D+00 EMaxC= 1.00D-01 BMatC= 4.02D-11 BMatP= 1.78D-10
 IDIUse=1 WtCom= 1.00D+00 WtEn= 0.00D+00
 Coeff-Com:  0.733D-01 0.329D+00 0.597D+00
 Coeff:      0.733D-01 0.329D+00 0.597D+00
 Gap=     0.227 Goal=   None    Shift=    0.000
 Gap=     0.061 Goal=   None    Shift=    0.000
 RMSDP=2.60D-07 MaxDP=2.30D-06 DE=-5.93D-11 OVMax= 2.02D-06

 Cycle  11  Pass 1  IDiag  1:
 E= -399.681709563552     Delta-E=       -0.000000000014 Rises=F Damp=F
 DIIS: error= 1.09D-07 at cycle   4 NSaved=   4.
 NSaved= 4 IEnMin= 4 EnMin= -399.681709563552     IErMin= 4 ErrMin= 1.09D-07
 ErrMax= 1.09D-07  0.00D+00 EMaxC= 1.00D-01 BMatC= 2.33D-12 BMatP= 4.02D-11
 IDIUse=1 WtCom= 1.00D+00 WtEn= 0.00D+00
 Coeff-Com: -0.290D-01 0.375D-01 0.207D+00 0.785D+00
 Coeff:     -0.290D-01 0.375D-01 0.207D+00 0.785D+00
 Gap=     0.227 Goal=   None    Shift=    0.000
 Gap=     0.061 Goal=   None    Shift=    0.000
 RMSDP=6.84D-08 MaxDP=7.44D-07 DE=-1.43D-11 OVMax= 1.09D-06

 Cycle  12  Pass 1  IDiag  1:
 E= -399.681709563552     Delta-E=       -0.000000000001 Rises=F Damp=F
 DIIS: error= 6.36D-08 at cycle   5 NSaved=   5.
 NSaved= 5 IEnMin= 5 EnMin= -399.681709563552     IErMin= 5 ErrMin= 6.36D-08
 ErrMax= 6.36D-08  0.00D+00 EMaxC= 1.00D-01 BMatC= 3.36D-13 BMatP= 2.33D-12
 IDIUse=1 WtCom= 1.00D+00 WtEn= 0.00D+00
 Coeff-Com: -0.198D-01-0.186D-01 0.145D-01 0.324D+00 0.700D+00
 Coeff:     -0.198D-01-0.186D-01 0.145D-01 0.324D+00 0.700D+00
 Gap=     0.227 Goal=   None    Shift=    0.000
 Gap=     0.061 Goal=   None    Shift=    0.000
 RMSDP=2.84D-08 MaxDP=2.62D-07 DE=-6.82D-13 OVMax= 2.78D-07

 Cycle  13  Pass 1  IDiag  1:
 E= -399.681709563553     Delta-E=       -0.000000000000 Rises=F Damp=F
 DIIS: error= 1.13D-08 at cycle   6 NSaved=   6.
 NSaved= 6 IEnMin= 6 EnMin= -399.681709563553     IErMin= 6 ErrMin= 1.13D-08
 ErrMax= 1.13D-08  0.00D+00 EMaxC= 1.00D-01 BMatC= 1.19D-14 BMatP= 3.36D-13
 IDIUse=1 WtCom= 1.00D+00 WtEn= 0.00D+00
 Coeff-Com: -0.360D-02-0.796D-02-0.964D-02 0.492D-01 0.204D+00 0.768D+00
 Coeff:     -0.360D-02-0.796D-02-0.964D-02 0.492D-01 0.204D+00 0.768D+00
 Gap=     0.227 Goal=   None    Shift=    0.000
 Gap=     0.061 Goal=   None    Shift=    0.000
 RMSDP=4.99D-09 MaxDP=3.34D-08 DE=-3.41D-13 OVMax= 8.67D-08

 SCF Done:  E(UPBE-PBE) =  -399.681709564     A.U. after   13 cycles
            NFock= 13  Conv=0.50D-08     -V/T= 2.0014
 <Sx>= 0.0000 <Sy>= 0.0000 <Sz>= 0.5000 <S**2>= 0.7549 S= 0.5025
 <L.S>= 0.000000000000E+00
 KE= 3.991306259625D+02 PE=-9.833743226289D+02 EE= 1.681044415779D+02
 Annihilation of the first spin contaminant:
 S**2 before annihilation     0.7549,   after     0.7500
 Leave Link  502 at Wed Oct  7 16:12:32 2020, MaxMem=  2684354560 cpu:              13.9 elap:               1.6
 (Enter /udrive/faculty/rpeverati/g16/g16/l508.exe)
 QCSCF skips out because SCF is already converged.
 Leave Link  508 at Wed Oct  7 16:12:33 2020, MaxMem=  2684354560 cpu:               0.9 elap:               0.5
 (Enter /udrive/faculty/rpeverati/g16/g16/l601.exe)
 Copying SCF densities to generalized density rwf, IOpCl= 1 IROHF=0.

 **********************************************************************

            Population analysis using the SCF density.

 **********************************************************************

 Orbital symmetries:
 Alpha Orbitals:
       Occupied  (A') (A') (A') (A') (A") (A') (A') (A') (A') (A")
       Virtual   (A') (A') (A') (A') (A') (A") (A') (A') (A') (A")
                 (A") (A') (A') (A')
 Beta  Orbitals:
       Occupied  (A') (A') (A') (A') (A") (A') (A') (A') (A")
       Virtual   (A') (A') (A') (A') (A') (A") (A') (A') (A') (A")
                 (A") (A') (A') (A') (A')
 The electronic state is 2-A'.
 Alpha  occ. eigenvalues --  -88.04894  -7.68082  -5.70497  -5.70111  -5.69091
 Alpha  occ. eigenvalues --   -0.68659  -0.43952  -0.35408  -0.24811  -0.22698
 Alpha virt. eigenvalues --   -0.00024   0.06888   0.28753   0.30798   0.33051
 Alpha virt. eigenvalues --    0.33503   0.64018   0.66642   0.68363   0.69297
 Alpha virt. eigenvalues --    0.70156   0.86631   0.94542   1.10239
  Beta  occ. eigenvalues --  -88.04701  -7.67883  -5.70114  -5.69819  -5.68967
  Beta  occ. eigenvalues --   -0.67493  -0.41880  -0.33968  -0.22188
  Beta virt. eigenvalues --   -0.16126   0.00814   0.09456   0.29209   0.31462
  Beta virt. eigenvalues --    0.33783   0.34936   0.66367   0.68649   0.70319
  Beta virt. eigenvalues --    0.71510   0.76314   0.89739   0.95948   1.10797
          Condensed to atoms (all electrons):
               1          2          3          4
     1  H    0.612873   0.267756  -0.017080   0.003115
     2  S    0.267756  15.808068   0.180868  -0.101775
     3  H   -0.017080   0.180868   0.752529   0.115339
     4  H    0.003115  -0.101775   0.115339   0.930083
          Atomic-Atomic Spin Densities.
               1          2          3          4
     1  H   -0.008658  -0.000677  -0.000916   0.001505
     2  S   -0.000677   0.423842   0.029901  -0.102126
     3  H   -0.000916   0.029901  -0.114874   0.001038
     4  H    0.001505  -0.102126   0.001038   0.842240
 Mulliken charges and spin densities:
               1          2
     1  H    0.133335  -0.008747
     2  S   -0.154917   0.350940
     3  H   -0.031656  -0.084851
     4  H    0.053238   0.742658
 Sum of Mulliken charges =   0.00000   1.00000
 Mulliken charges and spin densities with hydrogens summed into heavy atoms:
               1          2
     2  S    0.000000   1.000000
 Electronic spatial extent (au):  <R**2>=             68.4087
 Charge=              0.0000 electrons
 Dipole moment (field-independent basis, Debye):
    X=              0.7051    Y=             -1.2226    Z=              0.0000  Tot=              1.4114
 Quadrupole moment (field-independent basis, Debye-Ang):
   XX=            -13.7286   YY=            -14.7775   ZZ=            -17.8387
   XY=              0.3629   XZ=              0.0000   YZ=              0.0000
 Traceless Quadrupole moment (field-independent basis, Debye-Ang):
   XX=              1.7196   YY=              0.6708   ZZ=             -2.3904
   XY=              0.3629   XZ=              0.0000   YZ=              0.0000
 Octapole moment (field-independent basis, Debye-Ang**2):
  XXX=              2.5879  YYY=              1.3575  ZZZ=              0.0000  XYY=              0.4302
  XXY=              0.5911  XXZ=              0.0000  XZZ=              0.5170  YZZ=              0.1279
  YYZ=              0.0000  XYZ=              0.0000
 Hexadecapole moment (field-independent basis, Debye-Ang**3):
 XXXX=            -27.1594 YYYY=            -62.7475 ZZZZ=            -24.4151 XXXY=             -6.9871
 XXXZ=              0.0000 YYYX=             -5.7866 YYYZ=              0.0000 ZZZX=              0.0000
 ZZZY=              0.0000 XXYY=            -15.3321 XXZZ=             -8.9805 YYZZ=            -15.0447
 XXYZ=              0.0000 YYXZ=              0.0000 ZZXY=             -2.1781
 N-N= 1.645754552498D+01 E-N=-9.833743225321D+02  KE= 3.991306259625D+02
                          Isotropic Fermi Contact Couplings
        Atom                 a.u.       MegaHertz       Gauss      10(-4) cm-1
     1  H(1)              -0.00361     -16.13521      -5.75745      -5.38213
     2  S(33)              0.03084      10.59218       3.77955       3.53317
     3  H(1)              -0.02687    -120.11340     -42.85945     -40.06552
     4  H(1)               0.24290    1085.75512     387.42443     362.16893
 --------------------------------------------------------
       Center         ----  Spin Dipole Couplings  ----
                      3XX-RR        3YY-RR        3ZZ-RR
 --------------------------------------------------------
     1   Atom        0.017028      0.001835     -0.018864
     2   Atom       -0.594486      1.472640     -0.878154
     3   Atom       -0.056751      0.131652     -0.074901
     4   Atom        0.004593     -0.010015      0.005423
 --------------------------------------------------------
                        XY            XZ            YZ
 --------------------------------------------------------
     1   Atom       -0.000315      0.000000      0.000000
     2   Atom        0.834628      0.000000      0.000000
     3   Atom        0.059761      0.000000      0.000000
     4   Atom       -0.003666      0.000000      0.000000
 --------------------------------------------------------


 ---------------------------------------------------------------------------------
              Anisotropic Spin Dipole Couplings in Principal Axis System
 ---------------------------------------------------------------------------------

       Atom             a.u.   MegaHertz   Gauss  10(-4) cm-1        Axes

              Baa    -0.0189   -10.065    -3.591    -3.357  0.0000  0.0000  1.0000
     1 H(1)   Bbb     0.0018     0.976     0.348     0.326  0.0207  0.9998  0.0000
              Bcc     0.0170     9.089     3.243     3.032  0.9998 -0.0207  0.0000
 
              Baa    -0.8894   -36.465   -13.011   -12.163  0.9429 -0.3332  0.0000
     2 S(33)  Bbb    -0.8782   -36.004   -12.847   -12.009  0.0000  0.0000  1.0000
              Bcc     1.7676    72.468    25.858    24.173  0.3332  0.9429  0.0000
 
              Baa    -0.0749   -39.963   -14.260   -13.330  0.0000  0.0000  1.0000
     3 H(1)   Bbb    -0.0741   -39.541   -14.109   -13.189  0.9603 -0.2789  0.0000
              Bcc     0.1490    79.504    28.369    26.520  0.2789  0.9603  0.0000
 
              Baa    -0.0109    -5.807    -2.072    -1.937  0.2305  0.9731  0.0000
     4 H(1)   Bbb     0.0054     2.893     1.032     0.965  0.0000  0.0000  1.0000
              Bcc     0.0055     2.914     1.040     0.972  0.9731 -0.2305  0.0000
 

 ---------------------------------------------------------------------------------

 No NMR shielding tensors so no spin-rotation constants.
 Leave Link  601 at Wed Oct  7 16:12:34 2020, MaxMem=  2684354560 cpu:               5.1 elap:               0.9
 (Enter /udrive/faculty/rpeverati/g16/g16/l701.exe)
 ... and contract with generalized density number  0.
 Compute integral first derivatives.
 Leave Link  701 at Wed Oct  7 16:12:35 2020, MaxMem=  2684354560 cpu:               3.7 elap:               0.8
 (Enter /udrive/faculty/rpeverati/g16/g16/l702.exe)
 L702 exits ... SP integral derivatives will be done elsewhere.
 Leave Link  702 at Wed Oct  7 16:12:36 2020, MaxMem=  2684354560 cpu:               1.5 elap:               0.6
 (Enter /udrive/faculty/rpeverati/g16/g16/l703.exe)
 Integral derivatives from FoFJK, PRISM(SPDF).
 Compute integral first derivatives, UseDBF=F ICtDFT=           0.
 Calling FoFJK, ICntrl=      2527 FMM=F ISym2X=1 I1Cent= 0 IOpClX= 0 NMat=1 NMatS=1 NMatT=0.
 FoFJK:  IHMeth= 1 ICntrl=    2527 DoSepK=F KAlg= 0 I1Cent=           0 FoldK=F
 IRaf=         0 NMat=       1 IRICut=       1 DoRegI=T DoRafI=F ISym2E= 1 IDoP0=0 IntGTp=1.
 FoFCou: FMM=F IPFlag=           0 FMFlag=      100000 FMFlg1=         800
         NFxFlg=           0 DoJE=F BraDBF=F KetDBF=F FulRan=T
         wScrn=  0.000000 ICntrl=      2527 IOpCl=  0 I1Cent=           0 NGrid=           0
         NMat0=    1 NMatS0=      1 NMatT0=    0 NMatD0=    1 NMtDS0=    0 NMtDT0=    0
 Petite list used in FoFCou.
 Leave Link  703 at Wed Oct  7 16:12:37 2020, MaxMem=  2684354560 cpu:               5.8 elap:               0.9
 (Enter /udrive/faculty/rpeverati/g16/g16/l716.exe)
 Dipole        = 2.77424610D-01-4.81013337D-01 0.00000000D+00
 ***** Axes restored to original set *****
 -------------------------------------------------------------------
 Center     Atomic                   Forces (Hartrees/Bohr)
 Number     Number              X              Y              Z
 -------------------------------------------------------------------
      1        1           0.010993350   -0.003879769   -0.000000000
      2       16          -0.006129438    0.017952181   -0.000000000
      3        1          -0.005313586   -0.018027070   -0.000000000
      4        1           0.000449674    0.003954658   -0.000000000
 -------------------------------------------------------------------
 Cartesian Forces:  Max     0.018027070 RMS     0.008489249
 Leave Link  716 at Wed Oct  7 16:12:38 2020, MaxMem=  2684354560 cpu:               2.1 elap:               0.6
 (Enter /udrive/faculty/rpeverati/g16/g16/l103.exe)

 GradGradGradGradGradGradGradGradGradGradGradGradGradGradGradGradGradGrad
 Berny optimization.
 Optmz: redundant internal coordinate code flag= 1
 FormGI is forming the generalized inverse of G from B-inverse, IUseBI=4.
 Internal  Forces:  Max     0.014886481 RMS     0.007895534
 Search for a saddle point.
 Step number   1 out of a maximum of   50
 All quantities printed in internal units (Hartrees-Bohrs-Radians)
 Swapping is turned off.
 Second derivative matrix not updated -- first step.
 The second derivative matrix:
                          R1        R2        R3        A1        A2
           R1           0.26609
           R2           0.00000   0.20405
           R3           0.00000   0.00000   0.12293
           A1           0.00000   0.00000   0.00000   0.16000
           A2           0.00000   0.00000   0.00000   0.00000   0.00230
           A3           0.00000   0.00000   0.00000   0.00000   0.00000
                          A3
           A3           0.00230
 ITU=  0
 Eigenvectors of the second derivative matrix:
                           1         2         3         4         5
     Eigenvalues --     0.00230   0.00230   0.12293   0.16000   0.20405
   1         R1         0.00000   0.00000   0.00000  -0.00000   0.00000
   2         R2        -0.00000  -0.00000  -0.00000  -0.00000  -1.00000
   3         R3         0.00000   0.00000   1.00000  -0.00000  -0.00000
   4         A1         0.00000  -0.00000  -0.00000  -1.00000   0.00000
   5         A2        -0.33267   0.94304  -0.00000  -0.00000  -0.00000
   6         A3         0.94304   0.33267  -0.00000   0.00000  -0.00000
                           6
     Eigenvalues --     0.26609
   1         R1         1.00000
   2         R2         0.00000
   3         R3        -0.00000
   4         A1        -0.00000
   5         A2         0.00000
   6         A3        -0.00000
 Eigenvalue     1 is   2.30D-03 should be less than     0.000000 Eigenvector:
                          A3        A2        R3        R1        R2
   1                    0.94304  -0.33267   0.00000   0.00000  -0.00000
                          A1
   1                    0.00000
 RLam0= 2.35D-03.
 Iter=   1 RLamda= 0.00000000D+00 Sum=-2.10122955D-03.
 Iter=   2 RLamda=-2.10122955D-03 Sum=-1.90373757D-03.
 Iter=   3 RLamda=-1.90373757D-03 Sum=-1.91461042D-03.
 Iter=   4 RLamda=-1.91461042D-03 Sum=-1.91398914D-03.
 Iter=   5 RLamda=-1.91398914D-03 Sum=-1.91402456D-03.
 Iter=   6 RLamda=-1.91402456D-03 Sum=-1.91402254D-03.
 RFO step:  Lambda0=2.346071269D-03 Lambda=-1.91402456D-03.
 Linear search not attempted -- option 19 set.
 Maximum step size (   0.100) exceeded in Quadratic search.
    -- Step size scaled by   0.296
 Iteration  1 RMS(Cart)=  0.03525664 RMS(Int)=  0.00136023
 Iteration  2 RMS(Cart)=  0.00134472 RMS(Int)=  0.00000140
 Iteration  3 RMS(Cart)=  0.00000146 RMS(Int)=  0.00000000
 Iteration  4 RMS(Cart)=  0.00000000 RMS(Int)=  0.00000000
 ITry= 1 IFail=0 DXMaxC= 5.06D-02 DCOld= 1.00D+10 DXMaxT= 1.00D-01 DXLimC= 3.00D+00 Rises=F
 ClnCor:  largest displacement from symmetrization is 5.06D-02 for atom     3.
 Variable       Old X    -DE/DX   Delta X   Delta X   Delta X     New X
                                 (Linear)    (Quad)   (Total)
    R1        2.52783   0.01165   0.00000   0.01288   0.01271   2.54054
    R2        2.70067   0.01489   0.00000   0.02140   0.02033   2.72101
    R3        2.17220  -0.00395   0.00000  -0.00937  -0.01081   2.16140
    A1        1.59091  -0.00004   0.00000  -0.00007   0.00026   1.59117
    A2        3.01275   0.00099   0.00000   0.03823   0.03954   3.05229
    A3        3.14159   0.00000   0.00000   0.08847   0.00000   3.14159
         Item               Value     Threshold  Converged?
 Maximum Force            0.014886     0.000450     NO 
 RMS     Force            0.007896     0.000300     NO 
 Maximum Displacement     0.035170     0.001800     NO 
 RMS     Displacement     0.024369     0.001200     NO 
 Predicted change in Energy=-4.599625D-04
 Lowest energy point so far.  Saving SCF results.
 Largest change from initial coordinates is atom    4       0.019 Angstoms.
 GradGradGradGradGradGradGradGradGradGradGradGradGradGradGradGradGradGrad

 Leave Link  103 at Wed Oct  7 16:12:39 2020, MaxMem=  2684354560 cpu:               3.2 elap:               0.6
 (Enter /udrive/faculty/rpeverati/g16/g16/l202.exe)
                          Input orientation:                          
 ---------------------------------------------------------------------
 Center     Atomic      Atomic             Coordinates (Angstroms)
 Number     Number       Type             X           Y           Z
 ---------------------------------------------------------------------
      1          1           0        1.271955   -0.205307    0.000000
      2         16           0       -0.001871    0.224546    0.000000
      3          1           0       -0.489951   -1.130104    0.000000
      4          1           0       -0.780134   -2.236442    0.000000
 ---------------------------------------------------------------------
                    Distance matrix (angstroms):
                    1          2          3          4
     1  H    0.000000
     2  S    1.344398   0.000000
     3  H    1.989864   1.439895   0.000000
     4  H    2.887313   2.581115   1.143761   0.000000
 Stoichiometry    H3S(2)
 Framework group  CS[SG(H3S)]
 Deg. of freedom     5
 Full point group                 CS      NOp   2
 RotChk:  IX=0 Diff= 2.49D-03
 Largest Abelian subgroup         CS      NOp   2
 Largest concise Abelian subgroup C1      NOp   1
                         Standard orientation:                         
 ---------------------------------------------------------------------
 Center     Atomic      Atomic             Coordinates (Angstroms)
 Number     Number       Type             X           Y           Z
 ---------------------------------------------------------------------
      1          1           0        1.273066   -0.208650    0.000000
      2         16           0        0.000000    0.223447    0.000000
      3          1           0       -0.490467   -1.130340    0.000000
      4          1           0       -0.782600   -2.236165    0.000000
 ---------------------------------------------------------------------
 Rotational constants (GHZ):         285.5208858          60.6537749          50.0265372
 Leave Link  202 at Wed Oct  7 16:12:40 2020, MaxMem=  2684354560 cpu:               1.3 elap:               0.5
 (Enter /udrive/faculty/rpeverati/g16/g16/l301.exe)
 Standard basis: 6-31G(d) (5D, 7F)
 Ernie: Thresh=  0.10000D-02 Tol=  0.10000D-05 Strict=F.
 There are    20 symmetry adapted cartesian basis functions of A'  symmetry.
 There are     5 symmetry adapted cartesian basis functions of A"  symmetry.
 There are    19 symmetry adapted basis functions of A'  symmetry.
 There are     5 symmetry adapted basis functions of A"  symmetry.
    24 basis functions,    64 primitive gaussians,    25 cartesian basis functions
    10 alpha electrons        9 beta electrons
       nuclear repulsion energy        16.3702188744 Hartrees.
 IExCor= 1009 DFT=T Ex=PBE Corr=PBE ExCW=0 ScaHFX=  0.000000
 ScaDFX=  1.000000  1.000000  1.000000  1.000000 ScalE2=  1.000000  1.000000
 IRadAn=      5 IRanWt=     -1 IRanGd=            0 ICorTp=0 IEmpDi=  4
 NAtoms=    4 NActive=    4 NUniq=    4 SFac= 1.00D+00 NAtFMM=   60 NAOKFM=F Big=F
 Integral buffers will be    131072 words long.
 Raffenetti 2 integral format.
 Two-electron integral symmetry is turned on.
 Leave Link  301 at Wed Oct  7 16:12:41 2020, MaxMem=  2684354560 cpu:               2.2 elap:               0.6
 (Enter /udrive/faculty/rpeverati/g16/g16/l302.exe)
 NPDir=0 NMtPBC=     1 NCelOv=     1 NCel=       1 NClECP=     1 NCelD=      1
         NCelK=      1 NCelE2=     1 NClLst=     1 CellRange=     0.0.
 One-electron integrals computed using PRISM.
 One-electron integral symmetry used in STVInt
 NBasis=    24 RedAO= T EigKep=  2.36D-02  NBF=    19     5
 NBsUse=    24 1.00D-06 EigRej= -1.00D+00 NBFU=    19     5
 Precomputing XC quadrature grid using
 IXCGrd= 4 IRadAn=           5 IRanWt=          -1 IRanGd=           0 AccXCQ= 0.00D+00.
 Generated NRdTot=       0 NPtTot=           0 NUsed=           0 NTot=          32
 NSgBfM=    25    25    25    25    25 MxSgAt=     4 MxSgA2=     4.
 Leave Link  302 at Wed Oct  7 16:12:42 2020, MaxMem=  2684354560 cpu:               6.4 elap:               1.0
 (Enter /udrive/faculty/rpeverati/g16/g16/l303.exe)
 DipDrv:  MaxL=1.
 Leave Link  303 at Wed Oct  7 16:12:43 2020, MaxMem=  2684354560 cpu:               1.8 elap:               0.6
 (Enter /udrive/faculty/rpeverati/g16/g16/l401.exe)
 Initial guess from the checkpoint file:  "MN_90_RKT16_BH76_PBE_631Gs.chk"
 SCF N**3 symmetry information disabled.
 B after Tr=     0.000000   -0.000000    0.000000
         Rot=    1.000000    0.000000    0.000000    0.000553 Ang=   0.06 deg.
 Guess basis will be translated and rotated to current coordinates.
 JPrj=2 DoOrth=T DoCkMO=T.
 Initial guess orbital symmetries:
 Alpha Orbitals:
       Occupied  (A') (A') (A') (A') (A") (A') (A') (A') (A') (A")
       Virtual   (A') (A') (A') (A') (A') (A") (A') (A') (A') (A")
                 (A") (A') (A') (A')
 Beta  Orbitals:
       Occupied  (A') (A') (A') (A') (A") (A') (A') (A') (A")
       Virtual   (A') (A') (A') (A') (A') (A") (A') (A') (A') (A")
                 (A") (A') (A') (A') (A')
 The electronic state of the initial guess is 2-A'.
 Initial guess <Sx>= 0.0000 <Sy>= 0.0000 <Sz>= 0.5000 <S**2>= 0.7550 S= 0.5025
 Generating alternative initial guess.
 ExpMin= 1.17D-01 ExpMax= 2.19D+04 ExpMxC= 3.30D+03 IAcc=2 IRadAn=         4 AccDes= 0.00D+00
 Harris functional with IExCor= 1009 and IRadAn=       4 diagonalized for initial guess.
 HarFok:  IExCor= 1009 AccDes= 0.00D+00 IRadAn=         4 IDoV= 1 UseB2=F ITyADJ=14
 ICtDFT=  3500011 ScaDFX=  1.000000  1.000000  1.000000  1.000000
 FoFCou: FMM=F IPFlag=           0 FMFlag=      100000 FMFlg1=           0
         NFxFlg=           0 DoJE=T BraDBF=F KetDBF=T FulRan=T
         wScrn=  0.000000 ICntrl=       500 IOpCl=  0 I1Cent=   200000004 NGrid=           0
         NMat0=    1 NMatS0=      1 NMatT0=    0 NMatD0=    1 NMtDS0=    0 NMtDT0=    0
 Petite list used in FoFCou.
 Harris En= -399.621716443489    
 Leave Link  401 at Wed Oct  7 16:12:44 2020, MaxMem=  2684354560 cpu:               5.2 elap:               0.9
 (Enter /udrive/faculty/rpeverati/g16/g16/l502.exe)
 Keep J ints in memory in symmetry-blocked form, NReq=10390937.
 FoFCou: FMM=F IPFlag=           0 FMFlag=           0 FMFlg1=           0
         NFxFlg=           0 DoJE=F BraDBF=F KetDBF=F FulRan=T
         wScrn=  0.000000 ICntrl=       600 IOpCl=  0 I1Cent=           0 NGrid=           0
         NMat0=    1 NMatS0=    300 NMatT0=    0 NMatD0=    1 NMtDS0=    0 NMtDT0=    0
 Petite list used in FoFCou.
 UHF open shell SCF:
 Using DIIS extrapolation, IDIIS=  1040.
 NGot=  2684354560 LenX=  2684325898 LenY=  2684324832
 Requested convergence on RMS density matrix=1.00D-08 within 120 cycles.
 Requested convergence on MAX density matrix=1.00D-06.
 Requested convergence on             energy=1.00D-06.
 No special actions if energy rises.
 Integral accuracy reduced to 1.0D-05 until final iterations.

 Cycle   1  Pass 0  IDiag  1:
 E= -399.682119957104    
 DIIS: error= 8.57D-04 at cycle   1 NSaved=   1.
 NSaved= 1 IEnMin= 1 EnMin= -399.682119957104     IErMin= 1 ErrMin= 8.57D-04
 ErrMax= 8.57D-04  0.00D+00 EMaxC= 1.00D-01 BMatC= 1.01D-04 BMatP= 1.01D-04
 IDIUse=3 WtCom= 9.91D-01 WtEn= 8.57D-03
 Coeff-Com:  0.100D+01
 Coeff-En:   0.100D+01
 Coeff:      0.100D+01
 Gap=     0.225 Goal=   None    Shift=    0.000
 Gap=     0.059 Goal=   None    Shift=    0.000
 RMSDP=5.49D-04 MaxDP=4.62D-03              OVMax= 6.66D-03

 Cycle   2  Pass 0  IDiag  1:
 E= -399.682174863490     Delta-E=       -0.000054906386 Rises=F Damp=F
 DIIS: error= 3.58D-04 at cycle   2 NSaved=   2.
 NSaved= 2 IEnMin= 2 EnMin= -399.682174863490     IErMin= 2 ErrMin= 3.58D-04
 ErrMax= 3.58D-04  0.00D+00 EMaxC= 1.00D-01 BMatC= 1.45D-05 BMatP= 1.01D-04
 IDIUse=3 WtCom= 9.96D-01 WtEn= 3.58D-03
 Coeff-Com:  0.189D+00 0.811D+00
 Coeff-En:   0.000D+00 0.100D+01
 Coeff:      0.188D+00 0.812D+00
 Gap=     0.225 Goal=   None    Shift=    0.000
 Gap=     0.059 Goal=   None    Shift=    0.000
 RMSDP=2.33D-04 MaxDP=2.27D-03 DE=-5.49D-05 OVMax= 1.84D-03

 Cycle   3  Pass 0  IDiag  1:
 E= -399.682177035378     Delta-E=       -0.000002171888 Rises=F Damp=F
 DIIS: error= 2.29D-04 at cycle   3 NSaved=   3.
 NSaved= 3 IEnMin= 3 EnMin= -399.682177035378     IErMin= 3 ErrMin= 2.29D-04
 ErrMax= 2.29D-04  0.00D+00 EMaxC= 1.00D-01 BMatC= 8.18D-06 BMatP= 1.45D-05
 IDIUse=3 WtCom= 9.98D-01 WtEn= 2.29D-03
 Coeff-Com:  0.202D-01 0.425D+00 0.554D+00
 Coeff-En:   0.000D+00 0.373D+00 0.627D+00
 Coeff:      0.202D-01 0.425D+00 0.555D+00
 Gap=     0.225 Goal=   None    Shift=    0.000
 Gap=     0.059 Goal=   None    Shift=    0.000
 RMSDP=1.17D-04 MaxDP=1.07D-03 DE=-2.17D-06 OVMax= 1.33D-03

 Cycle   4  Pass 0  IDiag  1:
 E= -399.682180133886     Delta-E=       -0.000003098508 Rises=F Damp=F
 DIIS: error= 5.90D-05 at cycle   4 NSaved=   4.
 NSaved= 4 IEnMin= 4 EnMin= -399.682180133886     IErMin= 4 ErrMin= 5.90D-05
 ErrMax= 5.90D-05  0.00D+00 EMaxC= 1.00D-01 BMatC= 5.28D-07 BMatP= 8.18D-06
 IDIUse=1 WtCom= 1.00D+00 WtEn= 0.00D+00
 Coeff-Com: -0.245D-02 0.168D+00 0.294D+00 0.541D+00
 Coeff:     -0.245D-02 0.168D+00 0.294D+00 0.541D+00
 Gap=     0.225 Goal=   None    Shift=    0.000
 Gap=     0.059 Goal=   None    Shift=    0.000
 RMSDP=2.76D-05 MaxDP=1.95D-04 DE=-3.10D-06 OVMax= 2.25D-04

 Cycle   5  Pass 0  IDiag  1:
 E= -399.682180334501     Delta-E=       -0.000000200615 Rises=F Damp=F
 DIIS: error= 9.33D-06 at cycle   5 NSaved=   5.
 NSaved= 5 IEnMin= 5 EnMin= -399.682180334501     IErMin= 5 ErrMin= 9.33D-06
 ErrMax= 9.33D-06  0.00D+00 EMaxC= 1.00D-01 BMatC= 8.58D-09 BMatP= 5.28D-07
 IDIUse=1 WtCom= 1.00D+00 WtEn= 0.00D+00
 Coeff-Com: -0.138D-02-0.503D-01-0.455D-01-0.100D-01 0.111D+01
 Coeff:     -0.138D-02-0.503D-01-0.455D-01-0.100D-01 0.111D+01
 Gap=     0.225 Goal=   None    Shift=    0.000
 Gap=     0.059 Goal=   None    Shift=    0.000
 RMSDP=6.59D-06 MaxDP=5.84D-05 DE=-2.01D-07 OVMax= 9.22D-05

 Initial convergence to 1.0D-05 achieved.  Increase integral accuracy.
 Cycle   6  Pass 1  IDiag  1:
 E= -399.682182763088     Delta-E=       -0.000002428586 Rises=F Damp=F
 DIIS: error= 2.57D-06 at cycle   1 NSaved=   1.
 NSaved= 1 IEnMin= 1 EnMin= -399.682182763088     IErMin= 1 ErrMin= 2.57D-06
 ErrMax= 2.57D-06  0.00D+00 EMaxC= 1.00D-01 BMatC= 5.81D-10 BMatP= 5.81D-10
 IDIUse=1 WtCom= 1.00D+00 WtEn= 0.00D+00
 Coeff-Com:  0.100D+01
 Coeff:      0.100D+01
 Gap=     0.225 Goal=   None    Shift=    0.000
 Gap=     0.059 Goal=   None    Shift=    0.000
 RMSDP=6.59D-06 MaxDP=5.84D-05 DE=-2.43D-06 OVMax= 1.63D-05

 Cycle   7  Pass 1  IDiag  1:
 E= -399.682182763148     Delta-E=       -0.000000000061 Rises=F Damp=F
 DIIS: error= 1.83D-06 at cycle   2 NSaved=   2.
 NSaved= 2 IEnMin= 2 EnMin= -399.682182763148     IErMin= 2 ErrMin= 1.83D-06
 ErrMax= 1.83D-06  0.00D+00 EMaxC= 1.00D-01 BMatC= 4.94D-10 BMatP= 5.81D-10
 IDIUse=1 WtCom= 1.00D+00 WtEn= 0.00D+00
 Coeff-Com:  0.477D+00 0.523D+00
 Coeff:      0.477D+00 0.523D+00
 Gap=     0.225 Goal=   None    Shift=    0.000
 Gap=     0.059 Goal=   None    Shift=    0.000
 RMSDP=9.45D-07 MaxDP=7.10D-06 DE=-6.09D-11 OVMax= 1.03D-05

 Cycle   8  Pass 1  IDiag  1:
 E= -399.682182763337     Delta-E=       -0.000000000188 Rises=F Damp=F
 DIIS: error= 6.13D-07 at cycle   3 NSaved=   3.
 NSaved= 3 IEnMin= 3 EnMin= -399.682182763337     IErMin= 3 ErrMin= 6.13D-07
 ErrMax= 6.13D-07  0.00D+00 EMaxC= 1.00D-01 BMatC= 4.39D-11 BMatP= 4.94D-10
 IDIUse=1 WtCom= 1.00D+00 WtEn= 0.00D+00
 Coeff-Com:  0.101D+00 0.247D+00 0.652D+00
 Coeff:      0.101D+00 0.247D+00 0.652D+00
 Gap=     0.225 Goal=   None    Shift=    0.000
 Gap=     0.059 Goal=   None    Shift=    0.000
 RMSDP=2.73D-07 MaxDP=2.54D-06 DE=-1.88D-10 OVMax= 2.14D-06

 Cycle   9  Pass 1  IDiag  1:
 E= -399.682182763351     Delta-E=       -0.000000000015 Rises=F Damp=F
 DIIS: error= 2.00D-07 at cycle   4 NSaved=   4.
 NSaved= 4 IEnMin= 4 EnMin= -399.682182763351     IErMin= 4 ErrMin= 2.00D-07
 ErrMax= 2.00D-07  0.00D+00 EMaxC= 1.00D-01 BMatC= 2.78D-12 BMatP= 4.39D-11
 IDIUse=1 WtCom= 1.00D+00 WtEn= 0.00D+00
 Coeff-Com: -0.361D-01 0.267D-01 0.204D+00 0.805D+00
 Coeff:     -0.361D-01 0.267D-01 0.204D+00 0.805D+00
 Gap=     0.225 Goal=   None    Shift=    0.000
 Gap=     0.059 Goal=   None    Shift=    0.000
 RMSDP=7.79D-08 MaxDP=8.51D-07 DE=-1.47D-11 OVMax= 1.49D-06

 Cycle  10  Pass 1  IDiag  1:
 E= -399.682182763353     Delta-E=       -0.000000000002 Rises=F Damp=F
 DIIS: error= 6.71D-08 at cycle   5 NSaved=   5.
 NSaved= 5 IEnMin= 5 EnMin= -399.682182763353     IErMin= 5 ErrMin= 6.71D-08
 ErrMax= 6.71D-08  0.00D+00 EMaxC= 1.00D-01 BMatC= 5.43D-13 BMatP= 2.78D-12
 IDIUse=1 WtCom= 1.00D+00 WtEn= 0.00D+00
 Coeff-Com: -0.254D-01-0.132D-01-0.307D-02 0.348D+00 0.693D+00
 Coeff:     -0.254D-01-0.132D-01-0.307D-02 0.348D+00 0.693D+00
 Gap=     0.225 Goal=   None    Shift=    0.000
 Gap=     0.059 Goal=   None    Shift=    0.000
 RMSDP=4.25D-08 MaxDP=4.03D-07 DE=-1.65D-12 OVMax= 4.47D-07

 Cycle  11  Pass 1  IDiag  1:
 E= -399.682182763353     Delta-E=       -0.000000000000 Rises=F Damp=F
 DIIS: error= 1.21D-08 at cycle   6 NSaved=   6.
 NSaved= 6 IEnMin= 6 EnMin= -399.682182763353     IErMin= 6 ErrMin= 1.21D-08
 ErrMax= 1.21D-08  0.00D+00 EMaxC= 1.00D-01 BMatC= 1.12D-14 BMatP= 5.43D-13
 IDIUse=1 WtCom= 1.00D+00 WtEn= 0.00D+00
 Coeff-Com: -0.262D-02-0.444D-02-0.179D-01 0.685D-02 0.157D+00 0.861D+00
 Coeff:     -0.262D-02-0.444D-02-0.179D-01 0.685D-02 0.157D+00 0.861D+00
 Gap=     0.225 Goal=   None    Shift=    0.000
 Gap=     0.059 Goal=   None    Shift=    0.000
 RMSDP=5.09D-09 MaxDP=4.12D-08 DE=-3.41D-13 OVMax= 9.13D-08

 SCF Done:  E(UPBE-PBE) =  -399.682182763     A.U. after   11 cycles
            NFock= 11  Conv=0.51D-08     -V/T= 2.0014
 <Sx>= 0.0000 <Sy>= 0.0000 <Sz>= 0.5000 <S**2>= 0.7551 S= 0.5026
 <L.S>= 0.000000000000E+00
 KE= 3.991130345853D+02 PE=-9.831873480105D+02 EE= 1.680219117875D+02
 Annihilation of the first spin contaminant:
 S**2 before annihilation     0.7551,   after     0.7500
 Leave Link  502 at Wed Oct  7 16:12:47 2020, MaxMem=  2684354560 cpu:              17.7 elap:               2.0
 (Enter /udrive/faculty/rpeverati/g16/g16/l508.exe)
 QCSCF skips out because SCF is already converged.
 Leave Link  508 at Wed Oct  7 16:12:48 2020, MaxMem=  2684354560 cpu:               0.7 elap:               0.5
 (Enter /udrive/faculty/rpeverati/g16/g16/l701.exe)
 ... and contract with generalized density number  0.
 Compute integral first derivatives.
 Leave Link  701 at Wed Oct  7 16:12:49 2020, MaxMem=  2684354560 cpu:               4.6 elap:               0.7
 (Enter /udrive/faculty/rpeverati/g16/g16/l702.exe)
 L702 exits ... SP integral derivatives will be done elsewhere.
 Leave Link  702 at Wed Oct  7 16:12:50 2020, MaxMem=  2684354560 cpu:               1.2 elap:               0.6
 (Enter /udrive/faculty/rpeverati/g16/g16/l703.exe)
 Integral derivatives from FoFJK, PRISM(SPDF).
 Compute integral first derivatives, UseDBF=F ICtDFT=           0.
 Calling FoFJK, ICntrl=      2527 FMM=F ISym2X=1 I1Cent= 0 IOpClX= 0 NMat=1 NMatS=1 NMatT=0.
 FoFJK:  IHMeth= 1 ICntrl=    2527 DoSepK=F KAlg= 0 I1Cent=           0 FoldK=F
 IRaf=         0 NMat=       1 IRICut=       1 DoRegI=T DoRafI=F ISym2E= 1 IDoP0=0 IntGTp=1.
 FoFCou: FMM=F IPFlag=           0 FMFlag=      100000 FMFlg1=         800
         NFxFlg=           0 DoJE=F BraDBF=F KetDBF=F FulRan=T
         wScrn=  0.000000 ICntrl=      2527 IOpCl=  0 I1Cent=           0 NGrid=           0
         NMat0=    1 NMatS0=      1 NMatT0=    0 NMatD0=    1 NMtDS0=    0 NMtDT0=    0
 Petite list used in FoFCou.
 Leave Link  703 at Wed Oct  7 16:12:51 2020, MaxMem=  2684354560 cpu:               6.4 elap:               1.0
 (Enter /udrive/faculty/rpeverati/g16/g16/l716.exe)
 Dipole        = 2.78356841D-01-4.78936492D-01 0.00000000D+00
 ***** Axes restored to original set *****
 -------------------------------------------------------------------
 Center     Atomic                   Forces (Hartrees/Bohr)
 Number     Number              X              Y              Z
 -------------------------------------------------------------------
      1        1           0.007661905   -0.002706657   -0.000000000
      2       16          -0.003608944    0.014373330   -0.000000000
      3        1          -0.005304763   -0.016672239   -0.000000000
      4        1           0.001251802    0.005005567   -0.000000000
 -------------------------------------------------------------------
 Cartesian Forces:  Max     0.016672239 RMS     0.007178525
 Leave Link  716 at Wed Oct  7 16:12:52 2020, MaxMem=  2684354560 cpu:               1.8 elap:               0.6
 (Enter /udrive/faculty/rpeverati/g16/g16/l103.exe)

 GradGradGradGradGradGradGradGradGradGradGradGradGradGradGradGradGradGrad
 Berny optimization.
 Optmz: redundant internal coordinate code flag= 1
 Red2BG:  D1=  2.01D-01 OD1=  1.36D-02 B2RMS=  0.00D+00 IAprox=0
 FormGI is forming the generalized inverse of G from B-inverse, IUseBI=4.
 Internal  Forces:  Max     0.012351658 RMS     0.006393145
 Search for a saddle point.
 Step number   2 out of a maximum of   50
 All quantities printed in internal units (Hartrees-Bohrs-Radians)
 Swapping is turned off.
 Update second derivatives using D2CorX and points    1    2
 The second derivative matrix:
                          R1        R2        R3        A1        A2
           R1           0.26854
           R2          -0.00583   0.17483
           R3           0.01191   0.03352   0.09203
           A1           0.00111   0.00205  -0.00134   0.15999
           A2           0.00925  -0.01477   0.03460   0.00342   0.03607
           A3           0.00000   0.00000  -0.00000  -0.00000   0.00000
                          A3
           A3           0.00230
 ITU=  0  0
 Eigenvectors of the second derivative matrix:
                           1         2         3         4         5
     Eigenvalues --     0.00230   0.01444   0.10011   0.16001   0.18678
   1         R1        -0.00000   0.00571  -0.09463  -0.01111   0.02001
   2         R2         0.00000  -0.17687  -0.27746  -0.04602   0.94213
   3         R3        -0.00000   0.46309   0.81917  -0.03250   0.32985
   4         A1        -0.00000   0.02707   0.00142   0.99808   0.05474
   5         A2         0.00000  -0.86804   0.49297   0.02309  -0.01416
   6         A3         1.00000   0.00000   0.00000   0.00000  -0.00000
                           6
     Eigenvalues --     0.27012
   1         R1         0.99523
   2         R2        -0.04483
   3         R3         0.06824
   4         A1         0.01002
   5         A2         0.05240
   6         A3         0.00000
 Eigenvalue     1 is   2.30D-03 should be less than     0.000000 Eigenvector:
                          A3        R2        A2        R3        A1
   1                    1.00000   0.00000   0.00000  -0.00000  -0.00000
                          R1
   1                   -0.00000
 RLam0= 2.30D-03.
 Iter=   1 RLamda= 0.00000000D+00 Sum=-2.92646333D-03.
 Iter=   2 RLamda=-2.92646333D-03 Sum=-2.64517042D-03.
 Iter=   3 RLamda=-2.64517042D-03 Sum=-2.66841137D-03.
 Iter=   4 RLamda=-2.66841137D-03 Sum=-2.66646526D-03.
 Iter=   5 RLamda=-2.66646526D-03 Sum=-2.66662804D-03.
 Iter=   6 RLamda=-2.66662804D-03 Sum=-2.66661442D-03.
 Iter=   7 RLamda=-2.66661442D-03 Sum=-2.66661556D-03.
 RFO step:  Lambda0=2.300010000D-03 Lambda=-2.66661442D-03.
 Linear search not attempted -- option 19 set.
 Maximum step size (   0.100) exceeded in Quadratic search.
    -- Step size scaled by   0.244
 Iteration  1 RMS(Cart)=  0.03428233 RMS(Int)=  0.00152959
 Iteration  2 RMS(Cart)=  0.00126594 RMS(Int)=  0.00000173
 Iteration  3 RMS(Cart)=  0.00000142 RMS(Int)=  0.00000000
 Iteration  4 RMS(Cart)=  0.00000000 RMS(Int)=  0.00000000
 ITry= 1 IFail=0 DXMaxC= 4.29D-02 DCOld= 1.00D+10 DXMaxT= 1.00D-01 DXLimC= 3.00D+00 Rises=F
 ClnCor:  largest displacement from symmetrization is 3.87D-02 for atom     3.
 Variable       Old X    -DE/DX   Delta X   Delta X   Delta X     New X
                                 (Linear)    (Quad)   (Total)
    R1        2.54054   0.00812   0.00000   0.00818   0.00810   2.54864
    R2        2.72101   0.01235   0.00000   0.02926   0.02866   2.74967
    R3        2.16140  -0.00516   0.00000  -0.04222  -0.04308   2.11832
    A1        1.59117  -0.00028   0.00000  -0.00220  -0.00203   1.58914
    A2        3.05229   0.00012   0.00000   0.04785   0.04871   3.10100
    A3        3.14159  -0.00000   0.00000  -0.07071   0.00000   3.14159
         Item               Value     Threshold  Converged?
 Maximum Force            0.012352     0.000450     NO 
 RMS     Force            0.006393     0.000300     NO 
 Maximum Displacement     0.042938     0.001800     NO 
 RMS     Displacement     0.028245     0.001200     NO 
 Predicted change in Energy=-5.762479D-04
 Lowest energy point so far.  Saving SCF results.
 Largest change from initial coordinates is atom    3       0.039 Angstoms.
 GradGradGradGradGradGradGradGradGradGradGradGradGradGradGradGradGradGrad

 Leave Link  103 at Wed Oct  7 16:12:53 2020, MaxMem=  2684354560 cpu:               1.9 elap:               0.6
 (Enter /udrive/faculty/rpeverati/g16/g16/l202.exe)
                          Input orientation:                          
 ---------------------------------------------------------------------
 Center     Atomic      Atomic             Coordinates (Angstroms)
 Number     Number       Type             X           Y           Z
 ---------------------------------------------------------------------
      1          1           0        1.278916   -0.190936    0.000000
      2         16           0       -0.004537    0.223428    0.000000
      3          1           0       -0.476901   -1.152826    0.000000
      4          1           0       -0.797479   -2.226974    0.000000
 ---------------------------------------------------------------------
                    Distance matrix (angstroms):
                    1          2          3          4
     1  H    0.000000
     2  S    1.348684   0.000000
     3  H    2.002031   1.455062   0.000000
     4  H    2.908069   2.575505   1.120965   0.000000
 Stoichiometry    H3S(2)
 Framework group  CS[SG(H3S)]
 Deg. of freedom     5
 Full point group                 CS      NOp   2
 RotChk:  IX=0 Diff= 3.56D-03
 Largest Abelian subgroup         CS      NOp   2
 Largest concise Abelian subgroup C1      NOp   1
                         Standard orientation:                         
 ---------------------------------------------------------------------
 Center     Atomic      Atomic             Coordinates (Angstroms)
 Number     Number       Type             X           Y           Z
 ---------------------------------------------------------------------
      1          1           0        1.281668   -0.196639    0.000000
      2         16           0        0.000000    0.223214    0.000000
      3          1           0       -0.478249   -1.151007    0.000000
      4          1           0       -0.803419   -2.223773    0.000000
 ---------------------------------------------------------------------
 Rotational constants (GHZ):         284.3458108          60.5048430          49.8891286
 Leave Link  202 at Wed Oct  7 16:12:54 2020, MaxMem=  2684354560 cpu:               2.0 elap:               0.7
 (Enter /udrive/faculty/rpeverati/g16/g16/l301.exe)
 Standard basis: 6-31G(d) (5D, 7F)
 Ernie: Thresh=  0.10000D-02 Tol=  0.10000D-05 Strict=F.
 There are    20 symmetry adapted cartesian basis functions of A'  symmetry.
 There are     5 symmetry adapted cartesian basis functions of A"  symmetry.
 There are    19 symmetry adapted basis functions of A'  symmetry.
 There are     5 symmetry adapted basis functions of A"  symmetry.
    24 basis functions,    64 primitive gaussians,    25 cartesian basis functions
    10 alpha electrons        9 beta electrons
       nuclear repulsion energy        16.3025414719 Hartrees.
 IExCor= 1009 DFT=T Ex=PBE Corr=PBE ExCW=0 ScaHFX=  0.000000
 ScaDFX=  1.000000  1.000000  1.000000  1.000000 ScalE2=  1.000000  1.000000
 IRadAn=      5 IRanWt=     -1 IRanGd=            0 ICorTp=0 IEmpDi=  4
 NAtoms=    4 NActive=    4 NUniq=    4 SFac= 1.00D+00 NAtFMM=   60 NAOKFM=F Big=F
 Integral buffers will be    131072 words long.
 Raffenetti 2 integral format.
 Two-electron integral symmetry is turned on.
 Leave Link  301 at Wed Oct  7 16:12:55 2020, MaxMem=  2684354560 cpu:               1.9 elap:               0.6
 (Enter /udrive/faculty/rpeverati/g16/g16/l302.exe)
 NPDir=0 NMtPBC=     1 NCelOv=     1 NCel=       1 NClECP=     1 NCelD=      1
         NCelK=      1 NCelE2=     1 NClLst=     1 CellRange=     0.0.
 One-electron integrals computed using PRISM.
 One-electron integral symmetry used in STVInt
 NBasis=    24 RedAO= T EigKep=  2.35D-02  NBF=    19     5
 NBsUse=    24 1.00D-06 EigRej= -1.00D+00 NBFU=    19     5
 Precomputing XC quadrature grid using
 IXCGrd= 4 IRadAn=           5 IRanWt=          -1 IRanGd=           0 AccXCQ= 0.00D+00.
 Generated NRdTot=       0 NPtTot=           0 NUsed=           0 NTot=          32
 NSgBfM=    25    25    25    25    25 MxSgAt=     4 MxSgA2=     4.
 Leave Link  302 at Wed Oct  7 16:12:56 2020, MaxMem=  2684354560 cpu:               3.9 elap:               0.8
 (Enter /udrive/faculty/rpeverati/g16/g16/l303.exe)
 DipDrv:  MaxL=1.
 Leave Link  303 at Wed Oct  7 16:12:57 2020, MaxMem=  2684354560 cpu:               2.9 elap:               0.8
 (Enter /udrive/faculty/rpeverati/g16/g16/l401.exe)
 Initial guess from the checkpoint file:  "MN_90_RKT16_BH76_PBE_631Gs.chk"
 SCF N**3 symmetry information disabled.
 B after Tr=    -0.000000    0.000000    0.000000
         Rot=    1.000000    0.000000    0.000000    0.000792 Ang=   0.09 deg.
 Guess basis will be translated and rotated to current coordinates.
 JPrj=2 DoOrth=T DoCkMO=T.
 Initial guess orbital symmetries:
 Alpha Orbitals:
       Occupied  (A') (A') (A') (A') (A") (A') (A') (A') (A') (A")
       Virtual   (A') (A') (A') (A') (A') (A") (A') (A') (A') (A")
                 (A") (A') (A') (A')
 Beta  Orbitals:
       Occupied  (A') (A') (A') (A') (A") (A') (A') (A') (A")
       Virtual   (A') (A') (A') (A') (A') (A") (A') (A') (A') (A")
                 (A") (A') (A') (A') (A')
 The electronic state of the initial guess is 2-A'.
 Initial guess <Sx>= 0.0000 <Sy>= 0.0000 <Sz>= 0.5000 <S**2>= 0.7551 S= 0.5025
 Generating alternative initial guess.
 ExpMin= 1.17D-01 ExpMax= 2.19D+04 ExpMxC= 3.30D+03 IAcc=2 IRadAn=         4 AccDes= 0.00D+00
 Harris functional with IExCor= 1009 and IRadAn=       4 diagonalized for initial guess.
 HarFok:  IExCor= 1009 AccDes= 0.00D+00 IRadAn=         4 IDoV= 1 UseB2=F ITyADJ=14
 ICtDFT=  3500011 ScaDFX=  1.000000  1.000000  1.000000  1.000000
 FoFCou: FMM=F IPFlag=           0 FMFlag=      100000 FMFlg1=           0
         NFxFlg=           0 DoJE=T BraDBF=F KetDBF=T FulRan=T
         wScrn=  0.000000 ICntrl=       500 IOpCl=  0 I1Cent=   200000004 NGrid=           0
         NMat0=    1 NMatS0=      1 NMatT0=    0 NMatD0=    1 NMtDS0=    0 NMtDT0=    0
 Petite list used in FoFCou.
 Harris En= -399.623128902490    
 Leave Link  401 at Wed Oct  7 16:12:59 2020, MaxMem=  2684354560 cpu:               9.9 elap:               1.3
 (Enter /udrive/faculty/rpeverati/g16/g16/l502.exe)
 Keep J ints in memory in symmetry-blocked form, NReq=10390937.
 FoFCou: FMM=F IPFlag=           0 FMFlag=           0 FMFlg1=           0
         NFxFlg=           0 DoJE=F BraDBF=F KetDBF=F FulRan=T
         wScrn=  0.000000 ICntrl=       600 IOpCl=  0 I1Cent=           0 NGrid=           0
         NMat0=    1 NMatS0=    300 NMatT0=    0 NMatD0=    1 NMtDS0=    0 NMtDT0=    0
 Petite list used in FoFCou.
 UHF open shell SCF:
 Using DIIS extrapolation, IDIIS=  1040.
 NGot=  2684354560 LenX=  2684325898 LenY=  2684324832
 Requested convergence on RMS density matrix=1.00D-08 within 120 cycles.
 Requested convergence on MAX density matrix=1.00D-06.
 Requested convergence on             energy=1.00D-06.
 No special actions if energy rises.
 Integral accuracy reduced to 1.0D-05 until final iterations.

 Cycle   1  Pass 0  IDiag  1:
 E= -399.682637727862    
 DIIS: error= 1.39D-03 at cycle   1 NSaved=   1.
 NSaved= 1 IEnMin= 1 EnMin= -399.682637727862     IErMin= 1 ErrMin= 1.39D-03
 ErrMax= 1.39D-03  0.00D+00 EMaxC= 1.00D-01 BMatC= 2.41D-04 BMatP= 2.41D-04
 IDIUse=3 WtCom= 9.86D-01 WtEn= 1.39D-02
 Coeff-Com:  0.100D+01
 Coeff-En:   0.100D+01
 Coeff:      0.100D+01
 Gap=     0.224 Goal=   None    Shift=    0.000
 Gap=     0.056 Goal=   None    Shift=    0.000
 GapD=    0.056 DampG=0.500 DampE=1.000 DampFc=0.5000 IDamp=-1.
 Damping current iteration by 5.00D-01
 RMSDP=8.84D-04 MaxDP=8.98D-03              OVMax= 1.19D-02

 Cycle   2  Pass 0  IDiag  1:
 E= -399.682717140961     Delta-E=       -0.000079413099 Rises=F Damp=T
 DIIS: error= 1.04D-03 at cycle   2 NSaved=   2.
 NSaved= 2 IEnMin= 2 EnMin= -399.682717140961     IErMin= 2 ErrMin= 1.04D-03
 ErrMax= 1.04D-03  0.00D+00 EMaxC= 1.00D-01 BMatC= 6.10D-05 BMatP= 2.41D-04
 IDIUse=3 WtCom= 9.90D-01 WtEn= 1.04D-02
 Coeff-Com: -0.599D+00 0.160D+01
 Coeff-En:   0.000D+00 0.100D+01
 Coeff:     -0.593D+00 0.159D+01
 Gap=     0.225 Goal=   None    Shift=    0.000
 Gap=     0.057 Goal=   None    Shift=    0.000
 RMSDP=6.09D-04 MaxDP=5.66D-03 DE=-7.94D-05 OVMax= 4.31D-03

 Cycle   3  Pass 0  IDiag  1:
 E= -399.682791209873     Delta-E=       -0.000074068911 Rises=F Damp=F
 DIIS: error= 4.40D-04 at cycle   3 NSaved=   3.
 NSaved= 3 IEnMin= 3 EnMin= -399.682791209873     IErMin= 3 ErrMin= 4.40D-04
 ErrMax= 4.40D-04  0.00D+00 EMaxC= 1.00D-01 BMatC= 3.15D-05 BMatP= 6.10D-05
 IDIUse=3 WtCom= 9.96D-01 WtEn= 4.40D-03
 Coeff-Com: -0.445D+00 0.904D+00 0.541D+00
 Coeff-En:   0.000D+00 0.000D+00 0.100D+01
 Coeff:     -0.443D+00 0.900D+00 0.543D+00
 Gap=     0.224 Goal=   None    Shift=    0.000
 Gap=     0.056 Goal=   None    Shift=    0.000
 RMSDP=2.30D-04 MaxDP=2.21D-03 DE=-7.41D-05 OVMax= 2.90D-03

 Cycle   4  Pass 0  IDiag  1:
 E= -399.682804353792     Delta-E=       -0.000013143920 Rises=F Damp=F
 DIIS: error= 9.42D-05 at cycle   4 NSaved=   4.
 NSaved= 4 IEnMin= 4 EnMin= -399.682804353792     IErMin= 4 ErrMin= 9.42D-05
 ErrMax= 9.42D-05  0.00D+00 EMaxC= 1.00D-01 BMatC= 1.28D-06 BMatP= 3.15D-05
 IDIUse=1 WtCom= 1.00D+00 WtEn= 0.00D+00
 Coeff-Com: -0.100D+00 0.182D+00 0.215D+00 0.703D+00
 Coeff:     -0.100D+00 0.182D+00 0.215D+00 0.703D+00
 Gap=     0.224 Goal=   None    Shift=    0.000
 Gap=     0.056 Goal=   None    Shift=    0.000
 RMSDP=4.72D-05 MaxDP=3.65D-04 DE=-1.31D-05 OVMax= 4.09D-04

 Cycle   5  Pass 0  IDiag  1:
 E= -399.682804845207     Delta-E=       -0.000000491414 Rises=F Damp=F
 DIIS: error= 2.62D-05 at cycle   5 NSaved=   5.
 NSaved= 5 IEnMin= 5 EnMin= -399.682804845207     IErMin= 5 ErrMin= 2.62D-05
 ErrMax= 2.62D-05  0.00D+00 EMaxC= 1.00D-01 BMatC= 8.33D-08 BMatP= 1.28D-06
 IDIUse=1 WtCom= 1.00D+00 WtEn= 0.00D+00
 Coeff-Com:  0.549D-01-0.113D+00-0.181D-01 0.153D+00 0.924D+00
 Coeff:      0.549D-01-0.113D+00-0.181D-01 0.153D+00 0.924D+00
 Gap=     0.224 Goal=   None    Shift=    0.000
 Gap=     0.056 Goal=   None    Shift=    0.000
 RMSDP=1.59D-05 MaxDP=1.50D-04 DE=-4.91D-07 OVMax= 1.59D-04

 Cycle   6  Pass 0  IDiag  1:
 E= -399.682804886337     Delta-E=       -0.000000041130 Rises=F Damp=F
 DIIS: error= 6.98D-06 at cycle   6 NSaved=   6.
 NSaved= 6 IEnMin= 6 EnMin= -399.682804886337     IErMin= 6 ErrMin= 6.98D-06
 ErrMax= 6.98D-06  0.00D+00 EMaxC= 1.00D-01 BMatC= 4.02D-09 BMatP= 8.33D-08
 IDIUse=1 WtCom= 1.00D+00 WtEn= 0.00D+00
 Coeff-Com:  0.223D-01-0.441D-01-0.148D-01 0.296D-02 0.271D+00 0.763D+00
 Coeff:      0.223D-01-0.441D-01-0.148D-01 0.296D-02 0.271D+00 0.763D+00
 Gap=     0.224 Goal=   None    Shift=    0.000
 Gap=     0.056 Goal=   None    Shift=    0.000
 RMSDP=2.83D-06 MaxDP=2.22D-05 DE=-4.11D-08 OVMax= 2.28D-05

 Initial convergence to 1.0D-05 achieved.  Increase integral accuracy.
 Cycle   7  Pass 1  IDiag  1:
 E= -399.682807254524     Delta-E=       -0.000002368187 Rises=F Damp=F
 DIIS: error= 1.60D-06 at cycle   1 NSaved=   1.
 NSaved= 1 IEnMin= 1 EnMin= -399.682807254524     IErMin= 1 ErrMin= 1.60D-06
 ErrMax= 1.60D-06  0.00D+00 EMaxC= 1.00D-01 BMatC= 2.85D-10 BMatP= 2.85D-10
 IDIUse=1 WtCom= 1.00D+00 WtEn= 0.00D+00
 Coeff-Com:  0.100D+01
 Coeff:      0.100D+01
 Gap=     0.224 Goal=   None    Shift=    0.000
 Gap=     0.056 Goal=   None    Shift=    0.000
 RMSDP=2.83D-06 MaxDP=2.22D-05 DE=-2.37D-06 OVMax= 9.65D-06

 Cycle   8  Pass 1  IDiag  1:
 E= -399.682807254550     Delta-E=       -0.000000000026 Rises=F Damp=F
 DIIS: error= 1.22D-06 at cycle   2 NSaved=   2.
 NSaved= 2 IEnMin= 2 EnMin= -399.682807254550     IErMin= 2 ErrMin= 1.22D-06
 ErrMax= 1.22D-06  0.00D+00 EMaxC= 1.00D-01 BMatC= 2.50D-10 BMatP= 2.85D-10
 IDIUse=1 WtCom= 1.00D+00 WtEn= 0.00D+00
 Coeff-Com:  0.482D+00 0.518D+00
 Coeff:      0.482D+00 0.518D+00
 Gap=     0.224 Goal=   None    Shift=    0.000
 Gap=     0.056 Goal=   None    Shift=    0.000
 RMSDP=5.66D-07 MaxDP=4.05D-06 DE=-2.64D-11 OVMax= 5.68D-06

 Cycle   9  Pass 1  IDiag  1:
 E= -399.682807254641     Delta-E=       -0.000000000091 Rises=F Damp=F
 DIIS: error= 2.04D-07 at cycle   3 NSaved=   3.
 NSaved= 3 IEnMin= 3 EnMin= -399.682807254641     IErMin= 3 ErrMin= 2.04D-07
 ErrMax= 2.04D-07  0.00D+00 EMaxC= 1.00D-01 BMatC= 3.75D-12 BMatP= 2.50D-10
 IDIUse=1 WtCom= 1.00D+00 WtEn= 0.00D+00
 Coeff-Com:  0.267D-01 0.111D+00 0.863D+00
 Coeff:      0.267D-01 0.111D+00 0.863D+00
 Gap=     0.224 Goal=   None    Shift=    0.000
 Gap=     0.056 Goal=   None    Shift=    0.000
 RMSDP=9.55D-08 MaxDP=8.35D-07 DE=-9.10D-11 OVMax= 1.23D-06

 Cycle  10  Pass 1  IDiag  1:
 E= -399.682807254642     Delta-E=       -0.000000000001 Rises=F Damp=F
 DIIS: error= 1.09D-07 at cycle   4 NSaved=   4.
 NSaved= 4 IEnMin= 4 EnMin= -399.682807254642     IErMin= 4 ErrMin= 1.09D-07
 ErrMax= 1.09D-07  0.00D+00 EMaxC= 1.00D-01 BMatC= 1.53D-12 BMatP= 3.75D-12
 IDIUse=1 WtCom= 1.00D+00 WtEn= 0.00D+00
 Coeff-Com: -0.491D-02 0.396D-01 0.490D+00 0.475D+00
 Coeff:     -0.491D-02 0.396D-01 0.490D+00 0.475D+00
 Gap=     0.224 Goal=   None    Shift=    0.000
 Gap=     0.056 Goal=   None    Shift=    0.000
 RMSDP=5.23D-08 MaxDP=4.03D-07 DE=-1.19D-12 OVMax= 4.95D-07

 Cycle  11  Pass 1  IDiag  1:
 E= -399.682807254642     Delta-E=        0.000000000000 Rises=F Damp=F
 DIIS: error= 1.72D-08 at cycle   5 NSaved=   5.
 NSaved= 5 IEnMin= 4 EnMin= -399.682807254642     IErMin= 5 ErrMin= 1.72D-08
 ErrMax= 1.72D-08  0.00D+00 EMaxC= 1.00D-01 BMatC= 3.61D-14 BMatP= 1.53D-12
 IDIUse=1 WtCom= 1.00D+00 WtEn= 0.00D+00
 Coeff-Com: -0.492D-02 0.252D-03 0.572D-01 0.111D+00 0.837D+00
 Coeff:     -0.492D-02 0.252D-03 0.572D-01 0.111D+00 0.837D+00
 Gap=     0.224 Goal=   None    Shift=    0.000
 Gap=     0.056 Goal=   None    Shift=    0.000
 RMSDP=9.45D-09 MaxDP=8.51D-08 DE= 1.14D-13 OVMax= 1.37D-07

 SCF Done:  E(UPBE-PBE) =  -399.682807255     A.U. after   11 cycles
            NFock= 11  Conv=0.94D-08     -V/T= 2.0015
 <Sx>= 0.0000 <Sy>= 0.0000 <Sz>= 0.5000 <S**2>= 0.7554 S= 0.5027
 <L.S>= 0.000000000000E+00
 KE= 3.991017190186D+02 PE=-9.830422742475D+02 EE= 1.679552065024D+02
 Annihilation of the first spin contaminant:
 S**2 before annihilation     0.7554,   after     0.7500
 Leave Link  502 at Wed Oct  7 16:13:01 2020, MaxMem=  2684354560 cpu:              15.0 elap:               1.8
 (Enter /udrive/faculty/rpeverati/g16/g16/l508.exe)
 QCSCF skips out because SCF is already converged.
 Leave Link  508 at Wed Oct  7 16:13:02 2020, MaxMem=  2684354560 cpu:               0.5 elap:               0.5
 (Enter /udrive/faculty/rpeverati/g16/g16/l701.exe)
 ... and contract with generalized density number  0.
 Compute integral first derivatives.
 Leave Link  701 at Wed Oct  7 16:13:04 2020, MaxMem=  2684354560 cpu:               3.8 elap:               0.8
 (Enter /udrive/faculty/rpeverati/g16/g16/l702.exe)
 L702 exits ... SP integral derivatives will be done elsewhere.
 Leave Link  702 at Wed Oct  7 16:13:05 2020, MaxMem=  2684354560 cpu:               1.5 elap:               0.5
 (Enter /udrive/faculty/rpeverati/g16/g16/l703.exe)
 Integral derivatives from FoFJK, PRISM(SPDF).
 Compute integral first derivatives, UseDBF=F ICtDFT=           0.
 Calling FoFJK, ICntrl=      2527 FMM=F ISym2X=1 I1Cent= 0 IOpClX= 0 NMat=1 NMatS=1 NMatT=0.
 FoFJK:  IHMeth= 1 ICntrl=    2527 DoSepK=F KAlg= 0 I1Cent=           0 FoldK=F
 IRaf=         0 NMat=       1 IRICut=       1 DoRegI=T DoRafI=F ISym2E= 1 IDoP0=0 IntGTp=1.
 FoFCou: FMM=F IPFlag=           0 FMFlag=      100000 FMFlg1=         800
         NFxFlg=           0 DoJE=F BraDBF=F KetDBF=F FulRan=T
         wScrn=  0.000000 ICntrl=      2527 IOpCl=  0 I1Cent=           0 NGrid=           0
         NMat0=    1 NMatS0=      1 NMatT0=    0 NMatD0=    1 NMtDS0=    0 NMtDT0=    0
 Petite list used in FoFCou.
 Leave Link  703 at Wed Oct  7 16:13:06 2020, MaxMem=  2684354560 cpu:               6.1 elap:               1.0
 (Enter /udrive/faculty/rpeverati/g16/g16/l716.exe)
 Dipole        = 2.80165759D-01-4.73526647D-01 0.00000000D+00
 ***** Axes restored to original set *****
 -------------------------------------------------------------------
 Center     Atomic                   Forces (Hartrees/Bohr)
 Number     Number              X              Y              Z
 -------------------------------------------------------------------
      1        1           0.005680038   -0.001977299   -0.000000000
      2       16          -0.001893981    0.012259748   -0.000000000
      3        1          -0.006142729   -0.016544718   -0.000000000
      4        1           0.002356673    0.006262269   -0.000000000
 -------------------------------------------------------------------
 Cartesian Forces:  Max     0.016544718 RMS     0.006747171
 Leave Link  716 at Wed Oct  7 16:13:07 2020, MaxMem=  2684354560 cpu:               1.6 elap:               0.7
 (Enter /udrive/faculty/rpeverati/g16/g16/l103.exe)

 GradGradGradGradGradGradGradGradGradGradGradGradGradGradGradGradGradGrad
 Berny optimization.
 Optmz: redundant internal coordinate code flag= 1
 Red2BG:  D1=  2.04D-01 OD1=  1.57D-02 B2RMS=  0.00D+00 IAprox=0
 FormGI is forming the generalized inverse of G from B-inverse, IUseBI=4.
 Internal  Forces:  Max     0.010956113 RMS     0.005799643
 Search for a saddle point.
 Step number   3 out of a maximum of   50
 All quantities printed in internal units (Hartrees-Bohrs-Radians)
 Swapping is turned off.
 Update second derivatives using D2CorX and points    1    2    3
 The second derivative matrix:
                          R1        R2        R3        A1        A2
           R1           0.26957
           R2          -0.00631   0.16112
           R3           0.01424   0.05727   0.05303
           A1           0.00118   0.00288  -0.00271   0.15994
           A2           0.01487  -0.01433   0.04183   0.00357   0.06599
           A3           0.00000  -0.00000   0.00000   0.00000   0.00000
                          A3
           A3           0.00230
 ITU=  0  0  0
 Eigenvectors of the second derivative matrix:
                           1         2         3         4         5
     Eigenvalues --    -0.00104   0.00230   0.09252   0.15999   0.18603
   1         R1        -0.01811   0.00000  -0.11750  -0.01111  -0.00604
   2         R2        -0.32207   0.00000  -0.24287  -0.05029   0.91317
   3         R3         0.77129  -0.00000   0.48646  -0.04431   0.40136
   4         A1         0.03104  -0.00000  -0.01200   0.99740   0.06303
   5         A2        -0.54781   0.00000   0.83092   0.02408   0.03199
   6         A3         0.00000   1.00000  -0.00000   0.00000  -0.00000
                           6
     Eigenvalues --     0.27216
   1         R1         0.99283
   2         R2        -0.02962
   3         R3         0.07359
   4         A1         0.01069
   5         A2         0.08881
   6         A3        -0.00000
 RLam0= 7.75D-03.
 Iter=   1 RLamda= 0.00000000D+00 Sum=-9.76528237D-04.
 Iter=   2 RLamda=-9.76528237D-04 Sum=-9.68457985D-04.
 Iter=   3 RLamda=-9.68457985D-04 Sum=-9.68524071D-04.
 Iter=   4 RLamda=-9.68524071D-04 Sum=-9.68523530D-04.
 RFO step:  Lambda0=7.745376069D-03 Lambda=-9.68524071D-04.
 Linear search not attempted -- option 19 set.
 Maximum step size (   0.100) exceeded in Quadratic search.
    -- Step size scaled by   0.106
 Iteration  1 RMS(Cart)=  0.03583475 RMS(Int)=  0.00091429
 Iteration  2 RMS(Cart)=  0.00131078 RMS(Int)=  0.00000075
 Iteration  3 RMS(Cart)=  0.00000067 RMS(Int)=  0.00000000
 ITry= 1 IFail=0 DXMaxC= 5.53D-02 DCOld= 1.00D+10 DXMaxT= 1.00D-01 DXLimC= 3.00D+00 Rises=F
 ClnCor:  largest displacement from symmetrization is 3.03D-10 for atom     3.
 Variable       Old X    -DE/DX   Delta X   Delta X   Delta X     New X
                                 (Linear)    (Quad)   (Total)
    R1        2.54864   0.00601   0.00000   0.00112   0.00112   2.54976
    R2        2.74967   0.01096   0.00000  -0.02630  -0.02630   2.72337
    R3        2.11832  -0.00667   0.00000   0.07448   0.07448   2.19280
    A1        1.58914  -0.00034   0.00000   0.00302   0.00302   1.59215
    A2        3.10100  -0.00100   0.00000  -0.06124  -0.06124   3.03976
    A3        3.14159  -0.00000   0.00000   0.00000   0.00000   3.14159
         Item               Value     Threshold  Converged?
 Maximum Force            0.010956     0.000450     NO 
 RMS     Force            0.005800     0.000300     NO 
 Maximum Displacement     0.055344     0.001800     NO 
 RMS     Displacement     0.036349     0.001200     NO 
 Predicted change in Energy= 7.186836D-04
 Lowest energy point so far.  Saving SCF results.
 Largest change from initial coordinates is atom    4       0.027 Angstoms.
 GradGradGradGradGradGradGradGradGradGradGradGradGradGradGradGradGradGrad

 Leave Link  103 at Wed Oct  7 16:13:09 2020, MaxMem=  2684354560 cpu:               8.5 elap:               1.2
 (Enter /udrive/faculty/rpeverati/g16/g16/l202.exe)
                          Input orientation:                          
 ---------------------------------------------------------------------
 Center     Atomic      Atomic             Coordinates (Angstroms)
 Number     Number       Type             X           Y           Z
[...]
     4   1     0.29   0.93  -0.00    -0.54   0.15   0.00    -0.00  -0.00  -0.44
                      4                      5                      6
                     A'                     A'                     A'
 Frequencies --   1182.4398              2034.7707              2633.6196
 Red. masses --      1.0387                 1.0481                 1.0381
 Frc consts  --      0.8557                 2.5567                 4.2421
 IR Inten    --      4.6258                 1.9875                12.0950
  Atom  AN      X      Y      Z        X      Y      Z        X      Y      Z
     1   1    -0.20  -0.63   0.00    -0.03  -0.02   0.00     0.96  -0.29   0.00
     2  16    -0.01   0.03  -0.00    -0.01  -0.03  -0.00    -0.03   0.01  -0.00
     3   1     0.70  -0.25   0.00     0.35   0.91   0.00    -0.00   0.02   0.00
     4   1    -0.06  -0.01  -0.00     0.05   0.18  -0.00     0.00   0.00  -0.00

 -------------------
 - Thermochemistry -
 -------------------
 Temperature   298.150 Kelvin.  Pressure   1.00000 Atm.
 Atom     1 has atomic number  1 and mass   1.00783
 Atom     2 has atomic number 16 and mass  31.97207
 Atom     3 has atomic number  1 and mass   1.00783
 Atom     4 has atomic number  1 and mass   1.00783
 Molecular mass:    34.99555 amu.
 Principal axes and moments of inertia in atomic units:
                           1         2         3
     Eigenvalues --     6.45808  34.57056  41.02864
           X            0.32242   0.94660   0.00000
           Y            0.94660  -0.32242   0.00000
           Z            0.00000   0.00000   1.00000
 This molecule is an asymmetric top.
 Rotational symmetry number  1.
 Rotational temperatures (Kelvin)     13.41171     2.50542     2.11106
 Rotational constants (GHZ):         279.45476    52.20457    43.98735
    1 imaginary frequencies ignored.
 Zero-point vibrational energy      39259.5 (Joules/Mol)
                                    9.38325 (Kcal/Mol)
 Warning -- explicit consideration of   2 degrees of freedom as
           vibrations may cause significant error
 Vibrational temperatures:    487.82   537.80  1701.27  2927.58  3789.19
          (Kelvin)
 
 Zero-point correction=                           0.014953 (Hartree/Particle)
 Thermal correction to Energy=                    0.018514
 Thermal correction to Enthalpy=                  0.019458
 Thermal correction to Gibbs Free Energy=        -0.007701
 Sum of electronic and zero-point Energies=           -399.665426
 Sum of electronic and thermal Energies=              -399.661866
 Sum of electronic and thermal Enthalpies=            -399.660922
 Sum of electronic and thermal Free Energies=         -399.688080
 
                     E (Thermal)             CV                S
                      KCal/Mol        Cal/Mol-Kelvin    Cal/Mol-Kelvin
 Total                   11.617              9.313             57.159
 Electronic               0.000              0.000              1.377
 Translational            0.889              2.981             36.588
 Rotational               0.889              2.981             16.867
 Vibrational              9.840              3.351              2.326
 Vibration     1          0.719              1.597              1.217
 Vibration     2          0.745              1.526              1.064
                       Q            Log10(Q)             Ln(Q)
 Total Bot       0.348336D+04          3.541999          8.155754
 Total V=0       0.263007D+11         10.419967         23.992861
 Vib (Bot)       0.197561D-06         -6.704298        -15.437217
 Vib (Bot)    1  0.547981D+00         -0.261235         -0.601515
 Vib (Bot)    2  0.485794D+00         -0.313548         -0.721970
 Vib (V=0)       0.149166D+01          0.173670          0.399890
 Vib (V=0)    1  0.124181D+01          0.094055          0.216571
 Vib (V=0)    2  0.119713D+01          0.078143          0.179931
 Electronic      0.200000D+01          0.301030          0.693147
 Translational   0.813716D+07          6.910473         15.911952
 Rotational      0.108341D+04          3.034794          6.987872
 
                                                          TS search on BH76.
                                                             IR Spectrum
 
      2                           2                                        1                                                         
      6                           0                                        1                                      3 3                
      3                           3                                        8                                      7 3                
      4                           5                                        2                                      4 9                
 
      X                           X                                        X                                      X X                
      X                           X                                        X                                      X X                
      X                           X                                        X                                      X X                
      X                                                                    X                                      X X                
      X                                                                    X                                      X X                
      X                                                                    X                                      X X                
      X                                                                    X                                      X X                
      X                                                                    X                                      X X                
      X                                                                                                           X X                
      X                                                                                                           X X                
      X                                                                                                           X X                
      X                                                                                                           X X                
      X                                                                                                           X X                
      X                                                                                                           X                  
      X                                                                                                           X                  
      X                                                                                                           X                  
      X                                                                                                           X                  
      X                                                                                                           X                  
      X                                                                                                           X                  
      X                                                                                                           X                  
 
 ***** Axes restored to original set *****
 -------------------------------------------------------------------
 Center     Atomic                   Forces (Hartrees/Bohr)
 Number     Number              X              Y              Z
 -------------------------------------------------------------------
      1        1          -0.000003962   -0.000002456   -0.000000000
      2       16           0.000027643    0.000037957   -0.000000000
      3        1          -0.000030673   -0.000035015   -0.000000000
      4        1           0.000006992   -0.000000485   -0.000000000
 -------------------------------------------------------------------
 Cartesian Forces:  Max     0.000037957 RMS     0.000019241
 Force constants in Cartesian coordinates: 
                1             2             3             4             5 
      1  0.235093D+00
      2 -0.671809D-01  0.459291D-01
      3  0.000000D+00  0.000000D+00 -0.124494D-03
      4 -0.225867D+00  0.890651D-01  0.000000D+00  0.264549D+00
      5  0.628369D-01 -0.503732D-01  0.000000D+00 -0.253251D-01  0.235287D+00
      6  0.000000D+00  0.000000D+00  0.565160D-04  0.000000D+00  0.000000D+00
      7 -0.934805D-02 -0.221550D-01  0.000000D+00 -0.374991D-01 -0.291960D-01
      8  0.453874D-02  0.394660D-02  0.000000D+00 -0.546993D-01 -0.159732D+00
      9  0.000000D+00  0.000000D+00  0.136558D-03  0.000000D+00  0.000000D+00
     10  0.122242D-03  0.270819D-03  0.000000D+00 -0.118286D-02 -0.831577D-02
     11 -0.194716D-03  0.497455D-03  0.000000D+00 -0.904072D-02 -0.251812D-01
     12  0.000000D+00  0.000000D+00 -0.685795D-04  0.000000D+00  0.000000D+00
                6             7             8             9            10 
      6  0.105762D-02
      7  0.000000D+00  0.468661D-01
      8  0.000000D+00  0.408117D-01  0.128806D+00
      9 -0.226223D-02  0.000000D+00  0.000000D+00  0.423784D-02
     10  0.000000D+00 -0.189024D-04  0.934878D-02  0.000000D+00  0.107952D-02
     11  0.000000D+00  0.105393D-01  0.269794D-01  0.000000D+00 -0.130383D-02
     12  0.114810D-02  0.000000D+00  0.000000D+00 -0.211217D-02  0.000000D+00
               11            12 
     11 -0.229558D-02
     12  0.000000D+00  0.103265D-02
 FormGI is forming the generalized inverse of G from B-inverse, IUseBI=4.
 Force constants in internal coordinates: 
                1             2             3             4             5 
      1  0.256478D+00
      2 -0.191451D-02  0.203147D+00
      3  0.322711D-03  0.275182D-01 -0.273531D-02
      4  0.667759D-02  0.740090D-02 -0.121353D-02  0.162185D+00
      5 -0.412200D-03  0.126499D-03 -0.429702D-03 -0.137020D-02  0.113925D-01
      6  0.000000D+00  0.000000D+00  0.000000D+00  0.000000D+00  0.000000D+00
                6 
      6  0.411050D-02
 Leave Link  716 at Wed Oct  7 16:15:30 2020, MaxMem=  2684354560 cpu:               1.7 elap:               0.5
 (Enter /udrive/faculty/rpeverati/g16/g16/l103.exe)

 GradGradGradGradGradGradGradGradGradGradGradGradGradGradGradGradGradGrad
 Berny optimization.
 Optmz: redundant internal coordinate code flag= 1
 Red2BG:  D1=  1.78D-01 OD1=  5.55D-16 B2RMS=  0.00D+00 IAprox=1
 Red2BG is reusing G-inverse.
 Internal  Forces:  Max     0.000042279 RMS     0.000020314
 Search for a local minimum.
 Step number   1 out of a maximum of    2
 All quantities printed in internal units (Hartrees-Bohrs-Radians)
 Second derivative matrix not updated -- analytic derivatives used.
 The second derivative matrix:
                          R1        R2        R3        A1        A2
           R1           0.25648
           R2          -0.00191   0.20315
           R3           0.00032   0.02752  -0.00274
           A1           0.00668   0.00740  -0.00121   0.16219
           A2          -0.00041   0.00013  -0.00043  -0.00137   0.01139
           A3          -0.00000  -0.00000   0.00000  -0.00000   0.00000
                          A3
           A3           0.00411
 ITU=  0
 Eigenvectors of the second derivative matrix:
                           1         2         3         4         5
     Eigenvalues --    -0.00639   0.00411   0.01139   0.16060   0.20788
   1         R1        -0.00246  -0.00000  -0.00150  -0.07159  -0.01607
   2         R2        -0.13065   0.00000  -0.00272  -0.15306  -0.97916
   3         R3         0.99100  -0.00000   0.02581  -0.03322  -0.12705
   4         A1         0.01318  -0.00000  -0.00868   0.98502  -0.15760
   5         A2         0.02583  -0.00000  -0.99962  -0.00888   0.00078
   6         A3         0.00000   1.00000  -0.00000   0.00000   0.00000
                           6
     Eigenvalues --     0.25699
   1         R1         0.99730
   2         R2        -0.02709
   3         R3        -0.00195
   4         A1         0.06819
   5         A2        -0.00206
   6         A3         0.00000
 Eigenvalue     1 is  -6.39D-03 should be greater than     0.000000 Eigenvector:
                          R3        R2        A2        A1        R1
   1                    0.99100  -0.13065   0.02583   0.01318  -0.00246
                          A3
   1                    0.00000
 Angle between quadratic step and forces=  54.24 degrees.
 Linear search not attempted -- first point.
 Iteration  1 RMS(Cart)=  0.00146949 RMS(Int)=  0.00000128
 Iteration  2 RMS(Cart)=  0.00000121 RMS(Int)=  0.00000000
 Iteration  3 RMS(Cart)=  0.00000000 RMS(Int)=  0.00000000
 ITry= 1 IFail=0 DXMaxC= 2.19D-03 DCOld= 1.00D+10 DXMaxT= 3.00D-01 DXLimC= 3.00D+00 Rises=F
 ClnCor:  largest displacement from symmetrization is 1.20D-15 for atom     3.
 Variable       Old X    -DE/DX   Delta X   Delta X   Delta X     New X
                                 (Linear)    (Quad)   (Total)
    R1        2.56944  -0.00000   0.00000  -0.00001  -0.00001   2.56943
    R2        2.64072   0.00004   0.00000   0.00034   0.00034   2.64106
    R3        2.76313  -0.00000   0.00000  -0.00105  -0.00105   2.76209
    A1        1.60054  -0.00001   0.00000  -0.00008  -0.00008   1.60047
    A2        3.08222  -0.00003   0.00000  -0.00223  -0.00223   3.07998
    A3        3.14159   0.00000   0.00000   0.00000   0.00000   3.14159
         Item               Value     Threshold  Converged?
 Maximum Force            0.000042     0.000450     YES
 RMS     Force            0.000020     0.000300     YES
 Maximum Displacement     0.002188     0.001800     NO 
 RMS     Displacement     0.001470     0.001200     NO 
 Predicted change in Energy=-4.448143D-08
                           ----------------------------
                           ! Non-Optimized Parameters !
                           ! (Angstroms and Degrees)  !
 --------------------------                            --------------------------
 ! Name  Definition              Value          Derivative Info.                !
 --------------------------------------------------------------------------------
 ! R1    R(1,2)                  1.3597         -DE/DX =    0.0                 !
 ! R2    R(2,3)                  1.3976         -DE/DX =    0.0                 !
 ! R3    R(3,4)                  1.4616         -DE/DX =    0.0                 !
 ! A1    A(1,2,3)               91.7            -DE/DX =    0.0                 !
 ! A2    L(2,3,4,1,-1)         176.4701         -DE/DX =    0.0                 !
 ! A3    L(2,3,4,1,-2)         180.0            -DE/DX =    0.0                 !
 --------------------------------------------------------------------------------
 GradGradGradGradGradGradGradGradGradGradGradGradGradGradGradGradGradGrad

 Leave Link  103 at Wed Oct  7 16:15:31 2020, MaxMem=  2684354560 cpu:               1.9 elap:               0.6
 (Enter /udrive/faculty/rpeverati/g16/g16/l9999.exe)

 ----------------------------------------------------------------------

 Electric dipole moment (input orientation):
 (Debye = 10**-18 statcoulomb cm , SI units = C m)
                  (au)            (Debye)         (10**-30 SI)
   Tot        0.604082D+00      0.153542D+01      0.512162D+01
   x          0.246714D+00      0.627084D+00      0.209173D+01
   y         -0.551405D+00     -0.140153D+01     -0.467501D+01
   z          0.000000D+00      0.000000D+00      0.000000D+00

 Dipole polarizability, Alpha (input orientation).
 (esu units = cm**3 , SI units = C**2 m**2 J**-1)
 Alpha(0;0):
               (au)            (10**-24 esu)      (10**-40 SI)
   iso        0.202904D+02      0.300673D+01      0.334544D+01
   aniso      0.193969D+02      0.287432D+01      0.319811D+01
   xx         0.189261D+02      0.280456D+01      0.312049D+01
   yx         0.545963D+01      0.809034D+00      0.900171D+00
   yy         0.306788D+02      0.454612D+01      0.505824D+01
   zx         0.000000D+00      0.000000D+00      0.000000D+00
   zy         0.000000D+00      0.000000D+00      0.000000D+00
   zz         0.112665D+02      0.166952D+01      0.185759D+01

 ----------------------------------------------------------------------

 Dipole orientation:
     1          1.95954611          0.87675464          1.27318856
    16          0.22876725          0.10235674         -0.46080535
     1         -1.45011294         -0.64882028          1.43405410
     1         -3.09632607         -1.38538116          3.52746218

 Electric dipole moment (dipole orientation):
 (Debye = 10**-18 statcoulomb cm , SI units = C m)
                  (au)            (Debye)         (10**-30 SI)
   Tot        0.604082D+00      0.153542D+01      0.512162D+01
   x          0.000000D+00      0.000000D+00      0.000000D+00
   y          0.000000D+00      0.000000D+00      0.000000D+00
   z          0.604082D+00      0.153542D+01      0.512162D+01

 Dipole polarizability, Alpha (dipole orientation).
 (esu units = cm**3 , SI units = C**2 m**2 J**-1)
 Alpha(0;0):
               (au)            (10**-24 esu)      (10**-40 SI)
   iso        0.202904D+02      0.300673D+01      0.334544D+01
   aniso      0.193969D+02      0.287432D+01      0.319811D+01
   xx         0.226735D+02      0.335987D+01      0.373836D+01
   yx         0.510382D+01      0.756308D+00      0.841507D+00
   yy         0.135501D+02      0.200791D+01      0.223410D+01
   zx        -0.732033D+01     -0.108476D+01     -0.120696D+01
   zy        -0.327532D+01     -0.485352D+00     -0.540027D+00
   zz         0.246478D+02      0.365242D+01      0.406387D+01

 ----------------------------------------------------------------------

 Test job not archived.
 1\1\GINC-NODE62\Freq\UPBEPBE\6-31G(d)\H3S1(2)\RPEVERATI\07-Oct-2020\0\
 \#P Freq PBEPBE/6-31G* 5D 7F Integral=UltraFineGrid SCF=(NoSymm,XQC,Ma
 xCyc=120) IOp(1/33=1) Geom=Check Guess=Read\\TS search on BH76.\\0,2\H
 ,1.3121108936,-0.1510322332,0.\S,0.0214683578,0.2767485794,0.\H,-0.457
 4364319,-1.0360349183,0.\H,-0.8761438779,-2.4369892288,0.\\Version=ES6
 4L-G16RevA.03\State=2-A'\HF=-399.6803795\S2=0.752262\S2-1=0.\S2A=0.75\
 RMSD=5.054e-10\RMSF=1.924e-05\ZeroPoint=0.0149532\Thermal=0.0185135\Di
 pole=0.2467136,-0.5514048,0.\DipoleDeriv=-0.061569,0.0444445,0.,0.1500
 498,0.0180777,0.,0.,0.,0.1624585,0.0083431,-0.1128625,0.,-0.1337563,-0
 .0407416,0.,0.,0.,-0.3089536,0.0112737,0.0313009,0.,-0.0449197,-0.0794
 363,0.,0.,0.,0.1250876,0.0419523,0.0371171,0.,0.0286262,0.1021002,0.,0
 .,0.,0.0214075\Polar=18.9260902,5.4596302,30.6787611,0.,0.,11.2664641\
 Quadrupole=1.2572141,0.6516313,-1.9088454,0.4510848,0.,0.\PG=CS [SG(H3
 S1)]\NImag=1\\0.23509283,-0.06718090,0.04592911,0.,0.,-0.00012449,-0.2
 2586702,0.08906509,0.,0.26454900,0.06283688,-0.05037317,0.,-0.02532511
 ,0.23528668,0.,0.,0.00005652,0.,0.,0.00105762,-0.00934805,-0.02215501,
 0.,-0.03749912,-0.02919599,0.,0.04686608,0.00453874,0.00394660,0.,-0.0
 5469926,-0.15973228,0.,0.04081174,0.12880632,0.,0.,0.00013656,0.,0.,-0
 .00226223,0.,0.,0.00423784,0.00012224,0.00027082,0.,-0.00118286,-0.008
 31577,0.,-0.00001890,0.00934878,0.,0.00107952,-0.00019472,0.00049745,0
 .,-0.00904072,-0.02518124,0.,0.01053927,0.02697936,0.,-0.00130383,-0.0
 0229558,0.,0.,-0.00006858,0.,0.,0.00114810,0.,0.,-0.00211217,0.,0.,0.0
 0103265\\0.00000396,0.00000246,0.,-0.00002764,-0.00003796,0.,0.0000306
 7,0.00003502,0.,-0.00000699,0.00000049,0.\\\@


 AND ALL THIS SCIENCE I DON'T UNDERSTAND
 IT'S JUST MY JOB FIVE DAYS A WEEK

                           -- ELTON JOHN, "ROCKET MAN"
 Job cpu time:       0 days  0 hours  1 minutes 50.8 seconds.
 Elapsed time:       0 days  0 hours  0 minutes 18.5 seconds.
 File lengths (MBytes):  RWF=      5 Int=      0 D2E=      0 Chk=      1 Scr=      1
 Normal termination of Gaussian 16 at Wed Oct  7 16:15:32 2020.
